Control file title. For DL_FIELD 4.10
49868
    1MOL     C1    1   1.696   4.111   0.342 -0.6240  0.0840 -0.4249
    1MOL     C2    2   1.771   4.128   0.472 -0.2541 -0.3356 -0.5779
    1MOL     C3    3   1.897   4.206   0.449  0.1567 -0.1320 -0.4699
    1MOL     H4    4   1.668   4.206   0.297 -1.2518  2.1394  3.9941
    1MOL     H5    5   1.607   4.050   0.355  0.0518 -0.6010  1.0638
    1MOL     H6    6   1.804   4.032   0.510 -0.9893 -1.1991 -2.0774
    1MOL     H7    7   1.936   4.182   0.350  0.1598  0.2020 -0.5507
    1MOL     H8    8   1.878   4.313   0.444 -0.2553 -0.1869 -0.0938
    1MOL     H9    9   1.974   4.186   0.524  1.5751 -0.2827 -1.9444
    1MOL    H10   10   1.754   4.058   0.267 -1.9009 -0.3324 -1.1377
    1MOL    C11   11   1.681   4.193   0.579  0.5653 -0.5359  0.0024
    1MOL    C12   12   1.594   4.094   0.661  0.3009 -0.0782 -0.0939
    1MOL    C13   13   1.680   4.025   0.767  0.1009  0.6681 -0.1714
    1MOL    H14   14   1.744   4.247   0.649 -1.2014  1.3265  0.2271
    1MOL    H15   15   1.629   4.276   0.530 -0.9923 -1.7952 -0.5292
    1MOL    H16   16   1.566   4.002   0.609 -0.4363 -0.9367  1.7790
    1MOL    H17   17   1.627   3.940   0.809 -0.8646  0.3855 -1.8962
    1MOL    H18   18   1.765   3.987   0.711 -0.7053  0.7034 -1.4452
    1MOL    H19   19   1.717   4.104   0.832  0.5908  0.5738 -0.3290
    1MOL    C20   20   1.462   4.161   0.720  0.2353 -0.0271  0.6031
    1MOL    C21   21   1.370   4.222   0.620  0.1771 -0.0749  0.0420
    1MOL    C22   22   1.316   4.117   0.508  0.6155 -0.0692 -0.7814
    1MOL    H23   23   1.414   4.091   0.788  1.2027  1.6541  3.0783
    1MOL    H24   24   1.498   4.236   0.789  2.4117  1.2926 -1.8586
    1MOL    H25   25   1.420   4.301   0.564 -1.5515  2.5327  2.1043
    1MOL    H26   26   1.395   4.102   0.435  0.2432  0.2060 -1.2395
    1MOL    H27   27   1.289   4.019   0.548  2.7343  0.6132  2.5306
    1MOL    H28   28   1.240   4.161   0.444  1.0673  0.2736 -1.0856
    1MOL    C29   29   1.245   4.279   0.698 -0.1899 -0.4250  0.2328
    1MOL    C30   30   1.279   4.408   0.777  0.3235  0.0931 -0.1913
    1MOL    C31   31   1.320   4.526   0.689  0.9756 -0.3189 -0.4823
    1MOL    H32   32   1.162   4.295   0.628  1.8744 -2.1460 -2.7547
    1MOL    H33   33   1.202   4.204   0.764 -0.7279  0.1009  0.4828
    1MOL    H34   34   1.365   4.393   0.842  0.6651  2.2488 -0.1190
    1MOL    H35   35   1.265   4.532   0.595  1.3721  0.1608 -0.6867
    1MOL    H36   36   1.320   4.620   0.744 -1.5235  0.6401 -2.0376
    1MOL    H37   37   1.423   4.502   0.663  0.9004 -1.2765  0.0573
    1MOL    C38   38   1.172   4.463   0.874 -0.5926 -0.3787 -0.6350
    1MOL    C39   39   1.129   4.378   0.997 -0.9134 -0.0599  0.4427
    1MOL    C40   40   1.015   4.287   0.991 -0.0719  0.2594 -0.3299
    1MOL    H41   41   1.226   4.545   0.921 -0.4342 -0.0586 -1.3840
    1MOL    H42   42   1.078   4.503   0.834 -1.1282 -0.2355  0.7290
    1MOL    H43   43   1.090   4.443   1.075  0.1772  0.9649  0.1540
    1MOL    H44   44   1.010   4.231   1.084  1.7813  3.4118  1.7276
    1MOL    H45   45   0.917   4.333   0.981  0.3755  1.2944  0.0147
    1MOL    H46   46   1.026   4.211   0.913 -4.9175  0.4363 -1.3342
    1MOL    C47   47   1.252   4.308   1.064  0.2141 -0.3442 -0.1642
    1MOL    C48   48   1.364   4.404   1.130 -0.4345  0.0479  0.1589
    1MOL    C49   49   1.298   4.482   1.247 -0.0688 -0.0726 -0.0277
    1MOL    H50   50   1.215   4.234   1.134  0.4903  0.6882  1.0972
    1MOL    H51   51   1.295   4.244   0.987  0.5026 -0.4996  0.1317
    1MOL    H52   52   1.389   4.477   1.053  1.2916 -0.8016 -0.1030
    1MOL    H53   53   1.285   4.418   1.334  2.0686 -0.3340  0.1300
    1MOL    H54   54   1.355   4.571   1.275  0.5341 -0.8656  1.3205
    1MOL    H55   55   1.207   4.531   1.213 -0.4292 -1.8009 -1.6267
    1MOL    C56   56   1.492   4.330   1.185  0.6579  0.5469 -0.0943
    1MOL    C57   57   1.597   4.270   1.090  0.1204 -0.6585  0.1052
    1MOL    C58   58   1.655   4.390   1.012  0.5685 -0.3535  0.3078
    1MOL    H59   59   1.535   4.401   1.256 -1.3392  1.3892  0.3009
    1MOL    H60   60   1.445   4.260   1.253  2.5776 -0.6884  0.0218
    1MOL    H61   61   1.543   4.196   1.030 -1.4443 -0.5444  1.3429
    1MOL    H62   62   1.703   4.470   1.069  1.1959 -1.3746  1.2334
    1MOL    H63   63   1.747   4.353   0.966  0.6749 -0.6161  0.7372
    1MOL    H64   64   1.589   4.428   0.934  2.2991  0.0603 -1.0107
    1MOL    C65   65   1.705   4.201   1.175 -0.7629  0.5758  0.4895
    1MOL    C66   66   1.680   4.060   1.238 -0.1702 -0.0334 -0.1660
    1MOL    C67   67   1.641   3.953   1.133 -0.5046 -0.3618  0.7194
    1MOL    H68   68   1.800   4.194   1.122 -1.7561 -0.2621 -1.2032
    1MOL    H69   69   1.737   4.264   1.258 -0.3006  1.8049 -0.6070
    1MOL    H70   70   1.589   4.071   1.297 -0.3526  1.2562 -0.6734
    1MOL    H71   71   1.550   3.988   1.085 -1.2996 -0.2192  2.3058
    1MOL    H72   72   1.727   3.943   1.067 -1.1583  1.6221 -0.5069
    1MOL    H73   73   1.616   3.855   1.174  1.1807 -0.3406  1.8376
    1MOL    C74   74   1.798   4.010   1.330 -0.0810 -0.6318  0.2332
    1MOL    C75   75   1.747   3.960   1.464 -0.2516  0.1411  0.0399
    1MOL    C76   76   1.865   3.887   1.541 -0.4567  0.7144  0.3330
    1MOL    H77   77   1.857   3.942   1.268  1.5410  1.4865 -0.6196
    1MOL    H78   78   1.872   4.088   1.348 -2.2299  1.3950  0.5394
    1MOL    H79   79   1.670   3.885   1.443 -0.4907  0.4101 -0.0348
    1MOL    H80   80   1.930   3.961   1.587 -1.2472  0.0698  2.5591
    1MOL    H81   81   1.833   3.823   1.623  0.2473  0.0712  0.1127
    1MOL    H82   82   1.915   3.826   1.466 -0.4173  0.2311  0.7473
    1MOL    C83   83   1.691   4.075   1.553 -0.2002  0.0252 -0.3973
    1MOL    C84   84   1.668   4.049   1.706 -0.0363 -0.1954  0.1923
    1MOL    C85   85   1.665   4.189   1.784 -0.6106 -0.4756  0.4399
    1MOL    H86   86   1.769   4.150   1.559  1.3119 -1.5784  0.5768
    1MOL    H87   87   1.604   4.130   1.517 -1.1928 -0.5619  1.0350
    1MOL    H88   88   1.757   3.997   1.742  1.4968  1.2158 -1.4381
    1MOL    H89   89   1.617   4.266   1.724 -0.8913 -1.2782 -0.3724
    1MOL    H90   90   1.614   4.171   1.879 -0.5600 -0.5040  0.4618
    1MOL    H91   91   1.759   4.226   1.824 -1.2328 -0.7046  2.1755
    1MOL    C92   92   1.542   3.969   1.740 -0.1806  0.0026  0.5929
    1MOL    C93   93   1.539   3.891   1.882 -0.3100  0.3717 -0.0983
    1MOL    C94   94   1.398   3.856   1.922 -0.0065  0.2153  0.3198
    1MOL    H95   95   1.460   4.041   1.737 -1.0181 -0.9557  0.2949
    1MOL    H96   96   1.517   3.901   1.658 -2.4089  1.7568 -0.2520
    1MOL    H97   97   1.572   3.962   1.957  0.0881 -0.6705  0.7174
    1MOL    H98   98   1.401   3.784   2.004  2.4657 -0.6812 -0.4848
    1MOL    H99   99   1.346   3.942   1.961  0.6215  0.6035  0.3125
    1MOL   H100  100   1.344   3.800   1.845  1.7956 -2.6939  1.0627
    1MOL   C101  101   1.635   3.768   1.889 -0.2060 -0.2332 -0.3463
    1MOL   C102  102   1.705   3.743   2.032  0.2556  0.0176 -0.7447
    1MOL   C103  103   1.792   3.613   2.038 -0.0972 -0.2273  0.1854
    1MOL   H104  104   1.585   3.675   1.861  0.2192 -0.5170 -0.1801
    1MOL   H105  105   1.710   3.781   1.811  0.2589 -2.3759 -0.3143
    1MOL   H106  106   1.626   3.723   2.104 -0.0865 -0.2134 -1.1833
    1MOL   H107  107   1.726   3.526   2.048 -0.6435 -0.0680 -1.9848
    1MOL   H108  108   1.859   3.610   1.952  1.0151 -2.7378  1.0621
    1MOL   H109  109   1.850   3.612   2.131  1.0641  1.2077 -0.5034
    1MOL   C110  110   1.804   3.858   2.082 -1.1938 -0.0523  0.2783
    1MOL   C111  111   1.809   3.849   2.237  0.4751 -0.6796  0.0224
    1MOL   C112  112   1.953   3.811   2.285 -0.2199  0.6067 -0.6164
    1MOL   H113  113   1.903   3.844   2.038 -0.8063 -0.0679  1.1357
    1MOL   H114  114   1.770   3.960   2.065 -0.8071 -0.1929 -1.4151
    1MOL   H115  115   1.761   3.760   2.278 -0.9758 -0.3347 -0.8568
    1MOL   H116  116   1.940   3.759   2.380  1.1124  1.4813  0.0509
    1MOL   H117  117   1.990   3.731   2.221 -1.5051  1.0128 -1.8971
    1MOL   H118  118   2.010   3.903   2.296  0.8778 -0.2487  0.9997
    1MOL   C119  119   1.751   3.973   2.319 -0.3507  1.0155 -0.4871
    1MOL   C120  120   1.598   4.003   2.288 -0.7834 -0.5599  0.8196
    1MOL   C121  121   1.509   3.891   2.339 -0.3627 -0.3066 -0.2933
    1MOL   H122  122   1.767   3.952   2.425 -0.2035 -2.2501 -1.1052
    1MOL   H123  123   1.799   4.068   2.293 -0.4090  0.8499 -1.2115
    1MOL   H124  124   1.583   4.008   2.180 -0.8267  0.5858  0.8695
    1MOL   H125  125   1.510   3.877   2.447 -1.6942 -1.1367 -0.3795
    1MOL   H126  126   1.403   3.904   2.316 -0.0694  1.5551 -0.7455
    1MOL   H127  127   1.525   3.798   2.285 -2.1413  0.6107 -2.4783
    1MOL   C128  128   1.556   4.138   2.342  1.0087  0.3186  0.0697
    1MOL   C129  129   1.415   4.186   2.297  0.4810 -0.5867  0.2765
    1MOL   C130  130   1.353   4.290   2.397 -0.0639 -0.4473 -0.1524
    1MOL   H131  131   1.563   4.135   2.451 -3.2158  0.3858  0.4103
    1MOL   H132  132   1.625   4.218   2.317  1.3002  0.2950  0.7729
    1MOL   H133  133   1.339   4.109   2.296 -1.3724  1.1758  1.9010
    1MOL   H134  134   1.262   4.341   2.363 -0.2465 -0.4756  0.2966
    1MOL   H135  135   1.336   4.247   2.495 -1.7966  0.2608 -0.1211
    1MOL   H136  136   1.430   4.364   2.416 -0.0108 -0.1708 -1.3863
    1MOL   C137  137   1.416   4.240   2.157  0.1808  0.4556  0.7844
    1MOL   C138  138   1.443   4.388   2.124  0.0298  0.1688 -1.2949
    1MOL   C139  139   1.592   4.433   2.151  0.2461 -0.7436  0.1996
    1MOL   H140  140   1.493   4.188   2.100  0.9751  2.1754  0.2276
    1MOL   H141  141   1.315   4.223   2.120 -0.1783  4.5883 -0.4211
    1MOL   H142  142   1.386   4.455   2.188 -0.0737 -3.1463  2.2758
    1MOL   H143  143   1.653   4.352   2.110 -0.0798 -0.6071 -0.5471
    1MOL   H144  144   1.615   4.523   2.094 -0.9624  0.5495  1.7031
    1MOL   H145  145   1.619   4.443   2.256 -0.1263 -1.0086  0.3191
    1MOL   C146  146   1.399   4.431   1.984 -0.3674  0.1950  0.8952
    1MOL   C147  147   1.251   4.417   1.947 -0.8428  0.0425  0.0187
    1MOL   C148  148   1.178   4.540   2.006 -0.1172 -0.2106  0.0037
    1MOL   H149  149   1.431   4.534   1.971  1.6054 -0.6572 -1.5767
    1MOL   H150  150   1.456   4.378   1.907 -0.2079  0.4308  0.8514
    1MOL   H151  151   1.207   4.325   1.984 -3.7077  1.3361 -0.0403
    1MOL   H152  152   1.177   4.536   2.115 -0.2977 -0.6309 -0.0122
    1MOL   H153  153   1.225   4.632   1.973 -0.7296  0.6468  1.4590
    1MOL   H154  154   1.074   4.536   1.974 -0.2759 -0.3437  0.5329
    1MOL   C155  155   1.231   4.429   1.798  0.0245  0.6396  0.1063
    1MOL   C156  156   1.098   4.372   1.738  0.5184  0.2194  0.0040
    1MOL   C157  157   1.084   4.431   1.600 -0.0766  0.0375  0.4873
    1MOL   H158  158   1.254   4.530   1.766  1.1665  0.7486  1.2341
    1MOL   H159  159   1.316   4.374   1.757  0.4059 -0.2601  2.0377
    1MOL   H160  160   1.011   4.405   1.795 -1.2553 -2.2016 -1.2086
    1MOL   H161  161   1.082   4.539   1.596  4.4197  0.3710  3.3981
    1MOL   H162  162   1.160   4.395   1.531 -0.1338 -2.3621  1.6004
    1MOL   H163  163   0.983   4.400   1.573 -0.4066 -0.5154  2.2819
    1MOL   C164  164   1.106   4.218   1.731  0.1076 -0.1927  0.1626
    1MOL   C165  165   0.976   4.143   1.701 -0.1534 -0.4444 -0.0812
    1MOL   C166  166   0.963   4.093   1.558 -0.1581 -0.0658  0.0250
    1MOL   H167  167   1.191   4.177   1.676  0.5434 -0.1287  0.7922
    1MOL   H168  168   1.135   4.203   1.835  1.2841 -0.7393 -0.2308
    1MOL   H169  169   0.890   4.205   1.727 -1.2373 -1.1738 -1.8265
    1MOL   H170  170   1.056   4.050   1.519 -0.1122 -0.2157  0.3050
    1MOL   H171  171   0.881   4.026   1.536  3.1384 -3.2844 -3.2656
    1MOL   H172  172   0.943   4.183   1.499 -0.4929 -0.7731 -0.9588
    1MOL   C173  173   0.967   4.017   1.799  0.5197 -0.6617  0.7413
    1MOL   C174  174   0.830   3.941   1.805 -0.3169 -0.2542  0.3871
    1MOL   C175  175   0.812   3.854   1.925 -0.0524 -0.1740 -0.2538
    1MOL   H176  176   1.047   3.946   1.780  2.1353  1.2580  0.1642
    1MOL   H177  177   0.992   4.054   1.898  2.1037 -2.8359  1.1869
    1MOL   H178  178   0.822   3.878   1.716 -1.6236 -2.4350  1.9956
    1MOL   H179  179   0.711   3.816   1.936  0.6640 -2.0033  0.0821
    1MOL   H180  180   0.874   3.767   1.904 -1.9173 -2.0243  1.7347
    1MOL   H181  181   0.841   3.904   2.017 -2.8159 -0.3563  0.7505
    1MOL   H182  182   0.753   4.018   1.807 -1.1320 -1.0171 -1.1669
    2MOL     C1  183   5.594   0.714   2.388 -0.5385  0.0316 -0.0069
    2MOL     C2  184   5.528   0.600   2.317  0.1293  0.0044 -0.9106
    2MOL     C3  185   5.531   0.630   2.168 -0.0747 -0.0703  0.4286
    2MOL     H4  186   5.560   0.811   2.353 -1.0835 -0.3313 -0.4875
    2MOL     H5  187   5.697   0.728   2.358 -1.0956  0.7406 -1.6279
    2MOL     H6  188   5.423   0.592   2.346  0.0403  2.6447 -0.3972
    2MOL     H7  189   5.442   0.586   2.123  0.0093 -0.8422  1.0127
    2MOL     H8  190   5.516   0.736   2.147  0.8432  0.0483  0.3453
    2MOL     H9  191   5.618   0.599   2.111 -0.5391  1.5567 -1.2264
    2MOL    H10  192   5.604   0.702   2.496  2.7389 -0.5092 -0.3386
    2MOL    C11  193   5.590   0.461   2.351 -0.3116 -0.3420  0.3983
    2MOL    C12  194   5.537   0.338   2.271  0.4384 -0.3121  0.5642
    2MOL    C13  195   5.622   0.209   2.311 -0.0755 -1.0402  0.6420
    2MOL    H14  196   5.698   0.465   2.343 -0.3041 -1.2124  0.0628
    2MOL    H15  197   5.580   0.451   2.459  1.7303  0.1496  0.6526
    2MOL    H16  198   5.559   0.362   2.167 -0.5656  2.2020  0.8905
    2MOL    H17  199   5.603   0.121   2.250 -0.0489 -0.9072  0.4415
    2MOL    H18  200   5.727   0.227   2.288  0.2290 -2.9314  0.4573
    2MOL    H19  201   5.614   0.195   2.419  0.0674  2.8590  1.2170
    2MOL    C20  202   5.385   0.303   2.288 -0.1883 -0.5362 -0.2316
    2MOL    C21  203   5.336   0.203   2.182 -0.2760 -0.2535  0.0606
    2MOL    C22  204   5.291   0.074   2.246 -0.5838  0.1706  0.6313
    2MOL    H23  205   5.376   0.271   2.392 -1.3115  2.2495  0.5813
    2MOL    H24  206   5.330   0.396   2.298 -1.4309 -1.2698 -0.1378
    2MOL    H25  207   5.410   0.173   2.108 -1.8143  0.0248 -1.6408
    2MOL    H26  208   5.231   0.014   2.178 -0.0675 -0.5786  0.8279
    2MOL    H27  209   5.374   0.009   2.275  0.0016 -1.2638 -3.8654
    2MOL    H28  210   5.225   0.093   2.331 -0.6610  1.2728  0.3311
    2MOL    C29  211   5.211   0.258   2.115 -0.7334  0.0866  0.3858
    2MOL    C30  212   5.213   0.385   2.026 -0.1856  0.0524  0.4673
    2MOL    C31  213   5.281   0.353   1.903  0.2670  0.3091  0.0630
    2MOL    H32  214   5.184   0.179   2.044 -0.0474  0.2868 -0.1002
    2MOL    H33  215   5.137   0.258   2.195 -1.6726  0.3861 -0.4740
    2MOL    H34  216   5.275   0.463   2.071  0.3229  1.6638 -2.8955
    2MOL    H35  217   5.385   0.330   1.926  0.6381  2.5218  0.7046
    2MOL    H36  218   5.240   0.269   1.847  1.6718  0.9689 -2.0314
    2MOL    H37  219   5.278   0.426   1.822 -2.4481  1.3839  1.0726
    2MOL    C38  220   5.077   0.453   1.994 -0.9609  0.3563  0.9124
    2MOL    C39  221   4.990   0.506   2.109 -0.5342 -1.0132  0.0191
    2MOL    C40  222   5.040   0.636   2.164  0.1972  0.6009 -0.5550
    2MOL    H41  223   5.087   0.523   1.910  0.3125  0.3831  1.0806
    2MOL    H42  224   5.015   0.372   1.957 -0.5716 -0.3338  1.7582
    2MOL    H43  225   5.005   0.442   2.196 -1.0953 -0.4204  0.5551
    2MOL    H44  226   5.148   0.640   2.151  0.0392  0.3491 -2.0264
    2MOL    H45  227   4.999   0.714   2.099  0.8609  0.3534 -1.2839
    2MOL    H46  228   4.993   0.653   2.260  0.0209 -1.4761 -0.2498
    2MOL    C47  229   4.840   0.504   2.067 -0.0975 -0.1276  0.3861
    2MOL    C48  230   4.736   0.514   2.184 -0.0921 -0.6697  1.0418
    2MOL    C49  231   4.612   0.600   2.142  0.0483  0.9778  0.0738
    2MOL    H50  232   4.825   0.581   1.990 -0.1927 -1.9282 -1.4309
    2MOL    H51  233   4.818   0.409   2.019 -1.4789  0.7951 -0.8680
    2MOL    H52  234   4.785   0.566   2.266  1.0072 -0.4994  0.2711
    2MOL    H53  235   4.531   0.597   2.215 -0.1836 -0.3915 -0.2327
    2MOL    H54  236   4.641   0.703   2.119  1.5127  0.9167  1.5149
    2MOL    H55  237   4.574   0.554   2.051  1.8355  0.9401 -0.6749
    2MOL    C56  238   4.679   0.380   2.240  0.2587  0.0235  0.5442
    2MOL    C57  239   4.788   0.284   2.295 -0.1474  0.0793  0.3961
    2MOL    C58  240   4.861   0.346   2.420  0.1385 -0.0071  0.1349
    2MOL    H59  241   4.596   0.402   2.307 -1.2674  0.8935 -1.5577
    2MOL    H60  242   4.629   0.336   2.153  0.8617  0.7171 -0.1683
    2MOL    H61  243   4.861   0.268   2.215  0.6090  1.6640  0.7463
    2MOL    H62  244   4.937   0.272   2.447  0.1121 -0.5784 -1.2844
    2MOL    H63  245   4.906   0.444   2.411  0.9132 -0.2507  1.2119
    2MOL    H64  246   4.778   0.355   2.491 -0.8603  0.1128 -1.0315
    2MOL    C65  247   4.714   0.152   2.326  0.0141  0.0859  0.4423
    2MOL    C66  248   4.719   0.056   2.198  0.3152 -0.3423  0.3990
    2MOL    C67  249   4.852   7.685   2.201 -0.4739  0.6536  0.1194
    2MOL    H68  250   4.746   0.100   2.416 -0.7580  1.6105  1.6376
    2MOL    H69  251   4.608   0.158   2.352  0.8213  0.8670  3.7972
    2MOL    H70  252   4.717   0.127   2.115  2.2331  1.0860  1.5303
    2MOL    H71  253   4.847   7.585   2.158 -0.2771  0.5742  0.2838
    2MOL    H72  254   4.927   0.052   2.154  0.8459 -0.1849  1.0569
    2MOL    H73  255   4.880   7.671   2.305 -1.4501  1.2649  0.4726
    2MOL    C74  256   4.606   7.647   2.189 -0.6434  0.1641 -0.0255
    2MOL    C75  257   4.470   0.016   2.148  1.1227 -0.3712 -0.3785
    2MOL    C76  258   4.468   0.049   2.000 -0.2194 -0.0799  0.5551
    2MOL    H77  259   4.636   7.576   2.112  0.7092  2.5999 -1.8095
    2MOL    H78  260   4.589   7.596   2.284 -1.9260  2.5312  1.0708
    2MOL    H79  261   4.453   0.106   2.206  0.5634 -1.5326  1.2868
    2MOL    H80  262   4.372   0.076   1.956  0.4987 -1.3119 -1.8151
    2MOL    H81  263   4.535   0.135   1.988 -0.7516  0.6247  2.3211
    2MOL    H82  264   4.503   7.673   1.928 -0.9490  0.9949 -0.9275
    2MOL    C83  265   4.352   7.619   2.178 -0.2420  0.3268 -0.1016
    2MOL    C84  266   4.223   0.004   2.188  0.1947  0.4085  0.0682
    2MOL    C85  267   4.107   7.609   2.140 -0.2113  0.5596 -0.0449
    2MOL    H86  268   4.350   7.551   2.093  2.8503 -3.2625  2.5280
    2MOL    H87  269   4.369   7.552   2.262  0.0497 -1.2848 -1.4306
    2MOL    H88  270   4.212   0.086   2.118 -0.0641  1.2137  1.0429
    2MOL    H89  271   4.114   7.597   2.032  1.1153  1.6791 -0.1013
    2MOL    H90  272   4.113   7.514   2.194 -0.9155 -1.0661 -2.7140
    2MOL    H91  273   4.005   7.642   2.154 -1.5151 -3.5362  0.9068
    2MOL    C92  274   4.182   0.034   2.335  0.5856  0.3743  0.2478
    2MOL    C93  275   4.270   0.142   2.404 -0.9087  0.1724  0.3614
    2MOL    C94  276   4.256   0.285   2.341  0.2720  0.4081 -0.2528
    2MOL    H95  277   4.076   0.056   2.328  0.8870  1.5960 -0.8795
    2MOL    H96  278   4.185   7.640   2.394 -1.7136  1.0200  1.4076
    2MOL    H97  279   4.375   0.117   2.387 -0.8001  0.1631  1.0448
    2MOL    H98  280   4.326   0.359   2.381 -0.2415 -0.0279  1.5031
    2MOL    H99  281   4.272   0.288   2.233  1.2714  1.1786 -0.0981
    2MOL   H100  282   4.159   0.334   2.351 -0.4733 -0.9863 -0.4902
    2MOL   C101  283   4.249   0.154   2.556 -0.1963 -0.6996 -0.1356
    2MOL   C102  284   4.276   0.026   2.643 -0.4443  0.1005 -0.2847
    2MOL   C103  285   4.423   7.687   2.640  0.4571  0.3963  0.8149
    2MOL   H104  286   4.327   0.226   2.581 -0.4836  0.1284 -1.6069
    2MOL   H105  287   4.153   0.198   2.581 -0.7125 -2.4357  1.0330
    2MOL   H106  288   4.203   7.651   2.608 -0.8988  0.4618 -0.0766
    2MOL   H107  289   4.448   7.609   2.712 -0.4664  0.1118  0.8322
    2MOL   H108  290   4.452   7.648   2.543 -0.1200 -1.4473  1.3542
    2MOL   H109  291   4.494   0.068   2.668  2.3036 -1.2983  0.9752
    2MOL   C110  292   4.226   0.046   2.783  0.7351  0.9711 -0.4599
    2MOL   C111  293   4.088   0.003   2.826  0.3010 -0.9083 -0.4927
    2MOL   C112  294   4.090   7.551   2.861 -0.4146 -0.4587 -0.3309
    2MOL   H113  295   4.297   0.006   2.856 -0.6497  0.4912  0.6375
    2MOL   H114  296   4.242   0.154   2.794  1.0695  0.9626 -0.8438
    2MOL   H115  297   4.028   0.011   2.735  2.1778  1.6641 -1.5629
    2MOL   H116  298   4.153   7.496   2.792  0.2074 -1.0798  0.7192
    2MOL   H117  299   4.120   7.526   2.963 -1.7099  0.7071  0.3673
    2MOL   H118  300   3.988   7.512   2.855 -1.5310  2.1466  0.7682
    2MOL   C119  301   4.029   0.074   2.951 -0.3272 -0.4116 -0.3088
    2MOL   C120  302   4.023   0.229   2.942  0.0657 -0.2268 -1.2933
    2MOL   C121  303   3.939   0.282   2.825 -0.3984  0.9654 -0.1656
    2MOL   H122  304   3.933   0.028   2.973 -0.2424 -0.8516 -0.8546
    2MOL   H123  305   4.094   0.055   3.036  0.5171 -0.2828 -0.9143
    2MOL   H124  306   4.120   0.276   2.928  0.1966 -0.6068 -1.6484
    2MOL   H125  307   3.837   0.249   2.841 -1.1141  3.0291 -0.2837
    2MOL   H126  308   3.949   0.390   2.810  2.4681  0.5305 -1.7467
    2MOL   H127  309   3.964   0.241   2.727  2.0101  1.0607  0.3786
    2MOL   C128  310   3.964   0.288   3.076 -0.2649  1.0736  0.0147
    2MOL   C129  311   4.048   0.277   3.214  0.4076 -0.2931 -0.2884
    2MOL   C130  312   4.102   0.416   3.244 -0.0692  0.9450  0.8381
    2MOL   H131  313   3.925   0.389   3.062 -1.4454  0.7149  0.6827
    2MOL   H132  314   3.869   0.235   3.086 -0.2876  0.9124 -1.0158
    2MOL   H133  315   4.134   0.211   3.205  0.7075  0.2657 -1.7410
    2MOL   H134  316   4.023   0.480   3.283  1.1891  2.1088  1.5152
    2MOL   H135  317   4.187   0.421   3.313 -1.4701  2.8407  2.4856
    2MOL   H136  318   4.120   0.464   3.148 -0.3008  1.3170  0.9822
    2MOL   C137  319   3.968   0.229   3.335 -1.4069 -0.6335  0.5588
    2MOL   C138  320   3.972   0.082   3.367  0.2679 -0.9332 -0.1465
    2MOL   C139  321   4.105   0.008   3.356 -0.2869 -0.0018  0.3688
    2MOL   H140  322   4.020   0.272   3.420  1.1981  0.4689 -1.5082
    2MOL   H141  323   3.869   0.274   3.332 -0.9773  0.2447 -3.0005
    2MOL   H142  324   3.911   0.032   3.292 -0.0134 -2.4342  1.0641
    2MOL   H143  325   4.184   0.043   3.424  0.4183 -1.5548  0.3650
    2MOL   H144  326   4.098   7.601   3.385 -1.3563 -0.0908 -0.2145
    2MOL   H145  327   4.145   0.014   3.255 -0.9688  0.2348  0.1138
    2MOL   C146  328   3.918   0.054   3.510 -0.3051  0.4234  0.0428
    2MOL   C147  329   3.823   7.624   3.526 -0.1323  1.1624 -0.0628
    2MOL   C148  330   3.795   7.571   3.667  0.4885 -0.5324  0.3618
    2MOL   H149  331   4.005   0.036   3.574  0.2820 -1.4353 -1.2256
    2MOL   H150  332   3.868   0.143   3.548 -0.7298 -0.1414  0.8276
    2MOL   H151  333   3.880   7.540   3.487 -0.8646  0.0356  1.2400
    2MOL   H152  334   3.706   7.509   3.661 -0.5908  1.1447 -1.9364
    2MOL   H153  335   3.883   7.524   3.711  2.1981  0.5496 -1.7866
    2MOL   H154  336   3.770   7.650   3.738 -1.3289 -0.1863 -0.6295
    2MOL   C155  337   3.687   7.633   3.452 -0.8627  0.0828  0.2434
    2MOL   C156  338   3.674   7.545   3.325 -0.3825  0.0930 -0.0735
    2MOL   C157  339   3.687   7.391   3.359  0.2340  0.1396  0.5640
    2MOL   H158  340   3.604   7.609   3.518 -2.2837 -0.1867 -1.5821
    2MOL   H159  341   3.676   0.041   3.425  0.8517 -0.5947 -3.5262
    2MOL   H160  342   3.757   7.570   3.259 -0.2618  0.0503  0.0622
    2MOL   H161  343   3.769   7.367   3.427  1.1483 -1.1493 -0.9598
    2MOL   H162  344   3.595   7.339   3.383  0.3403  0.4394  1.6544
    2MOL   H163  345   3.722   7.328   3.277 -1.8917 -0.3926  0.0536
    2MOL   C164  346   3.554   7.572   3.239  0.6332 -0.4605 -0.0900
    2MOL   C165  347   3.588   7.672   3.123  0.5241  0.2029  0.1652
    2MOL   C166  348   3.677   7.613   3.003  0.2256  0.6180 -0.6945
    2MOL   H167  349   3.524   7.480   3.190  0.2952  0.6282 -1.9755
    2MOL   H168  350   3.479   7.611   3.308  1.4456 -0.5229  0.8412
    2MOL   H169  351   3.651   0.053   3.167  2.3755  0.0279 -2.1017
    2MOL   H170  352   3.635   7.536   2.937  0.8954 -0.9976  0.7061
    2MOL   H171  353   3.719   7.687   2.936  0.3865  0.6681 -0.5375
    2MOL   H172  354   3.766   7.562   3.039 -0.4982  1.5149  2.4492
    2MOL   C173  355   3.463   0.045   3.054  0.1699 -0.5024 -0.0450
    2MOL   C174  356   3.429   0.173   3.130 -0.4573  0.5268 -0.8609
    2MOL   C175  357   3.327   0.266   3.071 -0.8352  0.4089 -0.0936
    2MOL   H176  358   3.497   0.071   2.953  1.7537 -0.4245  0.4995
    2MOL   H177  359   3.374   7.681   3.047 -2.0560  2.8666 -2.9643
    2MOL   H178  360   3.518   0.233   3.152 -0.2918 -0.6104  1.8296
    2MOL   H179  361   3.323   0.359   3.127  0.8048  0.2047  0.4090
    2MOL   H180  362   3.349   0.293   2.968 -0.4408 -0.4403 -0.2437
    2MOL   H181  363   3.225   0.230   3.083 -0.9885  1.2321  1.1165
    2MOL   H182  364   3.389   0.135   3.224  1.0804  1.1983  0.0839
    3MOL     C1  365   4.820   1.190   5.681  0.0671  0.6327 -0.5733
    3MOL     C2  366   4.875   1.237   5.810 -0.2153  0.3784  0.0698
    3MOL     C3  367   4.758   1.298   5.880 -0.5155  0.0279 -0.7526
    3MOL     H4  368   4.788   1.275   5.620 -0.7231 -1.8434 -3.7321
    3MOL     H5  369   4.748   1.109   5.688 -0.6875  1.2014 -1.6006
    3MOL     H6  370   4.941   1.319   5.783 -0.2798  0.4480  0.1248
    3MOL     H7  371   4.781   1.344   5.976 -0.1178  0.5510 -1.0914
    3MOL     H8  372   4.707   1.366   5.811  0.7169  0.5851 -1.1369
    3MOL     H9  373   4.689   1.222   5.915  1.7788 -1.2304  1.1815
    3MOL    H10  374   4.906   1.148   5.628  2.5329  1.7757  2.3735
    3MOL    C11  375   4.967   1.143   5.892  0.1455  0.0717 -0.0097
    3MOL    C12  376   5.079   1.054   5.818  0.2749 -0.2777 -0.3114
    3MOL    C13  377   5.194   1.147   5.770  0.1781 -0.2149 -0.5472
    3MOL    H14  378   5.012   1.198   5.975 -3.4254  0.5496  1.7084
    3MOL    H15  379   4.904   1.074   5.949  0.0056 -0.5317 -0.8940
    3MOL    H16  380   5.025   1.004   5.737  1.7179  0.4855 -1.7778
    3MOL    H17  381   5.165   1.239   5.720 -0.8894  0.5314  1.3637
    3MOL    H18  382   5.252   1.169   5.860 -1.1742  1.0982  0.0374
    3MOL    H19  383   5.265   1.088   5.713  0.2326 -0.6884 -0.0023
    3MOL    C20  384   5.138   0.939   5.903 -0.1599 -0.2416 -1.0482
    3MOL    C21  385   5.251   0.855   5.847  0.3826  0.1134 -0.5902
    3MOL    C22  386   5.316   0.762   5.947  0.0741  0.1430  0.4447
    3MOL    H23  387   5.153   0.969   6.007 -0.6558 -1.1490 -0.7069
    3MOL    H24  388   5.064   0.859   5.908 -0.7951  0.3034 -1.7008
    3MOL    H25  389   5.332   0.924   5.824 -0.1674  0.3554 -1.8703
    3MOL    H26  390   5.416   0.730   5.918 -0.0507 -1.1365  1.3850
    3MOL    H27  391   5.326   0.810   6.044  0.0370  1.2151 -0.0658
    3MOL    H28  392   5.258   0.671   5.964  0.0109 -0.0184 -0.5875
    3MOL    C29  393   5.201   0.773   5.726  0.1194  0.4180 -0.1870
    3MOL    C30  394   5.303   0.687   5.645 -0.5902 -0.0380 -0.2188
    3MOL    C31  395   5.437   0.762   5.605 -0.4022 -0.2959  0.1166
    3MOL    H32  396   5.117   0.707   5.747  0.3372  0.0910 -0.3458
    3MOL    H33  397   5.160   0.845   5.655  0.7679  0.7525 -0.2193
    3MOL    H34  398   5.249   0.676   5.551  0.5804  0.6464 -0.9864
    3MOL    H35  399   5.501   0.781   5.690  0.3280 -0.4915 -0.3859
    3MOL    H36  400   5.500   0.696   5.546 -1.0797  0.3541 -1.3720
    3MOL    H37  401   5.416   0.856   5.553 -0.1839  0.3007  1.1125
    3MOL    C38  402   5.346   0.548   5.699 -0.0479  0.6857  0.5505
    3MOL    C39  403   5.231   0.444   5.720 -0.1314 -1.0767 -0.7510
    3MOL    C40  404   5.138   0.437   5.598  0.3918  0.1388 -0.5078
    3MOL    H41  405   5.414   0.505   5.626 -1.0294  0.7887 -0.4458
    3MOL    H42  406   5.399   0.553   5.794 -1.8274 -0.8508  1.6875
    3MOL    H43  407   5.180   0.485   5.807  3.0969  2.3010 -0.3229
    3MOL    H44  408   5.184   0.416   5.501 -1.2554 -1.0758 -1.0611
    3MOL    H45  409   5.054   0.368   5.604  0.7967 -0.4694 -1.6300
    3MOL    H46  410   5.092   0.534   5.586  0.3791 -0.0637 -2.2125
    3MOL    C47  411   5.277   0.299   5.761  0.0702 -0.2381 -0.0027
    3MOL    C48  412   5.354   0.290   5.894 -0.2268 -0.6247 -0.4792
    3MOL    C49  413   5.277   0.350   6.012  0.6031  0.0310  0.3513
    3MOL    H50  414   5.189   0.235   5.766 -0.0215 -0.0074  1.5367
    3MOL    H51  415   5.335   0.268   5.674 -0.5871 -2.4076  0.3213
    3MOL    H52  416   5.450   0.339   5.878 -1.0163  0.1543 -3.1980
    3MOL    H53  417   5.343   0.343   6.098  0.2759  1.6005  0.7487
    3MOL    H54  418   5.248   0.455   6.005 -0.9804 -0.4749 -1.2098
    3MOL    H55  419   5.183   0.297   6.025  0.7914 -0.4712 -0.3160
    3MOL    C56  420   5.410   0.151   5.927 -0.5940 -0.8725 -1.4590
    3MOL    C57  421   5.504   0.098   5.811  0.2537 -0.4196 -0.2198
    3MOL    C58  422   5.641   0.181   5.822 -0.2991  0.3888  0.5657
    3MOL    H59  423   5.463   0.155   6.021 -0.3810  1.8479 -1.6638
    3MOL    H60  424   5.336   0.074   5.950 -0.6076 -0.9472 -1.7478
    3MOL    H61  425   5.472   0.104   5.707 -1.4064 -1.6212  0.2106
    3MOL    H62  426   5.668   0.172   5.928 -0.7741 -1.8347  0.5212
    3MOL    H63  427   5.715   0.131   5.760 -0.7207  1.8789 -1.1757
    3MOL    H64  428   5.619   0.282   5.789  0.9127  0.1244 -1.1129
    3MOL    C65  429   5.533   7.644   5.837  0.1559  0.9635 -0.2186
    3MOL    C66  430   5.412   7.547   5.834  0.0211 -0.1145 -0.0453
    3MOL    C67  431   5.331   7.549   5.705 -0.2963 -0.3607  0.1221
    3MOL    H68  432   5.615   7.616   5.770  0.4967  1.7152 -0.1134
    3MOL    H69  433   5.582   7.644   5.934  0.7190  0.1945 -0.4983
    3MOL    H70  434   5.344   7.574   5.914 -3.0321  0.2495 -2.6589
    3MOL    H71  435   5.265   7.635   5.691  1.0332  0.4382 -1.3276
    3MOL    H72  436   5.403   7.548   5.623 -0.5276  2.1145 -0.1543
    3MOL    H73  437   5.252   7.474   5.709  0.9067 -1.6580 -0.1652
    3MOL    C74  438   5.459   7.405   5.865 -0.4269 -0.0735  0.3872
    3MOL    C75  439   5.508   7.368   6.011  0.2479 -0.4403 -0.1790
    3MOL    C76  440   5.405   7.416   6.117 -0.6747 -0.3072 -0.0916
    3MOL    H77  441   5.385   7.332   5.834  0.8250 -1.6073  0.9641
    3MOL    H78  442   5.539   7.389   5.793  1.0124  1.8229  1.5034
    3MOL    H79  443   5.609   7.409   6.017  1.1491 -2.6371  0.2474
    3MOL    H80  444   5.306   7.384   6.085  1.2155 -4.1080 -2.4871
    3MOL    H81  445   5.424   7.373   6.215 -2.6048  0.3157  0.5612
    3MOL    H82  446   5.398   7.524   6.125 -0.5982 -0.3931  1.2449
    3MOL    C83  447   5.539   7.215   6.034  0.2445  0.2538 -1.5333
    3MOL    C84  448   5.680   7.178   5.981  0.8531  0.1542  0.0812
    3MOL    C85  449   5.787   7.224   6.086  0.0462  0.2152  0.9246
    3MOL    H86  450   5.538   7.187   6.139 -1.3618  2.7855 -0.8348
    3MOL    H87  451   5.463   7.148   5.991 -2.3912  0.4928  2.4864
    3MOL    H88  452   5.711   7.239   5.896 -1.0301  0.9014 -0.0941
    3MOL    H89  453   5.777   7.331   6.104 -0.9523 -0.0792  2.1267
    3MOL    H90  454   5.778   7.170   6.180 -1.5991 -1.9546 -0.4367
    3MOL    H91  455   5.888   7.232   6.044 -0.3663  1.6009  0.1502
    3MOL    C92  456   5.706   7.029   5.942  0.0842  0.0869 -0.8261
    3MOL    C93  457   5.662   6.997   5.798  0.4078  0.2490  0.0864
    3MOL    C94  458   5.776   6.978   5.700  0.0764  0.4274  0.0569
    3MOL    H95  459   5.808   6.995   5.959 -0.3281 -0.6202  0.3158
    3MOL    H96  460   5.649   6.968   6.012 -0.7436  0.4733 -1.1511
    3MOL    H97  461   5.600   7.082   5.769 -0.8492 -1.1581 -1.4253
    3MOL    H98  462   5.735   6.986   5.599 -1.1260 -2.8634  0.2462
    3MOL    H99  463   5.853   7.053   5.718  0.4771 -0.0116  0.1909
    3MOL   H100  464   5.821   6.879   5.699 -1.5835 -0.3932  2.2085
    3MOL   C101  465   5.565   6.873   5.803  0.2304  0.4157 -0.1110
    3MOL   C102  466   5.466   6.869   5.687 -0.1454 -0.4671  0.1187
    3MOL   C103  467   5.397   6.731   5.687 -0.8940  0.3514  0.1843
    3MOL   H104  468   5.625   6.782   5.802  0.6838  0.7083  0.4842
    3MOL   H105  469   5.510   6.869   5.897  0.1846  2.7338 -0.0004
    3MOL   H106  470   5.514   6.883   5.590  1.2220 -1.3728  0.6347
    3MOL   H107  471   5.450   6.645   5.647 -1.3073 -0.4851  1.4242
    3MOL   H108  472   5.374   6.699   5.788 -0.0946 -0.1023  0.2184
    3MOL   H109  473   5.301   6.726   5.636  0.5087  0.2970 -2.5736
    3MOL   C110  474   5.359   6.979   5.711 -0.2686  0.4969  0.0635
    3MOL   C111  475   5.280   7.020   5.580  0.1764 -1.0025 -0.6189
    3MOL   C112  476   5.155   7.096   5.626 -0.2967  0.0049  0.1850
    3MOL   H113  477   5.294   6.943   5.791  1.5436  1.2643  1.8987
    3MOL   H114  478   5.386   7.077   5.750  0.7429  0.7089 -1.1185
    3MOL   H115  479   5.251   6.929   5.527 -0.0621 -1.0239 -0.4523
    3MOL   H116  480   5.187   7.188   5.674 -0.1539  0.1980 -0.2749
    3MOL   H117  481   5.087   7.119   5.543  0.3043  1.1215 -0.0088
    3MOL   H118  482   5.090   7.038   5.691  1.1465 -0.6424  1.0701
    3MOL   C119  483   5.371   7.103   5.484  0.3152 -0.2063  0.1794
    3MOL   C120  484   5.305   7.181   5.370 -0.1073 -0.1777  0.5382
    3MOL   C121  485   5.402   7.278   5.305 -0.1779  1.1094 -0.1557
    3MOL   H122  486   5.411   7.184   5.545  1.9543  0.0870 -1.2546
    3MOL   H123  487   5.453   7.041   5.450  1.8609  1.9776 -0.1167
    3MOL   H124  488   5.231   7.248   5.413  0.3402  0.8365 -0.2419
    3MOL   H125  489   5.501   7.233   5.291 -0.5388 -0.8602  3.0349
    3MOL   H126  490   5.370   7.328   5.214  1.0568  0.1060 -1.1598
    3MOL   H127  491   5.423   7.360   5.374  1.0416  0.5348  0.1806
    3MOL   C128  492   5.234   7.090   5.270  0.3069  0.2794  0.7701
    3MOL   C129  493   5.163   7.154   5.149 -0.1334 -1.1235 -0.2629
    3MOL   C130  494   5.113   7.042   5.053  0.0483 -0.1752 -0.0689
    3MOL   H131  495   5.305   7.014   5.238 -1.7790 -0.9748 -1.0311
    3MOL   H132  496   5.152   7.043   5.326 -0.0850 -1.4237 -1.1614
    3MOL   H133  497   5.235   7.209   5.090 -1.3181 -0.7513 -1.3760
    3MOL   H134  498   5.059   7.099   4.977 -0.5054  0.9787  1.1851
    3MOL   H135  499   5.201   6.998   5.005  0.1237  0.3840 -0.4529
    3MOL   H136  500   5.051   6.966   5.100  1.2353 -1.4690 -0.5616
    3MOL   C137  501   5.053   7.242   5.207 -0.5862 -0.1588 -0.6865
    3MOL   C138  502   5.075   7.395   5.162 -0.0008 -0.4925 -0.7428
    3MOL   C139  503   5.063   7.408   5.010  0.3299 -0.5732 -0.6856
    3MOL   H140  504   4.957   7.210   5.167 -0.8984 -2.5576  1.8451
    3MOL   H141  505   5.040   7.242   5.316 -1.7003 -0.2712 -0.8188
    3MOL   H142  506   5.179   7.414   5.188  0.4141 -1.7456 -1.4310
    3MOL   H143  507   5.122   7.338   4.950 -0.0508 -1.9077  0.4635
    3MOL   H144  508   4.961   7.398   4.973  0.1006 -3.7235  0.6201
    3MOL   H145  509   5.099   7.505   4.977 -0.4057 -0.1329 -0.1967
    3MOL   C146  510   4.985   7.491   5.228  0.2535 -0.1693  0.2906
    3MOL   C147  511   5.025   7.523   5.371 -0.4022 -0.3275 -1.2586
    3MOL   C148  512   5.138   7.643   5.376  0.4673 -0.3065  0.5958
    3MOL   H149  513   4.982   7.580   5.164  2.3763  0.0773  0.5029
    3MOL   H150  514   4.882   7.453   5.232  0.2094 -0.1356 -0.4937
    3MOL   H151  515   5.048   7.432   5.426 -0.4480  0.7022  0.5365
    3MOL   H152  516   5.227   7.610   5.322 -2.3266 -2.7814 -2.7381
    3MOL   H153  517   5.120   0.039   5.323  1.9764  0.6381  1.7012
    3MOL   H154  518   5.176   7.662   5.476  1.1330 -2.4503  0.7860
    3MOL   C155  519   4.902   7.578   5.456  0.0669 -0.2636  0.1953
    3MOL   C156  520   4.792   7.475   5.493 -0.8569  0.1530  0.6142
    3MOL   C157  521   4.850   7.375   5.593  0.1374 -0.6030  0.0300
    3MOL   H158  522   4.928   7.636   5.546  0.3817  2.8222 -1.8041
    3MOL   H159  523   4.852   7.653   5.394  2.0431  1.1042  0.1960
    3MOL   H160  524   4.775   7.406   5.410 -0.9755  0.0098  0.7582
    3MOL   H161  525   4.773   7.308   5.629 -0.3857 -0.8869 -1.5721
    3MOL   H162  526   4.910   7.307   5.533 -1.3572 -0.9665 -1.0759
    3MOL   H163  527   4.907   7.420   5.674 -1.3847  0.0805  0.7329
    3MOL   C164  528   4.682   7.553   5.557 -0.0683 -0.0026 -0.1096
    3MOL   C165  529   4.544   7.476   5.586  0.2127 -0.3501 -0.2110
    3MOL   C166  530   4.483   7.525   5.719 -0.2648  0.3926 -0.5468
    3MOL   H167  531   4.722   7.603   5.645  1.9679 -0.8509 -0.5448
    3MOL   H168  532   4.649   7.633   5.489 -1.4660 -0.6202 -0.1827
    3MOL   H169  533   4.578   7.377   5.615 -0.3885  0.6469  4.2868
    3MOL   H170  534   4.562   7.532   5.793 -0.9845  0.9128  0.1680
    3MOL   H171  535   4.442   7.626   5.717  0.1567  0.5988  1.2764
    3MOL   H172  536   4.403   7.457   5.750 -1.6226  1.5496 -1.4309
    3MOL   C173  537   4.460   7.459   5.457  0.7516 -0.7157 -0.4399
    3MOL   C174  538   4.322   7.524   5.467 -0.0762  0.5560  0.1152
    3MOL   C175  539   4.239   7.519   5.338 -0.2414  0.5366 -0.7764
    3MOL   H176  540   4.517   7.485   5.368  1.1310 -0.8364 -0.2321
    3MOL   H177  541   4.444   7.353   5.442 -2.3240 -0.1326 -1.7061
    3MOL   H178  542   4.335   7.630   5.489  2.1784 -0.0052  1.7603
    3MOL   H179  543   4.139   7.561   5.350 -0.6145  0.2136 -2.5425
    3MOL   H180  544   4.291   7.573   5.259  0.4161 -0.0249 -0.7390
    3MOL   H181  545   4.228   7.413   5.311  1.8568 -0.4171  1.9689
    3MOL   H182  546   4.270   7.478   5.550  1.0652 -0.1022  0.4863
    4MOL     C1  547   0.587   7.220   4.278 -0.5523  0.7457 -0.1813
    4MOL     C2  548   0.649   7.360   4.253 -0.1623  0.1239  1.2576
    4MOL     C3  549   0.780   7.372   4.169  0.1580 -0.1059  0.1650
    4MOL     H4  550   0.672   7.154   4.300 -0.4055 -0.0718 -3.0654
    4MOL     H5  551   0.546   7.178   4.187  0.9992  2.5178 -1.7462
    4MOL     H6  552   0.674   7.398   4.352 -0.3969  1.6853  0.7339
    4MOL     H7  553   0.746   7.391   4.067 -2.3862  0.2831  1.0529
    4MOL     H8  554   0.845   7.458   4.183  1.2506 -0.6871 -1.2534
    4MOL     H9  555   0.840   7.283   4.185  0.7472  0.2787  0.1391
    4MOL    H10  556   0.502   7.218   4.346 -1.7260  0.8147 -1.6510
    4MOL    C11  557   0.542   7.454   4.194 -0.1207 -0.5233  0.0275
    4MOL    C12  558   0.571   7.608   4.182 -0.4511 -0.3322  0.7560
    4MOL    C13  559   0.447   7.682   4.126  0.3224  0.3961 -0.3181
    4MOL    H14  560   0.509   7.411   4.099 -0.7005 -1.5569  0.6837
    4MOL    H15  561   0.457   7.435   4.259 -0.6992 -3.5458 -1.4703
    4MOL    H16  562   0.648   7.625   4.107  0.3710  1.4790  1.9682
    4MOL    H17  563   0.450   0.086   4.084 -2.4670  0.5214 -0.3513
    4MOL    H18  564   0.410   7.627   4.039 -2.4189 -1.3407  1.8606
    4MOL    H19  565   0.366   7.690   4.199  1.0478  2.0810  0.3328
    4MOL    C20  566   0.610   7.668   4.326  0.2844 -0.1393 -0.0952
    4MOL    C21  567   0.626   0.123   4.336  0.4293 -0.1418 -0.1696
    4MOL    C22  568   0.651   0.166   4.484  0.0261 -0.2275 -0.0743
    4MOL    H23  569   0.526   7.636   4.388 -1.4680  2.1327 -1.2146
    4MOL    H24  570   0.689   7.610   4.373  0.4939  0.5393  0.3916
    4MOL    H25  571   0.530   0.172   4.318  0.2553  0.5375  2.3684
    4MOL    H26  572   0.596   0.110   4.560  2.4881 -0.1610  1.8237
    4MOL    H27  573   0.751   0.142   4.520 -0.0144 -0.5997 -0.2049
    4MOL    H28  574   0.638   0.271   4.507  1.9608 -0.7554  3.8922
    4MOL    C29  575   0.737   0.182   4.249 -0.2773  0.3430 -0.9429
    4MOL    C30  576   0.763   0.335   4.260  0.6030  0.2257  0.0007
    4MOL    C31  577   0.906   0.368   4.202 -0.4008 -0.4283  0.1984
    4MOL    H32  578   0.832   0.130   4.260 -0.5662 -0.3408 -1.6403
    4MOL    H33  579   0.708   0.173   4.144 -0.0236  4.4942 -1.4248
    4MOL    H34  580   0.774   0.363   4.365  1.9558 -2.9486  0.7564
    4MOL    H35  581   0.900   0.348   4.095  0.8257  1.6007 -0.2744
    4MOL    H36  582   0.936   0.467   4.235  0.0427 -0.6238  0.3977
    4MOL    H37  583   0.985   0.312   4.253 -1.7937 -0.7228  2.0931
    4MOL    C38  584   0.652   0.419   4.191  0.4913 -0.1032  0.3353
    4MOL    C39  585   0.660   0.565   4.231  0.1035 -0.0663  0.4141
    4MOL    C40  586   0.591   0.652   4.126 -0.2389 -0.2782 -0.0167
    4MOL    H41  587   0.651   0.410   4.082 -1.4188 -0.1838  0.3310
    4MOL    H42  588   0.550   0.388   4.216 -0.2860  1.8227 -0.3454
    4MOL    H43  589   0.766   0.590   4.224  0.2788 -0.8059  0.4033
    4MOL    H44  590   0.559   0.746   4.171  0.9784 -0.5490  1.4481
    4MOL    H45  591   0.662   0.666   4.045 -1.3085  0.3505 -0.8585
    4MOL    H46  592   0.498   0.612   4.086  1.0655  1.0138 -4.6279
    4MOL    C47  593   0.594   0.604   4.368  0.3825 -0.3140  0.2228
    4MOL    C48  594   0.675   0.719   4.433  0.1652  0.8119 -0.0736
    4MOL    C49  595   0.585   0.820   4.504  0.3815  0.6469  0.5521
    4MOL    H50  596   0.493   0.637   4.343  1.3401  1.8533 -0.8833
    4MOL    H51  597   0.583   0.520   4.436 -0.5214  0.9822  1.7073
    4MOL    H52  598   0.693   0.787   4.350 -3.3784 -1.6887 -3.0641
    4MOL    H53  599   0.525   0.773   4.583  0.0293  0.1971  0.0158
    4MOL    H54  600   0.642   0.898   4.556 -0.1128  1.6083 -0.3300
    4MOL    H55  601   0.502   0.860   4.445  1.6941  0.1056 -1.7022
    4MOL    C56  602   0.791   0.669   4.521 -0.3652  0.1685  0.4330
    4MOL    C57  603   0.889   0.773   4.566 -0.2449 -0.4258  0.0066
    4MOL    C58  604   0.962   0.720   4.693 -0.7054 -0.3854 -0.2719
    4MOL    H59  605   0.756   0.611   4.606  0.3679  1.8411  1.9049
    4MOL    H60  606   0.840   0.585   4.472  0.8906  1.0121  0.2289
    4MOL    H61  607   0.845   0.871   4.587 -1.7120 -1.0826  0.0491
    4MOL    H62  608   0.896   0.724   4.780  0.4757 -0.4743  0.6379
    4MOL    H63  609   0.999   0.618   4.689 -0.0212 -0.2285  1.5015
    4MOL    H64  610   1.045   0.783   4.723 -1.0988  0.2080 -0.4113
    4MOL    C65  611   0.990   0.786   4.445  0.1577 -0.0594 -0.1522
    4MOL    C66  612   0.985   0.930   4.377  0.0757 -0.0522 -0.5922
    4MOL    C67  613   1.028   1.040   4.481  0.1502 -0.2925  0.0434
    4MOL    H68  614   1.093   0.777   4.480  1.2099  0.7199 -2.9158
    4MOL    H69  615   0.985   0.708   4.370  0.5201 -1.2845  1.0791
    4MOL    H70  616   0.877   0.942   4.380  0.0081 -0.7412 -0.2156
    4MOL    H71  617   0.980   1.133   4.449 -1.6369 -0.7173  1.4571
    4MOL    H72  618   0.988   1.022   4.580 -0.0398  1.3031  0.2793
    4MOL    H73  619   1.136   1.054   4.488  0.2025 -0.5533 -0.2094
    4MOL    C74  620   1.056   0.942   4.242 -0.4104 -0.1068  0.2207
    4MOL    C75  621   0.973   0.885   4.124 -0.2315  0.6894  0.7769
    4MOL    C76  622   0.854   0.978   4.085  0.2486 -0.2570 -0.5988
    4MOL    H77  623   1.070   1.048   4.222  1.0094 -0.6361 -1.7462
    4MOL    H78  624   1.155   0.896   4.247 -2.0867 -4.0405 -0.9111
    4MOL    H79  625   0.924   0.791   4.148  0.0999 -0.0798 -1.3866
    4MOL    H80  626   0.892   1.050   4.013 -0.3613 -1.6306 -2.3038
    4MOL    H81  627   0.784   0.912   4.034 -1.4841 -0.3510  1.8158
    4MOL    H82  628   0.811   1.032   4.170  0.7232  0.1054 -0.5852
    4MOL    C83  629   1.063   0.855   3.992  0.2386  0.0529 -0.0288
    4MOL    C84  630   1.116   0.706   3.996 -0.3955  0.3511 -0.5344
    4MOL    C85  631   1.016   0.617   3.946 -0.3534  0.6073 -0.0567
    4MOL    H86  632   1.019   0.865   3.893 -3.6997  1.7118  1.8004
    4MOL    H87  633   1.129   0.941   3.988 -1.0777  1.0998  0.5747
    4MOL    H88  634   1.143   0.694   4.101 -1.0186  1.5792 -0.2208
    4MOL    H89  635   1.050   0.524   3.993  3.1206  2.3375  0.9909
    4MOL    H90  636   0.912   0.623   3.979 -1.2724 -3.0594 -2.0641
    4MOL    H91  637   1.022   0.612   3.837  0.8884  1.9509 -0.0622
    4MOL    C92  638   1.248   0.679   3.903  0.0849 -0.5192 -0.8551
    4MOL    C93  639   1.363   0.770   3.941 -0.4594  0.6931 -0.5198
    4MOL    C94  640   1.428   0.712   4.073 -0.2400 -0.3492 -0.7007
    4MOL    H95  641   1.278   0.575   3.891  0.0704 -0.3104 -2.8505
    4MOL    H96  642   1.222   0.692   3.798  1.3864 -0.6482 -1.2042
    4MOL    H97  643   1.322   0.868   3.964 -0.8905  0.8828 -2.0452
    4MOL    H98  644   1.519   0.767   4.099 -0.0917 -0.6502 -0.5745
    4MOL    H99  645   1.353   0.725   4.150  0.1288 -0.9495 -0.2361
    4MOL   H100  646   1.456   0.608   4.060  3.6609  0.4664  0.4870
    4MOL   C101  647   1.473   0.781   3.834  0.1180  0.5322  0.2343
    4MOL   C102  648   1.571   0.906   3.841  0.3790  0.2532 -0.4845
    4MOL   C103  649   1.697   0.894   3.748  0.0450  0.3938  0.1313
    4MOL   H104  650   1.536   0.693   3.843 -2.6229 -1.5014  0.1364
    4MOL   H105  651   1.432   0.772   3.733 -0.8422  0.4935  0.6169
    4MOL   H106  652   1.610   0.898   3.943 -1.3684 -1.7360  0.0650
    4MOL   H107  653   1.759   0.984   3.748 -0.6162  0.8640 -1.1766
    4MOL   H108  654   1.753   0.803   3.768 -0.5670 -0.2700 -1.1448
    4MOL   H109  655   1.673   0.883   3.642  0.2464  2.4128 -0.1482
    4MOL   C110  656   1.494   1.034   3.812  0.1960 -0.2090  0.1487
    4MOL   C111  657   1.521   1.144   3.919  0.1209  0.0623 -0.2148
    4MOL   C112  658   1.467   1.283   3.865  0.1065  0.5936  0.5798
    4MOL   H113  659   1.500   1.071   3.710  0.5379  2.1278  0.9773
    4MOL   H114  660   1.386   1.019   3.809 -0.0546  1.4991 -0.1024
    4MOL   H115  661   1.628   1.155   3.936  0.2868  0.8294 -1.6750
    4MOL   H116  662   1.471   1.367   3.934  2.1602  0.3517  0.8021
    4MOL   H117  663   1.529   1.318   3.782 -1.4553 -0.3387 -1.0301
    4MOL   H118  664   1.366   1.267   3.828  1.3560 -2.1412 -1.8881
    4MOL   C119  665   1.447   1.109   4.050 -0.2549  0.1690 -0.2996
    4MOL   C120  666   1.489   1.176   4.184  0.5473  0.1108 -0.0500
    4MOL   C121  667   1.384   1.159   4.288 -0.4895 -0.2354  0.4181
    4MOL   H122  668   1.341   1.128   4.033  0.2276  2.5686 -0.7716
    4MOL   H123  669   1.446   1.002   4.068 -0.5362  0.3088  0.5064
    4MOL   H124  670   1.500   1.283   4.164  3.3928 -0.2862 -0.7549
    4MOL   H125  671   1.417   1.203   4.382  0.0991  0.1217  0.0446
    4MOL   H126  672   1.294   1.206   4.246  0.5374  1.1275 -0.2989
    4MOL   H127  673   1.364   1.054   4.307 -0.1428 -0.6471 -1.4281
    4MOL   C128  674   1.626   1.118   4.231 -0.2122 -0.6484 -0.4868
    4MOL   C129  675   1.696   1.181   4.352 -0.3588 -0.3752 -0.8580
    4MOL   C130  676   1.834   1.117   4.358  0.2633  0.1630  0.1248
    4MOL   H131  677   1.625   1.009   4.235 -0.4633 -0.6712 -1.0992
    4MOL   H132  678   1.697   1.138   4.150  1.5104  0.0985  1.1604
    4MOL   H133  679   1.642   1.162   4.445 -0.8369  1.9512 -0.6259
    4MOL   H134  680   1.904   1.150   4.281  0.7961 -1.5630 -0.1388
    4MOL   H135  681   1.873   1.126   4.459  0.2652 -1.3776  0.2682
    4MOL   H136  682   1.810   1.011   4.352  2.1945 -0.3032  0.3318
    4MOL   C137  683   1.709   1.335   4.361 -0.1458  0.1885 -0.2201
    4MOL   C138  684   1.768   1.400   4.491 -0.3262 -0.1256 -0.6046
    4MOL   C139  685   1.894   1.486   4.452 -0.8676  0.4272 -0.1693
    4MOL   H140  686   1.779   1.360   4.282  0.4702  2.0529  0.9110
    4MOL   H141  687   1.616   1.390   4.347 -0.8750 -0.6935  1.0601
    4MOL   H142  688   1.822   1.328   4.553  1.1470  0.2149 -1.4639
    4MOL   H143  689   1.862   1.580   4.407 -0.7008  0.7515  0.3830
    4MOL   H144  690   1.956   1.508   4.539  0.0014 -1.3833 -0.3178
    4MOL   H145  691   1.963   1.426   4.393  2.1289  2.4171  1.2188
    4MOL   C146  692   1.662   1.486   4.566 -0.0788 -0.2270  0.1840
    4MOL   C147  693   1.699   1.504   4.723 -0.1376  0.4402 -0.1125
    4MOL   C148  694   1.600   1.616   4.768 -0.1755  0.6627  0.5955
    4MOL   H149  695   1.647   1.585   4.522  2.8233  0.7444  1.2210
    4MOL   H150  696   1.568   1.432   4.560 -1.5442  2.3377 -0.6137
    4MOL   H151  697   1.797   1.552   4.731  1.2963 -2.7227  2.0664
    4MOL   H152  698   1.501   1.571   4.775  0.9656 -2.3209 -1.3994
    4MOL   H153  699   1.619   1.650   4.870  0.3234 -0.3205  0.8463
    4MOL   H154  700   1.593   1.698   4.697  2.2861  0.2805 -0.1348
    4MOL   C155  701   1.693   1.370   4.794 -0.3546 -0.0307 -0.0287
    4MOL   C156  702   1.707   1.383   4.953  0.2911  0.2980  1.2000
    4MOL   C157  703   1.574   1.375   5.034 -0.0496 -0.7955 -0.9696
    4MOL   H158  704   1.597   1.326   4.767 -0.7510  0.8261 -0.0226
    4MOL   H159  705   1.762   1.290   4.765 -0.6289 -1.2737  2.5684
    4MOL   H160  706   1.750   1.480   4.975 -1.4300  0.7664  2.6416
    4MOL   H161  707   1.586   1.417   5.134 -1.8953 -1.6199 -0.3687
    4MOL   H162  708   1.499   1.435   4.983 -1.0979 -1.5222 -0.3043
    4MOL   H163  709   1.544   1.271   5.048 -0.1994 -0.7975 -1.3158
    4MOL   C164  710   1.813   1.281   5.020  0.7459 -0.1354 -0.0155
    4MOL   C165  711   1.963   1.281   4.977  0.4656  0.6492  0.1934
    4MOL   C166  712   2.041   1.388   5.058 -0.3517 -0.1517  0.1158
    4MOL   H167  713   1.802   1.296   5.127 -0.1943  1.3401 -0.3036
    4MOL   H168  714   1.772   1.181   5.001 -0.2841  0.2799  0.0061
    4MOL   H169  715   1.965   1.315   4.874 -0.4358  0.0375 -0.0372
    4MOL   H170  716   2.011   1.490   5.037  1.7340  0.2484 -1.1258
    4MOL   H171  717   2.041   1.372   5.166 -2.1396  0.6746  0.2413
    4MOL   H172  718   2.143   1.383   5.020 -0.5332  1.0255 -0.5221
    4MOL   C173  719   2.039   1.149   4.992 -0.0618 -0.4947  0.1958
    4MOL   C174  720   2.006   1.032   4.892  0.7976 -0.0594 -0.2625
    4MOL   C175  721   2.107   0.919   4.885  0.4940  0.2430  0.1677
    4MOL   H176  722   2.146   1.169   4.997  0.0241 -0.9924  0.2964
    4MOL   H177  723   2.023   1.115   5.095 -1.0210  2.4008  1.0642
    4MOL   H178  724   1.978   1.071   4.795 -0.2019  1.1379  0.4948
    4MOL   H179  725   2.199   0.950   4.837  0.8611  1.8510  1.8283
    4MOL   H180  726   2.132   0.889   4.987 -1.5864  0.6161  0.8111
    4MOL   H181  727   2.059   0.835   4.834 -0.8326  1.6289 -0.9150
    4MOL   H182  728   1.918   0.995   4.944  0.4550  0.5250 -0.4175
    5MOL     C1  729   5.889   1.615   2.393 -0.5028 -0.0528 -0.3574
    5MOL     C2  730   5.804   1.620   2.525 -0.1471 -0.2436  0.5604
    5MOL     C3  731   5.883   1.583   2.649 -0.4089  0.5840  0.7120
    5MOL     H4  732   5.950   1.525   2.396  0.1613  0.3007 -2.3945
    5MOL     H5  733   5.950   1.704   2.380 -1.6255  0.7807  0.0032
    5MOL     H6  734   5.737   1.533   2.523 -0.5890  0.0678  1.4036
    5MOL     H7  735   5.820   1.549   2.731 -1.6543  1.0451 -0.0415
    5MOL     H8  736   5.952   1.501   2.631 -0.5664  0.0854  2.2798
    5MOL     H9  737   5.948   1.664   2.681  1.9301 -0.6389 -0.8006
    5MOL    H10  738   5.821   1.598   2.309  1.6741 -1.6964 -1.8259
    5MOL    C11  739   5.710   1.752   2.527 -0.5942  0.2286 -0.3572
    5MOL    C12  740   5.613   1.762   2.403  0.1220 -0.0206 -0.9015
    5MOL    C13  741   5.510   1.646   2.404 -0.0430 -0.3483  0.4611
    5MOL    H14  742   5.660   1.765   2.623  1.5452  0.9937  0.6710
    5MOL    H15  743   5.775   1.840   2.521 -0.6073  0.1520 -1.9949
    5MOL    H16  744   5.682   1.754   2.319  1.9554 -2.6949  0.7994
    5MOL    H17  745   5.443   1.644   2.319  0.5708  0.4840 -0.0505
    5MOL    H18  746   5.555   1.548   2.420 -1.1540 -1.1616 -1.2069
    5MOL    H19  747   5.454   1.664   2.495 -0.3105  0.9750  0.0386
    5MOL    C20  748   5.533   1.901   2.389 -1.2941 -0.2664  0.1018
    5MOL    C21  749   5.607   2.023   2.350 -0.1103  0.2505  0.9395
    5MOL    C22  750   5.646   2.018   2.199 -0.5252 -0.4508 -0.6089
    5MOL    H23  751   5.441   1.884   2.334 -1.3540  0.6133 -0.0777
    5MOL    H24  752   5.501   1.925   2.491  0.5249 -2.3435  1.2039
    5MOL    H25  753   5.696   2.025   2.412  0.9778 -0.4586 -0.5517
    5MOL    H26  754   5.691   1.921   2.176  1.8107  0.7724 -1.3618
    5MOL    H27  755   5.562   2.028   2.131 -1.6408 -0.7160  0.6971
    5MOL    H28  756   5.724   2.090   2.177 -0.9611  0.8762  1.9964
    5MOL    C29  757   5.523   2.151   2.387 -0.4740 -0.4489 -0.2584
    5MOL    C30  758   5.570   2.281   2.313 -0.1209 -0.7197 -0.1367
    5MOL    C31  759   5.470   2.386   2.356  0.8922 -0.3326 -0.4712
    5MOL    H32  760   5.416   2.150   2.362 -0.3959  1.4095 -0.7034
    5MOL    H33  761   5.532   2.172   2.493  0.8339  2.4234 -0.9002
    5MOL    H34  762   5.565   2.270   2.205  1.3171 -1.2870 -0.1626
    5MOL    H35  763   5.495   2.484   2.315 -0.9905  0.5646  0.4574
    5MOL    H36  764   5.373   2.355   2.317  2.6391 -5.9774 -0.7256
    5MOL    H37  765   5.464   2.394   2.465  0.2057 -1.6641 -0.4058
    5MOL    C38  766   5.715   2.321   2.356 -0.7024  0.3719  0.0373
    5MOL    C39  767   5.792   2.424   2.273  0.6033  0.7418 -0.2013
    5MOL    C40  768   5.902   2.495   2.357 -0.1506 -0.3396  0.1041
    5MOL    H41  769   5.704   2.363   2.456  0.7587  1.6739 -0.3294
    5MOL    H42  770   5.771   2.229   2.374  1.9177  1.5571 -1.7236
    5MOL    H43  771   5.724   2.503   2.243  0.9347  1.3944  0.7493
    5MOL    H44  772   5.856   2.559   2.433 -0.0499 -0.8937  0.6382
    5MOL    H45  773   5.981   2.429   2.393  0.4478  0.7686  0.8539
    5MOL    H46  774   5.951   2.563   2.288 -1.7877  0.0371 -0.7152
    5MOL    C47  775   5.852   2.370   2.144 -0.2488  0.1516  0.2147
    5MOL    C48  776   5.867   2.469   2.031 -0.5131 -0.2802  0.4275
    5MOL    C49  777   5.967   2.418   1.930  0.4026  0.6983  0.6224
    5MOL    H50  778   5.944   2.315   2.166  0.3553  1.6926  1.7257
    5MOL    H51  779   5.783   2.295   2.107 -0.9018  0.3745  0.9550
    5MOL    H52  780   5.916   2.560   2.066 -1.5275  0.1526  0.7353
    5MOL    H53  781   5.977   2.483   1.843  1.5138 -0.6344 -0.2586
    5MOL    H54  782   6.069   2.405   1.966  1.4025 -0.7781 -2.5356
    5MOL    H55  783   5.936   2.322   1.889  1.0240  0.8991 -0.3178
    5MOL    C56  784   5.727   2.501   1.963  0.0075 -0.5057  0.2016
    5MOL    C57  785   5.709   2.637   1.898 -0.1706 -0.1042  0.5159
    5MOL    C58  786   5.586   2.648   1.807 -0.2981  0.5646  0.2701
    5MOL    H59  787   5.716   2.431   1.881  0.6301 -0.4375  0.0544
    5MOL    H60  788   5.643   2.462   2.021 -0.7923  2.4350  1.1277
    5MOL    H61  789   5.788   2.655   1.825 -0.2192  2.0234  0.9439
    5MOL    H62  790   5.491   2.643   1.861 -0.5480  0.4094 -0.1767
    5MOL    H63  791   5.584   2.732   1.737  0.7891 -0.3639 -0.8926
    5MOL    H64  792   5.574   2.561   1.743  0.9862  0.9858 -0.5609
    5MOL    C65  793   5.704   2.750   2.009 -0.1067 -0.4380 -0.2635
    5MOL    C66  794   5.828   2.843   2.010 -0.6471  0.6178  1.0538
    5MOL    C67  795   5.869   2.901   1.871  0.3500  0.3410  0.9455
    5MOL    H68  796   5.620   2.816   1.985 -1.9582 -2.5334  0.2851
    5MOL    H69  797   5.695   2.719   2.113 -0.9238 -0.8316 -0.4467
    5MOL    H70  798   5.903   2.769   2.038 -1.0752 -0.1787  0.1508
    5MOL    H71  799   5.891   2.835   1.787 -0.5542  0.8350  0.3038
    5MOL    H72  800   5.787   2.967   1.842  0.3436  0.6390  1.6315
    5MOL    H73  801   5.958   2.964   1.875  1.1096 -0.5686 -0.6304
    5MOL    C74  802   5.813   2.936   2.126  0.0920 -0.4383 -0.0351
    5MOL    C75  803   5.869   2.878   2.258  0.0204 -0.8547  0.5692
    5MOL    C76  804   6.024   2.888   2.272 -0.3900  0.2919  0.9752
    5MOL    H77  805   5.881   3.021   2.118  1.9176 -1.9747 -1.4183
    5MOL    H78  806   5.716   2.985   2.125 -0.3641 -1.3549 -0.9040
    5MOL    H79  807   5.850   2.772   2.270  2.0566 -1.3203 -0.0994
    5MOL    H80  808   6.054   2.992   2.264 -3.5500  1.1524 -0.4188
    5MOL    H81  809   6.068   2.847   2.364  0.0976 -1.6580 -0.0841
    5MOL    H82  810   6.076   2.844   2.187 -3.5187 -0.5219 -0.5834
    5MOL    C83  811   5.819   2.957   2.379  0.0244 -0.2658 -0.2956
    5MOL    C84  812   5.666   2.936   2.407  0.1657 -0.4232 -0.8530
    5MOL    C85  813   5.632   2.787   2.450 -0.0497 -0.3510  0.3570
    5MOL    H86  814   5.876   2.930   2.468 -0.6174 -0.0149  0.1952
    5MOL    H87  815   5.841   3.062   2.363 -0.3105 -0.3147 -1.1101
    5MOL    H88  816   5.614   2.951   2.313 -0.0186  0.8795 -0.5543
    5MOL    H89  817   5.628   2.724   2.361 -0.4660 -3.8028  2.7180
    5MOL    H90  818   5.701   2.744   2.522  1.1292  0.7986 -0.0665
    5MOL    H91  819   5.530   2.774   2.487 -0.4864  1.2351 -0.2638
    5MOL    C92  820   5.612   3.041   2.508 -0.2507  0.0177  0.3425
    5MOL    C93  821   5.579   3.181   2.447  0.0108  0.8715  0.2191
    5MOL    C94  822   5.429   3.188   2.422 -0.0699  0.4348 -0.0400
    5MOL    H95  823   5.535   2.998   2.572  0.0888  0.0951  0.8063
    5MOL    H96  824   5.685   3.052   2.589 -0.6155 -2.3638  1.0457
    5MOL    H97  825   5.629   3.189   2.350  1.2502  1.4658  0.9030
    5MOL    H98  826   5.419   3.291   2.387 -1.9720  0.0282 -0.7434
    5MOL    H99  827   5.382   3.125   2.347  0.1366  0.6986 -0.3909
    5MOL   H100  828   5.363   3.177   2.508  0.3797 -0.2238  0.2257
    5MOL   C101  829   5.626   3.300   2.538 -1.1124  0.1705  0.2828
    5MOL   C102  830   5.636   3.436   2.461  0.0224 -0.1620 -0.1748
    5MOL   C103  831   5.688   3.543   2.562  0.0421 -0.2735 -0.1969
    5MOL   H104  832   5.561   3.303   2.625  0.4886 -0.9206  1.5438
    5MOL   H105  833   5.725   3.275   2.577  0.1640  0.0132 -2.8589
    5MOL   H106  834   5.538   3.467   2.426  0.1521 -0.2866 -0.6598
    5MOL   H107  835   5.719   3.638   2.519 -1.0649  1.3006  2.4216
    5MOL   H108  836   5.604   3.574   2.623  0.6989  0.1604  0.4889
    5MOL   H109  837   5.764   3.504   2.629 -0.3670 -0.2765  0.2635
    5MOL   C110  838   5.716   3.440   2.322  0.1857 -0.8339 -0.0375
    5MOL   C111  839   5.853   3.382   2.319  0.3474  0.5696 -0.4077
    5MOL   C112  840   5.898   3.367   2.168  0.2218 -0.1745 -0.0512
    5MOL   H113  841   5.661   3.381   2.249  2.1602 -1.6970 -0.8728
    5MOL   H114  842   5.719   3.539   2.276 -0.6407 -0.9640 -0.3719
    5MOL   H115  843   5.848   3.284   2.368 -2.5641  1.0349  0.2780
    5MOL   H116  844   5.888   3.459   2.111  2.4697 -0.6092 -1.1673
    5MOL   H117  845   5.996   3.326   2.145  0.0432 -0.3616 -0.4778
    5MOL   H118  846   5.832   3.299   2.114 -1.7808  2.3492 -0.8967
    5MOL   C119  847   5.966   3.472   2.372 -0.1006 -0.9602 -0.5254
    5MOL   C120  848   6.088   3.405   2.427  0.5799 -0.0283  0.3235
    5MOL   C121  849   6.202   3.519   2.439 -0.1837 -0.8344 -0.9030
    5MOL   H122  850   5.990   3.547   2.295  1.1200 -1.8955 -1.0812
    5MOL   H123  851   5.923   3.522   2.458 -0.0344 -0.6366 -0.6772
    5MOL   H124  852   6.120   3.341   2.345  1.7765  0.0227  0.7405
    5MOL   H125  853   6.181   3.616   2.393  0.3662  0.5296  1.6387
    5MOL   H126  854   6.216   3.556   2.541  0.5559  1.0404 -1.6661
    5MOL   H127  855   6.302   3.488   2.411  0.1820  0.0601 -0.6093
    5MOL   C128  856   6.064   3.306   2.546 -0.0055 -0.1447  0.1636
    5MOL   C129  857   6.200   3.239   2.594 -0.4161  0.3731  0.1892
    5MOL   C130  858   6.194   3.163   2.725 -0.6457  0.5186  0.0377
    5MOL   H131  859   6.026   3.342   2.641  1.1335  0.8513  0.2481
    5MOL   H132  860   5.996   3.227   2.513  1.2759 -0.5142 -1.7202
    5MOL   H133  861   6.275   3.316   2.613 -0.4909  0.9865 -1.9306
    5MOL   H134  862   6.118   3.084   2.721 -1.0152  0.8510  0.5162
    5MOL   H135  863   6.289   3.125   2.762 -0.9358 -1.7947 -1.4898
    5MOL   H136  864   6.163   3.234   2.801  0.9757  1.3572 -0.0703
    5MOL   C137  865   6.262   3.153   2.484  0.2119  0.3709  0.4017
    5MOL   C138  866   6.384   3.065   2.517 -0.2255  0.2248 -0.2740
    5MOL   C139  867   6.415   2.977   2.395 -0.1084  0.7275 -1.1525
    5MOL   H140  868   6.186   3.102   2.426  2.2204 -0.7080 -1.3642
    5MOL   H141  869   6.306   3.231   2.421  1.1280 -0.3676  0.1058
    5MOL   H142  870   6.360   3.003   2.603  3.6512  1.3242  1.6848
    5MOL   H143  871   6.322   2.926   2.369  0.1260  1.6202 -3.8702
    5MOL   H144  872   6.453   3.038   2.313 -0.5026  0.5200 -1.4959
    5MOL   H145  873   6.496   2.907   2.416  0.5332  1.6646 -0.4605
    5MOL   C146  874   6.509   3.151   2.552 -0.1941  0.5770  0.0898
    5MOL   C147  875   6.620   3.081   2.631  0.1353  0.2560 -0.4638
    5MOL   C148  876   6.727   3.187   2.656  0.2598 -0.4321  0.2996
    5MOL   H149  877   6.553   3.185   2.458 -1.3889  1.9598  0.0120
    5MOL   H150  878   6.475   3.234   2.614 -0.4281  0.2674  0.3778
    5MOL   H151  879   6.672   3.004   2.574  0.3476  2.4734 -3.4510
    5MOL   H152  880   6.827   3.148   2.677  0.4246  0.3955  1.0811
    5MOL   H153  881   6.755   3.249   2.571  2.5444 -2.5895 -0.6049
    5MOL   H154  882   6.704   3.250   2.742 -0.9382 -1.6115  0.8596
    5MOL   C155  883   6.570   3.031   2.757 -0.8241 -0.6145  0.0771
    5MOL   C156  884   6.528   2.885   2.769 -0.4620 -0.1841 -0.3504
    5MOL   C157  885   6.659   2.797   2.782  0.5926 -0.2859  1.0386
    5MOL   H158  886   6.650   3.029   2.832 -1.1473 -1.6770  0.3984
    5MOL   H159  887   6.497   3.101   2.796  0.8496  1.0377  0.3086
    5MOL   H160  888   6.483   2.857   2.674 -2.9538  1.5787  0.2735
    5MOL   H161  889   6.715   2.814   2.874 -0.4034  1.7901  1.2736
    5MOL   H162  890   6.637   2.690   2.782 -0.3956 -0.0929  1.0211
    5MOL   H163  891   6.721   2.807   2.693 -0.9025 -1.6011 -0.1970
    5MOL   C164  892   6.427   2.866   2.885  0.0086  0.8040  0.0980
    5MOL   C165  893   6.363   2.725   2.902 -0.0913  0.5589 -0.6200
    5MOL   C166  894   6.269   2.720   3.024  0.4316  0.6498 -0.2065
    5MOL   H167  895   6.479   2.898   2.975  1.3510 -0.8645 -0.0555
    5MOL   H168  896   6.353   2.945   2.879 -0.2545  0.5066 -0.6404
    5MOL   H169  897   6.446   2.656   2.915 -1.4202 -0.8951  0.4019
    5MOL   H170  898   6.244   2.617   3.052  2.6377 -0.0292 -0.6990
    5MOL   H171  899   6.333   2.749   3.107 -2.0683  1.1054  1.6535
    5MOL   H172  900   6.196   2.801   3.024  1.5296  1.6512  0.4480
    5MOL   C173  901   6.288   2.680   2.770 -0.4875 -0.6353 -0.0930
    5MOL   C174  902   6.175   2.763   2.723  0.1738  0.5551  0.8350
    5MOL   C175  903   6.080   2.680   2.614  0.4424  0.7288 -0.1614
    5MOL   H176  904   6.363   2.657   2.694  0.4181 -1.0354  0.9193
    5MOL   H177  905   6.247   2.584   2.800 -1.1642  0.2171  1.8072
    5MOL   H178  906   6.196   2.861   2.681 -0.4269 -0.0193 -0.8931
    5MOL   H179  907   6.070   2.580   2.655 -2.2474  0.6212 -0.9662
    5MOL   H180  908   5.982   2.728   2.609  0.5223  0.9520  0.3438
    5MOL   H181  909   6.113   2.680   2.510 -0.9489  2.7847 -0.6431
    5MOL   H182  910   6.108   2.775   2.808 -0.0186  1.1860  0.5923
    6MOL     C1  911   3.029   2.541   3.521 -0.1070 -0.0139  0.7215
    6MOL     C2  912   2.925   2.429   3.480  0.3161  0.6049  0.3000
    6MOL     C3  913   2.949   2.385   3.339  0.1109 -0.3907  0.5804
    6MOL     H4  914   3.031   2.629   3.458 -0.6925 -1.0397 -0.7429
    6MOL     H5  915   3.129   2.499   3.509  0.8360  1.5708  2.7099
    6MOL     H6  916   2.821   2.461   3.480 -0.2565 -1.1095 -1.8356
    6MOL     H7  917   2.939   2.461   3.261  1.2315 -2.9010 -2.1482
    6MOL     H8  918   3.052   2.353   3.324  0.3129 -0.1226  1.3759
    6MOL     H9  919   2.878   2.311   3.302 -1.2326  2.0980 -1.9878
    6MOL    H10  920   3.016   2.574   3.624  0.0580 -1.8429  1.3489
    6MOL    C11  921   2.934   2.303   3.567  0.8715  0.4112 -0.1546
    6MOL    C12  922   2.899   2.313   3.716  0.2124 -0.0033 -0.0321
    6MOL    C13  923   2.753   2.335   3.750 -0.9520  0.4037  0.2821
    6MOL    H14  924   2.868   2.232   3.517  1.1380 -0.4265  0.6705
    6MOL    H15  925   3.039   2.276   3.556  1.3590  2.2142 -0.0628
    6MOL    H16  926   2.962   2.390   3.760  0.1366 -0.1853  0.3978
    6MOL    H17  927   2.719   2.436   3.727 -2.3123  0.1875  1.2664
    6MOL    H18  928   2.691   2.252   3.717 -1.6376  1.7111 -1.8049
    6MOL    H19  929   2.721   2.337   3.854  0.5467 -0.2614  0.7811
    6MOL    C20  930   2.948   2.193   3.798  0.1404 -0.5747 -0.0111
    6MOL    C21  931   3.104   2.156   3.789  0.0128 -0.1759 -0.4479
    6MOL    C22  932   3.178   2.267   3.881  0.5239  0.5684 -0.0628
    6MOL    H23  933   2.919   2.197   3.903 -1.5620  0.1933 -0.4996
    6MOL    H24  934   2.908   2.104   3.751  1.6702 -0.0260 -2.4504
    6MOL    H25  935   3.147   2.162   3.689 -3.0888 -4.2626 -2.1512
    6MOL    H26  936   3.285   2.258   3.895  0.6494  1.0492 -0.6579
    6MOL    H27  937   3.170   2.357   3.819 -0.4567  0.2883 -0.3606
    6MOL    H28  938   3.132   2.275   3.979  0.7592 -0.6488  0.1489
    6MOL    C29  939   3.123   2.013   3.851  0.3520  0.5271  0.1447
    6MOL    C30  940   3.230   1.926   3.784 -0.1922  0.8111 -0.9704
    6MOL    C31  941   3.366   2.007   3.807  0.0413  0.1602 -0.0999
    6MOL    H32  942   3.148   2.028   3.956  0.2296  0.7165  0.1447
    6MOL    H33  943   3.033   1.955   3.873  1.2047 -0.9657 -0.2344
    6MOL    H34  944   3.203   1.923   3.679 -0.3703  0.7152 -0.9224
    6MOL    H35  945   3.401   2.018   3.909 -0.2634 -0.6467  0.1025
    6MOL    H36  946   3.446   1.949   3.761  0.5566 -0.4062  1.4882
    6MOL    H37  947   3.353   2.102   3.756 -0.6963  0.0709 -0.0889
    6MOL    C38  948   3.231   1.781   3.847 -0.4012  0.1582 -0.0335
    6MOL    C39  949   3.327   1.666   3.775 -0.3412 -0.1232 -0.2282
    6MOL    C40  950   3.291   1.530   3.823  0.3095 -0.4569 -0.1978
    6MOL    H41  951   3.263   1.788   3.951  0.2404  0.6318 -0.2544
    6MOL    H42  952   3.126   1.752   3.846  0.2982 -2.5105 -2.8159
    6MOL    H43  953   3.426   1.689   3.816 -1.0198 -0.1549  1.4963
    6MOL    H44  954   3.357   1.452   3.788 -0.3258 -1.4424  0.7726
    6MOL    H45  955   3.290   1.521   3.932  0.6760 -0.3552 -0.1852
    6MOL    H46  956   3.189   1.502   3.797  0.4405  1.1080 -2.5988
    6MOL    C47  957   3.326   1.659   3.619 -0.0891 -0.1224 -0.3378
    6MOL    C48  958   3.449   1.574   3.563  0.4162  0.0285 -0.1473
    6MOL    C49  959   3.420   1.551   3.418  0.0355  0.0113 -0.2654
    6MOL    H50  960   3.227   1.626   3.588  0.0372 -0.9953  0.1849
    6MOL    H51  961   3.338   1.761   3.584  0.4033  0.5606  1.7439
    6MOL    H52  962   3.439   1.475   3.609 -1.1199  0.8033  1.2398
    6MOL    H53  963   3.497   1.494   3.366 -2.6954 -2.0573 -2.1771
    6MOL    H54  964   3.325   1.502   3.398  0.5097 -0.8318 -0.4862
    6MOL    H55  965   3.419   1.648   3.368 -0.0665 -1.4422 -3.1621
    6MOL    C56  966   3.588   1.635   3.589 -0.3285 -0.4575  0.4925
    6MOL    C57  967   3.703   1.561   3.527 -0.1594  0.7769 -0.5250
    6MOL    C58  968   3.826   1.651   3.516  0.5414 -0.7547 -0.0347
    6MOL    H59  969   3.576   1.729   3.535  1.2649  0.0182  0.9477
    6MOL    H60  970   3.605   1.658   3.694 -1.5287  0.6862  0.4640
    6MOL    H61  971   3.683   1.533   3.424  0.5219 -1.6394 -0.0325
    6MOL    H62  972   3.903   1.605   3.454 -0.0574  0.0910 -1.4325
    6MOL    H63  973   3.809   1.738   3.453 -0.0175 -0.6610  0.2456
    6MOL    H64  974   3.869   1.681   3.612  1.3939 -2.0662  0.0114
    6MOL    C65  975   3.732   1.445   3.610 -0.1481  0.1756 -0.1243
    6MOL    C66  976   3.817   1.345   3.529  0.0938 -0.3131 -0.4493
    6MOL    C67  977   3.911   1.283   3.629  0.2565 -0.8828 -0.2754
    6MOL    H68  978   3.790   1.471   3.699  0.4127  1.5532 -0.8961
    6MOL    H69  979   3.637   1.403   3.644 -0.2375 -0.8581 -1.6153
    6MOL    H70  980   3.881   1.392   3.454  0.8027  1.4799  1.2395
    6MOL    H71  981   3.977   1.215   3.575  0.3074  0.5206 -2.0472
    6MOL    H72  982   3.972   1.364   3.671 -2.2219  0.2804  1.2288
    6MOL    H73  983   3.869   1.231   3.715  1.6385 -2.3106 -0.4489
    6MOL    C74  984   3.717   1.246   3.469 -0.1441 -0.0267 -0.3043
    6MOL    C75  985   3.766   1.151   3.364 -0.5336 -0.5892  0.9982
    6MOL    C76  986   3.668   1.040   3.338  0.3683 -0.4542 -0.3422
    6MOL    H77  987   3.670   1.200   3.556  1.5016 -0.6096  0.3000
    6MOL    H78  988   3.638   1.296   3.413  0.4709  0.7283 -0.5154
    6MOL    H79  989   3.852   1.103   3.412  0.3291 -0.6407 -0.5563
    6MOL    H80  990   3.591   1.089   3.279 -0.1288 -1.2119 -0.3250
    6MOL    H81  991   3.715   0.967   3.273 -1.2668  0.3465 -2.4645
    6MOL    H82  992   3.634   0.989   3.428  1.0942  0.2036  0.3240
    6MOL    C83  993   3.818   1.217   3.235 -0.6325  0.0756  0.3499
    6MOL    C84  994   3.932   1.135   3.175  0.2381 -0.7193  0.2026
    6MOL    C85  995   3.936   1.152   3.022  0.4489  0.0046  0.0654
    6MOL    H86  996   3.739   1.228   3.161 -0.5622  1.1346  0.4218
    6MOL    H87  997   3.851   1.319   3.253 -0.6564  0.0380  0.6080
    6MOL    H88  998   3.904   1.033   3.202  2.1394 -1.4120 -0.3168
    6MOL    H89  999   3.847   1.117   2.969 -0.2229  0.9778  0.5349
    6MOL    H90 1000   3.945   1.260   3.013  1.5158  0.0465  1.5271
    6MOL    H91 1001   4.023   1.119   2.965 -0.5700  0.6406 -1.9041
    6MOL    C92 1002   4.058   1.182   3.235 -1.1248  0.3955 -0.1386
    6MOL    C93 1003   4.177   1.074   3.223 -0.5955  0.4122  0.0177
    6MOL    C94 1004   4.313   1.143   3.257 -0.0781 -0.2352  0.3872
    6MOL    H95 1005   4.083   1.275   3.184 -3.0808  0.6141 -0.7311
    6MOL    H96 1006   4.053   1.188   3.343 -0.4572  0.0963 -0.0889
    6MOL    H97 1007   4.179   1.033   3.122  1.4462 -1.4895  0.7703
    6MOL    H98 1008   4.402   1.081   3.246  0.5086  0.8899 -1.3925
    6MOL    H99 1009   4.335   1.226   3.190 -1.7645  0.1637  0.3058
    6MOL   H100 1010   4.307   1.174   3.361 -1.0306  0.6881  0.0684
    6MOL   C101 1011   4.151   0.955   3.316 -0.2261 -0.0592 -0.1407
    6MOL   C102 1012   4.245   0.836   3.308  0.2239  0.0991 -0.0308
    6MOL   C103 1013   4.208   0.742   3.419 -0.1352  0.2065  0.2979
    6MOL   H104 1014   4.142   0.993   3.418 -1.2238 -0.7272  0.0336
    6MOL   H105 1015   4.054   0.914   3.288  0.5623 -2.5479  0.6100
    6MOL   H106 1016   4.342   0.879   3.332 -0.1180  2.3785 -2.6076
    6MOL   H107 1017   4.110   0.700   3.395 -1.1615  1.7696  1.6857
    6MOL   H108 1018   4.277   0.658   3.417  0.7958  0.9681 -0.3008
    6MOL   H109 1019   4.217   0.783   3.519 -1.5362 -0.9201  0.9013
    6MOL   C110 1020   4.253   0.757   3.174 -0.3320  0.1624 -0.0364
    6MOL   C111 1021   4.393   0.698   3.139  0.1389 -0.1003 -0.5574
    6MOL   C112 1022   4.392   0.589   3.029  0.2140  1.0709  0.2444
    6MOL   H113 1023   4.184   0.672   3.173  3.7999 -3.4595  1.9131
    6MOL   H114 1024   4.238   0.817   3.085 -0.6907 -0.3270 -0.3043
    6MOL   H115 1025   4.439   0.648   3.225 -0.0148  2.4379  1.0740
    6MOL   H116 1026   4.335   0.634   2.947  1.1855  1.2010 -0.3614
    6MOL   H117 1027   4.489   0.570   2.984 -0.7385  0.9617 -1.8592
    6MOL   H118 1028   4.337   0.503   3.069  3.3816 -0.5532  1.2358
    6MOL   C119 1029   4.497   0.807   3.103 -0.2352 -0.5607  0.1050
    6MOL   C120 1030   4.645   0.756   3.112 -0.2952 -0.1501  0.7395
    6MOL   C121 1031   4.714   0.775   2.979 -0.1430 -0.3058 -0.1686
    6MOL   H122 1032   4.472   0.851   3.007  1.1916  0.4222  0.1763
    6MOL   H123 1033   4.485   0.890   3.172 -2.2226 -0.4235 -0.3762
    6MOL   H124 1034   4.645   0.648   3.124  1.2136 -0.2780 -0.3466
    6MOL   H125 1035   4.725   0.878   2.945 -1.5035  0.2352  0.9779
    6MOL   H126 1036   4.805   0.716   2.972 -0.0091 -0.4002  1.9312
    6MOL   H127 1037   4.661   0.724   2.899 -0.2363 -0.2349 -0.1527
    6MOL   C128 1038   4.741   0.836   3.214 -0.3963  0.4071 -0.9597
    6MOL   C129 1039   4.698   0.814   3.365  0.3378  0.0410  0.3390
    6MOL   C130 1040   4.721   0.670   3.413  0.0119 -0.5912  0.3277
    6MOL   H131 1041   4.842   0.801   3.194 -0.1239 -0.5371  1.8540
    6MOL   H132 1042   4.738   0.942   3.192 -0.2211  0.2937 -1.5394
    6MOL   H133 1043   4.589   0.822   3.365  0.1676 -1.8047 -1.8425
    6MOL   H134 1044   4.686   0.640   3.512 -2.6844  0.6534 -0.2081
    6MOL   H135 1045   4.655   0.614   3.345  2.1289  0.0948 -2.3922
    6MOL   H136 1046   4.819   0.623   3.404 -0.9784 -2.8392  0.8732
    6MOL   C137 1047   4.768   0.919   3.453  0.6794  0.1752  0.2209
    6MOL   C138 1048   4.727   0.938   3.601  0.2073 -0.3408 -0.3134
    6MOL   C139 1049   4.815   1.035   3.672 -1.1073  0.2528 -0.2336
    6MOL   H140 1050   4.875   0.895   3.457  0.9284  1.3607  1.0528
    6MOL   H141 1051   4.765   1.017   3.405 -2.2869  0.6189  1.2261
    6MOL   H142 1052   4.734   0.837   3.641  0.3165  0.2060  1.0717
    6MOL   H143 1053   4.920   1.019   3.645 -1.5206 -2.0232 -0.5555
    6MOL   H144 1054   4.797   1.133   3.627  2.1578 -0.0449 -2.3742
    6MOL   H145 1055   4.789   1.036   3.778  0.3251  1.6874  0.1446
    6MOL   C146 1056   4.579   0.996   3.607  0.3569 -0.3229  0.5457
    6MOL   C147 1057   4.503   0.989   3.738 -0.5439 -0.5800 -0.1031
    6MOL   C148 1058   4.376   1.073   3.730 -0.0061  0.4549  0.4545
    6MOL   H149 1059   4.574   1.100   3.572  1.8075 -0.5260 -0.2753
    6MOL   H150 1060   4.514   0.939   3.541 -0.8457  0.4936  0.9931
    6MOL   H151 1061   4.562   1.045   3.811  0.8593 -2.0366 -0.1090
    6MOL   H152 1062   4.313   1.042   3.646  1.3779 -0.5586 -0.2236
    6MOL   H153 1063   4.316   1.061   3.820  1.3126 -0.8229  1.1823
    6MOL   H154 1064   4.392   1.180   3.717 -1.6076  0.5822 -0.7186
    6MOL   C155 1065   4.468   0.842   3.778 -0.5036 -0.1535 -0.4519
    6MOL   C156 1066   4.423   0.824   3.926 -0.3074 -0.2554 -0.3250
    6MOL   C157 1067   4.377   0.677   3.948  0.3664  0.1109 -0.0706
    6MOL   H158 1068   4.388   0.804   3.714 -0.7540 -1.2039  0.4685
    6MOL   H159 1069   4.550   0.774   3.753  1.2256  2.6206 -2.6140
    6MOL   H160 1070   4.343   0.890   3.958  0.0159 -1.5791  3.5467
    6MOL   H161 1071   4.467   0.623   3.975  0.9030  0.7011 -0.6560
    6MOL   H162 1072   4.304   0.679   4.029 -0.8906 -2.5224 -1.0949
    6MOL   H163 1073   4.333   0.626   3.863 -1.5688  1.2153  0.2298
    6MOL   C164 1074   4.538   0.861   4.026 -0.8530 -0.1112  0.3958
    6MOL   C165 1075   4.517   0.846   4.185  0.4882 -0.3416 -0.2221
    6MOL   C166 1076   4.640   0.887   4.276 -0.0300 -0.8143  0.2920
    6MOL   H167 1077   4.624   0.801   3.997 -0.3346  1.4647 -1.4457
    6MOL   H168 1078   4.558   0.966   4.005  1.3729 -1.0386 -2.4175
    6MOL   H169 1079   4.479   0.745   4.202 -1.2565  0.4250  0.5295
    6MOL   H170 1080   4.680   0.985   4.249 -1.7519 -0.0991  0.2597
    6MOL   H171 1081   4.599   0.894   4.377  0.5061 -1.3204  0.5487
    6MOL   H172 1082   4.714   0.808   4.262  0.2887 -0.5669  0.5746
    6MOL   C173 1083   4.402   0.935   4.239  0.6733 -0.2587  0.7217
    6MOL   C174 1084   4.321   0.875   4.356 -0.6095 -0.1721 -0.1601
    6MOL   C175 1085   4.246   0.984   4.440  0.3626  0.3507  0.1209
    6MOL   H176 1086   4.445   1.025   4.284  2.7935 -1.0066  0.2255
    6MOL   H177 1087   4.340   0.964   4.155  0.9036 -2.6514 -0.2962
    6MOL   H178 1088   4.386   0.830   4.431 -1.1222 -0.6306  0.0102
    6MOL   H179 1089   4.193   0.946   4.527 -1.9293  5.0329  0.9376
    6MOL   H180 1090   4.313   1.062   4.475 -0.5930  0.2931  2.1506
    6MOL   H181 1091   4.160   1.026   4.388  0.3045  1.1013  0.8094
    6MOL   H182 1092   4.263   0.802   4.301  0.9135 -0.2193 -1.7450
    7MOL     C1 1093   0.133   7.588   5.168  0.3484 -0.2619  0.4570
    7MOL     C2 1094   7.682   7.591   5.191  0.4362 -0.1349 -0.5174
    7MOL     C3 1095   7.648   7.491   5.300 -0.2649  0.0261 -1.1188
    7MOL     H4 1096   0.179   7.491   5.186  1.8283  0.2179 -0.6491
    7MOL     H5 1097   0.188   7.638   5.248  1.1610 -0.9707  0.3550
    7MOL     H6 1098   7.634   7.559   5.098  0.9523  2.4798 -1.7155
    7MOL     H7 1099   0.007   7.515   5.391  0.0071 -2.9312 -0.4659
    7MOL     H8 1100   7.542   7.496   5.323  0.0210  0.6979  0.1079
    7MOL     H9 1101   7.672   7.390   5.265  1.5762  0.3678 -0.9019
    7MOL    H10 1102   0.152   7.629   5.069 -1.0519 -1.7152 -0.4280
    7MOL    C11 1103   7.635   0.029   5.231  0.5356 -0.5121  0.1387
    7MOL    C12 1104   7.480   0.048   5.238 -0.1866 -0.6727 -0.2576
    7MOL    C13 1105   7.452   0.176   5.314 -0.8972  0.0367  0.2515
    7MOL    H14 1106   7.687   0.053   5.323  0.6854 -2.0538  0.4752
    7MOL    H15 1107   7.677   0.092   5.153  2.1144  0.7602  1.9732
    7MOL    H16 1108   7.443   7.667   5.304  1.0626  0.1896  1.4866
    7MOL    H17 1109   7.499   0.185   5.412 -0.1944 -1.3641  0.0588
    7MOL    H18 1110   7.493   0.267   5.271  1.2591 -1.1985 -0.3781
    7MOL    H19 1111   7.346   0.192   5.331 -0.7389  0.4017  0.9143
    7MOL    C20 1112   7.419   0.059   5.094 -0.5645 -0.3005 -0.1953
    7MOL    C21 1113   7.374   7.631   5.025 -0.1816  0.4341 -0.8525
    7MOL    C22 1114   7.289   7.540   5.117 -0.5482  0.6908  0.3973
    7MOL    H23 1115   7.325   0.116   5.092 -0.8651 -0.8165 -1.6055
    7MOL    H24 1116   7.482   0.120   5.028  1.1700 -2.1766 -0.2988
    7MOL    H25 1117   7.462   7.576   4.992 -0.0186 -1.1947  2.1447
    7MOL    H26 1118   7.190   7.578   5.144  0.5923  3.8507  0.3174
    7MOL    H27 1119   7.292   7.444   5.064 -1.1953  0.5669  0.5786
    7MOL    H28 1120   7.336   7.517   5.212  2.2140 -1.6156 -1.4018
    7MOL    C29 1121   7.294   7.662   4.899 -0.0143 -0.1864  0.5439
    7MOL    C30 1122   7.360   0.051   4.793  0.2137  0.6639  0.4267
    7MOL    C31 1123   7.491   7.688   4.741  0.3075 -0.3509 -0.6671
    7MOL    H32 1124   7.251   7.569   4.862  0.9877 -0.8586  1.0448
    7MOL    H33 1125   7.212   0.028   4.932  1.0963  0.6530  1.7608
    7MOL    H34 1126   7.379   0.150   4.834 -2.3494  2.0997 -1.6912
    7MOL    H35 1127   7.515   0.020   4.638  0.3299  0.8835 -0.3177
    7MOL    H36 1128   7.577   0.017   4.803 -1.5158  2.1093  0.8919
    7MOL    H37 1129   7.483   7.579   4.739  0.2183 -0.3644  0.5460
    7MOL    C38 1130   7.259   0.087   4.680 -0.1042 -0.1813  0.6366
    7MOL    C39 1131   7.135   0.185   4.710 -0.1455 -0.1770 -0.0022
    7MOL    C40 1132   7.175   0.335   4.719  0.0182  0.0919 -0.3133
    7MOL    H41 1133   7.315   0.142   4.605  1.5438  0.4904  2.3388
    7MOL    H42 1134   7.225   7.692   4.631 -0.2747 -0.1154  0.6297
    7MOL    H43 1135   7.091   0.153   4.805 -1.0077  0.5376 -0.1562
    7MOL    H44 1136   7.084   0.394   4.730 -0.4071 -0.2412 -1.9808
    7MOL    H45 1137   7.237   0.361   4.805 -0.4907  0.1041  0.0529
    7MOL    H46 1138   7.232   0.345   4.627  0.4385  2.1788  0.1599
    7MOL    C47 1139   7.034   0.153   4.597  0.9808 -0.1235  0.1354
    7MOL    C48 1140   6.892   0.229   4.605 -0.0001  0.1214 -0.0169
    7MOL    C49 1141   6.885   0.355   4.518 -0.0790  0.1702 -0.7407
    7MOL    H50 1142   7.074   0.165   4.496 -1.3401  0.2388 -0.7832
    7MOL    H51 1143   7.013   0.047   4.607  2.5141 -0.3886  0.5548
    7MOL    H52 1144   6.873   0.256   4.709  0.5341 -1.2624  0.4551
    7MOL    H53 1145   6.795   0.417   4.528  0.3687  0.4978  1.5038
    7MOL    H54 1146   6.976   0.415   4.513  0.4601 -0.2957  2.3949
    7MOL    H55 1147   6.876   0.319   4.415  2.8846  0.5942 -1.1874
    7MOL    C56 1148   6.769   0.145   4.566  0.1884 -0.2420 -0.1855
    7MOL    C57 1149   6.736   0.024   4.647  0.5461  0.0269  0.5557
    7MOL    C58 1150   6.752   0.041   4.796 -0.9509 -0.3647 -0.1176
    7MOL    H59 1151   6.689   0.218   4.565  1.0956  0.8118  2.1439
    7MOL    H60 1152   6.778   0.115   4.461 -0.4300  0.5259 -0.4587
    7MOL    H61 1153   6.805   7.642   4.618  0.2103  0.2515 -0.9178
    7MOL    H62 1154   6.857   0.056   4.818 -0.9133 -1.7491  0.7158
    7MOL    H63 1155   6.698   0.121   4.846 -0.6285  0.1126 -0.5366
    7MOL    H64 1156   6.719   7.647   4.846  0.7732 -1.0202 -0.1640
    7MOL    C65 1157   6.591   7.667   4.620  0.4622  0.2596  0.1109
    7MOL    C66 1158   6.542   7.655   4.475 -0.4007  0.3423  0.6879
    7MOL    C67 1159   6.629   7.558   4.401  0.3031 -0.4561  0.1623
    7MOL    H68 1160   6.601   7.572   4.674  2.8672  0.4260  0.0002
    7MOL    H69 1161   6.520   0.026   4.680  0.5609 -0.8302  1.2877
    7MOL    H70 1162   6.558   0.055   4.430 -0.1431 -0.8722 -1.9374
    7MOL    H71 1163   6.732   7.592   4.392 -0.0774  0.4432 -0.8570
    7MOL    H72 1164   6.624   7.460   4.449  0.2052 -0.1053  0.8746
    7MOL    H73 1165   6.592   7.534   4.301 -0.9189  1.8624  0.0447
    7MOL    C74 1166   6.392   7.627   4.456  0.5923  0.3186 -0.2040
    7MOL    C75 1167   6.298   0.012   4.542  0.0573  0.0971  0.7780
    7MOL    C76 1168   6.295   0.158   4.482 -0.3118  0.0313 -0.0009
    7MOL    H77 1169   6.359   7.642   4.353  1.4304  1.5244 -0.3066
    7MOL    H78 1170   6.370   7.520   4.456 -0.0168  0.4427  1.1755
    7MOL    H79 1171   6.323   0.016   4.648 -0.8862  1.4476  0.9682
    7MOL    H80 1172   6.227   0.224   4.536 -0.8224  0.2111 -0.8582
    7MOL    H81 1173   6.384   0.216   4.505 -1.0324  1.7547 -1.4312
    7MOL    H82 1174   6.285   0.152   4.374 -0.7230  0.3339  0.0203
    7MOL    C83 1175   6.153   7.654   4.541  0.2160  0.4976 -0.0975
    7MOL    C84 1176   6.132   7.525   4.624  0.1698 -0.1456 -0.0619
    7MOL    C85 1177   6.162   7.547   4.777  0.4512 -0.1838 -0.3283
    7MOL    H86 1178   6.090   0.034   4.585 -1.8585 -1.7847  1.0740
    7MOL    H87 1179   6.114   7.637   4.441 -0.8387  1.5043  0.1271
    7MOL    H88 1180   6.199   7.450   4.583 -2.1158 -1.9288 -0.6247
    7MOL    H89 1181   6.122   7.465   4.836 -2.2259  1.0358 -0.3337
    7MOL    H90 1182   6.269   7.562   4.788 -0.1047  3.1579  1.3737
    7MOL    H91 1183   6.111   7.633   4.822 -2.3341 -1.1474 -1.5459
    7MOL    C92 1184   5.989   7.468   4.615  0.1515  0.3475  0.1684
    7MOL    C93 1185   5.931   7.445   4.474 -0.3165 -0.2186  0.1780
    7MOL    C94 1186   6.022   7.360   4.381 -0.1380  0.4155  0.2487
    7MOL    H95 1187   5.989   7.375   4.671 -0.7770  0.3584  0.1946
    7MOL    H96 1188   5.929   7.546   4.662 -1.0156 -0.0379 -0.6694
    7MOL    H97 1189   5.914   7.543   4.429 -0.0115  0.3055  1.1629
    7MOL    H98 1190   6.066   7.273   4.429  0.6325  0.3419 -0.5880
    7MOL    H99 1191   5.967   7.325   4.294 -1.0894 -1.9039  1.7514
    7MOL   H100 1192   6.094   7.432   4.342 -1.4437  1.1115 -0.9162
    7MOL   C101 1193   5.791   7.380   4.466 -0.4536  0.4105  0.0035
    7MOL   C102 1194   5.687   7.458   4.550  0.2032  0.8711 -0.0109
    7MOL   C103 1195   5.676   7.606   4.508 -0.5797 -0.1026 -0.3308
    7MOL   H104 1196   5.751   7.386   4.365  1.7781  2.6941 -0.7986
    7MOL   H105 1197   5.795   7.276   4.499 -0.3593  0.3059 -0.3430
    7MOL   H106 1198   5.700   7.451   4.658  1.6987 -1.6622 -0.3114
    7MOL   H107 1199   5.762   7.666   4.537 -1.3085  0.9712 -0.3621
    7MOL   H108 1200   5.658   7.617   4.401 -1.2236  0.4462 -0.1708
    7MOL   H109 1201   5.600   7.656   4.568  1.5572  0.0840  2.3346
    7MOL   C110 1202   5.547   7.386   4.548 -0.5953 -0.9956 -0.4305
    7MOL   C111 1203   5.530   7.244   4.602 -0.7296  0.2208 -0.7532
    7MOL   C112 1204   5.403   7.231   4.683  0.4361 -0.6035  0.3073
    7MOL   H113 1205   5.487   7.456   4.606  2.7749  1.6715  0.0657
    7MOL   H114 1206   5.497   7.383   4.452  1.6025 -2.2143 -1.5843
    7MOL   H115 1207   5.609   7.232   4.676 -1.2529 -0.9368 -0.3798
    7MOL   H116 1208   5.371   7.322   4.735 -2.1180 -0.1465 -1.9430
    7MOL   H117 1209   5.317   7.222   4.616  0.9607 -1.9408 -0.1874
    7MOL   H118 1210   5.407   7.152   4.757 -0.9942 -0.8650  0.1293
    7MOL   C119 1211   5.559   7.138   4.492 -0.0906 -0.6986  0.8173
    7MOL   C120 1212   5.623   7.004   4.533 -0.1342  0.6662  0.1284
    7MOL   C121 1213   5.535   6.922   4.626 -0.6060  0.2021 -0.3546
    7MOL   H122 1214   5.464   7.132   4.438 -0.3371  1.1167  1.0011
    7MOL   H123 1215   5.618   7.190   4.417 -1.4720  0.5658  0.5725
    7MOL   H124 1216   5.714   7.041   4.581  0.7903 -0.9595 -0.3310
    7MOL   H125 1217   5.586   6.828   4.650 -3.7717 -1.2350  1.0043
    7MOL   H126 1218   5.520   6.970   4.723 -2.2201  0.4251 -0.7010
    7MOL   H127 1219   5.441   6.903   4.576 -0.6141 -0.0186 -0.2549
    7MOL   C128 1220   5.663   6.911   4.413 -0.1847  0.0535 -0.4510
    7MOL   C129 1221   5.768   6.982   4.320  0.2497 -0.1588  0.2428
    7MOL   C130 1222   5.901   7.000   4.398  0.0737 -0.3904 -0.3257
    7MOL   H131 1223   5.700   6.815   4.448  2.6999  1.7188  1.2178
    7MOL   H132 1224   5.575   6.894   4.351 -1.4145  1.2997  0.9248
    7MOL   H133 1225   5.732   7.081   4.289 -1.0062 -0.5292  0.4975
    7MOL   H134 1226   5.901   7.022   4.504 -1.4418  0.6921 -0.5413
    7MOL   H135 1227   5.958   6.908   4.385  1.5943  0.8118 -2.6222
    7MOL   H136 1228   5.967   7.076   4.356 -0.2302 -0.7504 -1.4943
    7MOL   C137 1229   5.777   6.895   4.194 -0.9804 -0.0558 -0.0311
    7MOL   C138 1230   5.843   6.972   4.068  0.4223 -0.5725  0.4723
    7MOL   C139 1231   5.883   6.855   3.966  0.6362  0.3069 -0.5612
    7MOL   H140 1232   5.832   6.802   4.210 -0.7798 -0.2469 -1.7037
    7MOL   H141 1233   5.678   6.862   4.162 -0.8428 -1.8697  1.2858
    7MOL   H142 1234   5.940   7.012   4.095 -0.0599 -0.3597  1.9085
    7MOL   H143 1235   5.803   6.788   3.935 -1.4553  1.7449  1.5822
    7MOL   H144 1236   5.923   6.896   3.873  0.8220  0.3785 -0.4492
    7MOL   H145 1237   5.971   6.801   4.002 -1.4422 -2.1585  0.9963
    7MOL   C146 1238   5.741   7.078   4.014 -0.1958  0.4654 -0.1550
    7MOL   C147 1239   5.814   7.217   4.005 -0.0355  0.6170 -0.2405
    7MOL   C148 1240   5.917   7.214   3.896  0.1923  0.1039 -0.3539
    7MOL   H149 1241   5.695   7.029   3.929  0.7907 -2.4400  0.9203
    7MOL   H150 1242   5.655   7.080   4.081 -1.5284  0.9870 -1.8475
    7MOL   H151 1243   5.857   7.238   4.102 -0.4471 -0.9138  0.2859
    7MOL   H152 1244   5.998   7.285   3.915 -0.1581  1.4467 -3.5262
    7MOL   H153 1245   5.959   7.114   3.890  0.6278  0.3280 -1.2230
    7MOL   H154 1246   5.872   7.235   3.798  1.4535 -1.4806 -1.3015
    7MOL   C155 1247   5.707   7.319   3.971  0.6752 -1.0850  0.8824
    7MOL   C156 1248   5.748   7.469   3.961  0.0492 -0.4486 -0.4669
    7MOL   C157 1249   5.635   7.560   3.902  0.5163  0.2539 -0.1487
    7MOL   H158 1250   5.646   7.298   3.883  1.9306 -0.1869 -0.2230
    7MOL   H159 1251   5.624   7.311   4.041 -0.7556 -0.4741 -0.6904
    7MOL   H160 1252   5.830   7.479   3.890 -0.7097 -2.4764 -1.6733
    7MOL   H161 1253   5.538   7.549   3.951 -0.4336 -2.0354 -2.4684
    7MOL   H162 1254   5.652   7.667   3.895 -0.4480  0.4344  0.2820
    7MOL   H163 1255   5.618   7.521   3.802 -1.6224 -2.3048  1.1467
    7MOL   C164 1256   5.768   7.515   4.106  0.5279 -0.2938 -0.1095
    7MOL   C165 1257   5.881   7.621   4.122  0.3026 -0.2296  0.0556
    7MOL   C166 1258   6.008   7.603   4.038 -0.1004 -1.0252  0.5728
    7MOL   H167 1259   5.674   7.543   4.154  0.8485 -0.8751  0.8763
    7MOL   H168 1260   5.801   7.434   4.171 -1.2071  0.2610  1.5163
    7MOL   H169 1261   5.930   7.612   4.219 -1.4063  2.1605  1.1811
    7MOL   H170 1262   6.088   7.674   4.060 -2.0176  1.5870 -0.6701
    7MOL   H171 1263   6.067   7.513   4.058  1.8422 -0.3496 -1.8402
    7MOL   H172 1264   5.994   7.611   3.930  0.5066  1.0242  0.6202
    7MOL   C173 1265   5.814   0.059   4.110 -0.4637 -0.3585 -0.0090
    7MOL   C174 1266   5.904   0.175   4.147 -0.4932 -0.3301 -0.3990
    7MOL   C175 1267   5.947   0.186   4.293 -0.1385  0.2106 -0.4940
    7MOL   H176 1268   5.791   0.074   4.005  1.9508 -2.0673 -0.8110
    7MOL   H177 1269   5.724   0.067   4.171 -1.0643 -1.7566 -0.6950
    7MOL   H178 1270   5.851   0.264   4.111 -1.9831 -0.0334  2.3863
    7MOL   H179 1271   5.987   0.284   4.319 -1.7103  0.4695  1.0237
    7MOL   H180 1272   5.880   0.160   4.375 -0.0489  0.0932 -0.4566
    7MOL   H181 1273   6.023   0.110   4.312 -1.3221 -1.4112 -2.1452
    7MOL   H182 1274   5.990   0.170   4.080 -1.7287  2.1596 -2.2436
    8MOL     C1 1275   0.952   1.915   0.923  0.2473  0.5698  0.2196
    8MOL     C2 1276   0.804   1.932   0.875  1.0382  0.0018  0.1933
    8MOL     C3 1277   0.794   1.899   0.721  0.1748  0.0423 -0.1880
    8MOL     H4 1278   0.969   1.943   1.026  4.5476  0.4895 -0.3911
    8MOL     H5 1279   1.030   1.961   0.863 -1.3663  2.2542 -0.6388
    8MOL     H6 1280   0.790   2.040   0.881  0.9356 -0.0543  0.9331
    8MOL     H7 1281   0.815   1.795   0.696  0.7206  0.1050  0.0046
    8MOL     H8 1282   0.692   1.923   0.690 -0.1372 -1.1217 -0.0852
    8MOL     H9 1283   0.853   1.964   0.656 -2.3175  1.4288 -1.1357
    8MOL    H10 1284   0.979   1.809   0.925 -0.1219  0.4632 -0.3121
    8MOL    C11 1285   0.702   1.865   0.963 -0.4751  1.3380  0.1283
    8MOL    C12 1286   0.691   1.713   0.943  0.2888 -0.1703 -0.0641
    8MOL    C13 1287   0.672   1.650   1.082  0.9075  0.1298 -0.3394
    8MOL    H14 1288   0.741   1.877   1.064  0.1079 -0.4282  0.1339
    8MOL    H15 1289   0.604   1.912   0.962 -1.3911 -0.5327 -0.6919
    8MOL    H16 1290   0.788   1.689   0.899  0.6797  1.7497 -0.2806
    8MOL    H17 1291   0.738   1.677   1.164 -1.8450  2.4598  1.2310
    8MOL    H18 1292   0.575   1.671   1.127  0.0055  1.0848 -2.6719
    8MOL    H19 1293   0.675   1.541   1.076 -0.9816 -0.0623  1.5425
    8MOL    C20 1294   0.579   1.674   0.850  0.1576  0.2013  0.7539
    8MOL    C21 1295   0.553   1.524   0.824  0.3055 -0.0857 -0.0670
    8MOL    C22 1296   0.422   1.497   0.738 -0.1139 -0.1978  0.2370
    8MOL    H23 1297   0.481   1.700   0.891 -0.4311 -1.0990  0.1823
    8MOL    H24 1298   0.586   1.724   0.753  1.3476 -0.9398  0.2368
    8MOL    H25 1299   0.544   1.479   0.923  1.1028  2.5114  1.2538
    8MOL    H26 1300   0.422   1.543   0.640 -2.4990  3.1088  1.7234
    8MOL    H27 1301   0.404   1.391   0.720  0.1456  0.0785 -1.7404
    8MOL    H28 1302   0.343   1.537   0.801 -1.0834 -1.1193 -0.3835
    8MOL    C29 1303   0.672   1.456   0.751 -0.0331  0.6074  0.1741
    8MOL    C30 1304   0.676   1.299   0.759  0.6316 -0.1208 -0.5292
    8MOL    C31 1305   0.752   1.245   0.634 -0.1480  0.4087 -0.8160
    8MOL    H32 1306   0.666   1.496   0.650 -1.5696  2.2363  0.8719
    8MOL    H33 1307   0.763   1.488   0.801  0.4834  2.2298 -1.7267
    8MOL    H34 1308   0.575   1.260   0.765  0.5100  0.5039  2.0246
    8MOL    H35 1309   0.849   1.292   0.617  2.0455 -3.6608 -0.4521
    8MOL    H36 1310   0.766   1.137   0.646 -2.3660  0.1459 -0.4213
    8MOL    H37 1311   0.696   1.256   0.542 -1.7540 -4.5388 -0.5756
    8MOL    C38 1312   0.728   1.243   0.894  0.7104 -0.0422 -0.3930
    8MOL    C39 1313   0.696   1.093   0.929  0.3786  0.2953  0.2830
    8MOL    C40 1314   0.797   1.032   1.030 -0.0114  0.1274 -0.1205
    8MOL    H41 1315   0.836   1.259   0.881  0.4040  2.3058 -0.3091
    8MOL    H42 1316   0.680   1.311   0.964 -0.5439 -1.0675 -0.2621
    8MOL    H43 1317   0.700   1.026   0.843 -0.6569 -0.9673  1.2027
    8MOL    H44 1318   0.791   1.081   1.128  0.1636  0.3727 -0.2313
    8MOL    H45 1319   0.774   0.926   1.037  1.4761 -0.0838  2.1331
    8MOL    H46 1320   0.893   1.045   0.981  0.1965  0.2758  0.3155
    8MOL    C47 1321   0.556   1.078   0.995 -0.0046 -0.3115 -0.2081
    8MOL    C48 1322   0.498   0.937   0.994  0.6769  0.8221 -0.4579
    8MOL    C49 1323   0.392   0.915   1.114  0.0059  0.2600 -0.0589
    8MOL    H50 1324   0.561   1.121   1.095 -1.5347  0.6843 -0.5544
    8MOL    H51 1325   0.489   1.149   0.948 -1.3850 -2.4318 -1.5176
    8MOL    H52 1326   0.571   0.860   1.020 -2.1769 -2.7398 -2.5424
    8MOL    H53 1327   0.355   0.814   1.100  0.2548  0.4648 -2.3480
    8MOL    H54 1328   0.435   0.903   1.214 -1.8772 -0.5899  0.6546
    8MOL    H55 1329   0.305   0.980   1.111  0.8590  1.5643  1.9528
    8MOL    C56 1330   0.438   0.898   0.853 -0.0838  0.4104 -0.1296
    8MOL    C57 1331   0.430   0.747   0.826 -0.1845 -0.0426  0.2645
    8MOL    C58 1332   0.324   0.735   0.725  0.6566 -0.6468 -0.2116
    8MOL    H59 1333   0.349   0.959   0.837  0.5370  1.2612 -0.3693
    8MOL    H60 1334   0.505   0.940   0.778 -1.3884  0.1092 -1.4929
    8MOL    H61 1335   0.397   0.689   0.912 -1.4455 -1.1944 -0.9744
    8MOL    H62 1336   0.231   0.776   0.765  1.8006 -0.3391  2.1918
    8MOL    H63 1337   0.345   0.784   0.630  0.8939 -0.8538 -0.2666
    8MOL    H64 1338   0.306   0.632   0.695 -2.2649 -0.4215  0.6051
    8MOL    C65 1339   0.565   0.686   0.781  0.1328  0.4977  0.5667
    8MOL    C66 1340   0.674   0.648   0.893 -0.3814  0.0735  0.4880
    8MOL    C67 1341   0.630   0.564   1.012  0.7625 -0.4505  0.1858
    8MOL    H68 1342   0.540   0.590   0.735 -1.1940  0.7289  0.7819
    8MOL    H69 1343   0.604   0.756   0.707  0.0878  0.5688  0.6098
    8MOL    H70 1344   0.722   0.744   0.910 -0.8743  0.9602 -2.7825
    8MOL    H71 1345   0.562   0.623   1.073  0.7233  1.2745 -1.4493
    8MOL    H72 1346   0.582   0.469   0.987  2.4832 -1.5633  1.0733
    8MOL    H73 1347   0.720   0.540   1.069  0.9640 -0.0618  0.0347
    8MOL    C74 1348   0.783   0.569   0.818  0.2869 -0.2721  0.0508
    8MOL    C75 1349   0.918   0.566   0.891 -0.8306  1.8337 -0.6111
    8MOL    C76 1350   1.015   0.469   0.817  0.0110  0.3839  0.4013
    8MOL    H77 1351   0.754   0.473   0.776  2.0374 -0.6533 -0.3492
    8MOL    H78 1352   0.805   0.627   0.729 -1.4365  0.6538  0.2032
    8MOL    H79 1353   0.910   0.522   0.990 -2.6528  0.2952 -1.4177
    8MOL    H80 1354   1.064   0.519   0.734 -1.4218 -2.7223 -2.4512
    8MOL    H81 1355   1.094   0.425   0.877 -0.3116  1.5585  1.7121
    8MOL    H82 1356   0.964   0.386   0.768 -1.0762  1.9334 -1.1559
    8MOL    C83 1357   0.986   0.706   0.923 -0.0493  0.3299  0.5482
    8MOL    C84 1358   1.121   0.699   1.006  0.3483 -0.4757  1.0008
    8MOL    C85 1359   1.239   0.697   0.910 -0.0262  0.2893  0.2079
    8MOL    H86 1360   1.002   0.764   0.832 -0.0822  0.4770  0.6355
    8MOL    H87 1361   0.913   0.760   0.983 -0.6948 -0.9002  0.8933
    8MOL    H88 1362   1.124   0.608   1.067  0.9420 -1.6286 -0.7169
    8MOL    H89 1363   1.241   0.617   0.836  0.2008  0.1928  0.3200
    8MOL    H90 1364   1.242   0.785   0.846 -2.5513  0.7527  0.6546
    8MOL    H91 1365   1.333   0.692   0.965 -0.4744 -1.3010  0.8658
    8MOL    C92 1366   1.137   0.812   1.099 -0.9364  0.0661 -0.3380
    8MOL    C93 1367   1.097   0.775   1.246  0.0099  0.5697 -0.0445
    8MOL    C94 1368   1.121   0.899   1.332  0.1415  0.2642 -0.0320
    8MOL    H95 1369   1.233   0.861   1.090 -2.0461  2.1675 -0.9172
    8MOL    H96 1370   1.059   0.883   1.073  0.2865  1.6126  0.1165
    8MOL    H97 1371   1.171   0.707   1.288 -1.4425  0.6481  2.7245
    8MOL    H98 1372   1.045   0.975   1.316  0.0003  0.1356  0.0306
    8MOL    H99 1373   1.123   0.878   1.439  0.5721 -0.5843 -0.1991
    8MOL   H100 1374   1.221   0.940   1.314 -0.5663  1.6349 -0.8558
    8MOL   C101 1375   0.948   0.716   1.262 -1.3313  0.3892  0.3183
    8MOL   C102 1376   0.911   0.636   1.391 -0.6868 -0.6429  0.1554
    8MOL   C103 1377   0.755   0.622   1.388 -0.1098  0.5415  0.1244
    8MOL   H104 1378   0.889   0.808   1.264 -1.4138  0.3632 -0.7746
    8MOL   H105 1379   0.909   0.662   1.175  0.8896 -0.0018 -0.4668
    8MOL   H106 1380   0.929   0.696   1.480 -1.2590 -1.5753  0.9055
    8MOL   H107 1381   0.718   0.590   1.291  2.9318 -1.5511 -0.3773
    8MOL   H108 1382   0.720   0.550   1.462 -1.0466  2.5698  1.6986
    8MOL   H109 1383   0.708   0.719   1.405 -0.0708  1.0029 -2.2874
    8MOL   C110 1384   0.990   0.508   1.395  0.0547 -1.1755  0.5511
    8MOL   C111 1385   1.087   0.488   1.523 -0.1381  0.1036  0.0262
    8MOL   C112 1386   0.998   0.472   1.648  0.2969 -0.1416 -0.8530
    8MOL   H113 1387   0.930   0.419   1.380  0.0314 -1.1277  0.3572
    8MOL   H114 1388   1.035   0.496   1.296  0.2149 -2.5228  0.7833
    8MOL   H115 1389   1.141   0.582   1.540 -0.2824  0.7406 -2.8700
    8MOL   H116 1390   1.058   0.484   1.738  1.9967  1.5500 -2.1785
    8MOL   H117 1391   0.912   0.539   1.652 -0.6874 -1.4369  0.7326
    8MOL   H118 1392   0.947   0.375   1.647  1.0052 -0.5499  0.8355
    8MOL   C119 1393   1.195   0.380   1.515  0.0635 -1.0148  0.4539
    8MOL   C120 1394   1.286   0.391   1.391 -0.1171 -0.2973  0.1422
    8MOL   C121 1395   1.387   0.495   1.400  0.1069 -0.8333  0.0592
    8MOL   H122 1396   1.260   0.385   1.603 -1.4104  0.5632  1.4694
    8MOL   H123 1397   1.136   0.288   1.517 -0.4089 -0.6989  2.2811
    8MOL   H124 1398   1.229   0.409   1.299 -0.4707 -0.3404  0.3545
    8MOL   H125 1399   1.346   0.596   1.410  0.8005 -0.4434 -0.9432
    8MOL   H126 1400   1.452   0.465   1.482  0.9589 -1.2998 -0.7819
    8MOL   H127 1401   1.451   0.490   1.312  1.1475  0.2531  0.7388
    8MOL   C128 1402   1.350   0.250   1.357  0.6680 -0.1525 -0.4417
    8MOL   C129 1403   1.445   0.238   1.241 -0.2215 -0.0369  0.7974
    8MOL   C130 1404   1.483   0.092   1.222 -0.6889  0.3669 -0.1236
    8MOL   H131 1405   1.407   0.218   1.445  3.0201 -0.9157 -2.2095
    8MOL   H132 1406   1.269   0.177   1.341  0.1631 -0.0136  1.3137
    8MOL   H133 1407   1.538   0.291   1.264 -0.1187  0.0758  0.1325
    8MOL   H134 1408   1.545   0.057   1.304  1.4815  1.4326 -1.2707
    8MOL   H135 1409   1.403   0.018   1.221  0.6806 -1.1232 -0.2632
    8MOL   H136 1410   1.536   0.078   1.128  1.0576 -0.2201  0.9378
    8MOL   C137 1411   1.384   0.290   1.105 -0.0223  0.6626  0.4133
    8MOL   C138 1412   1.476   0.315   0.983 -0.0543  0.2184  0.5494
    8MOL   C139 1413   1.388   0.350   0.867  0.3128  0.7425  0.3401
    8MOL   H140 1414   1.301   0.231   1.067 -0.6919  1.6881  0.2645
    8MOL   H141 1415   1.342   0.389   1.122  1.7557  1.7276 -1.1937
    8MOL   H142 1416   1.516   0.217   0.956  1.9539  1.5830 -1.5587
    8MOL   H143 1417   1.329   0.441   0.881 -1.2763  0.0743 -1.8479
    8MOL   H144 1418   1.436   0.370   0.771 -0.2427  0.4252  0.0012
    8MOL   H145 1419   1.316   0.271   0.849 -2.3494  3.5660 -1.9890
    8MOL   C146 1420   1.596   0.412   1.004  0.0646 -0.0044  0.0884
    8MOL   C147 1421   1.693   0.432   0.887 -0.0205 -0.0642  0.2237
    8MOL   C148 1422   1.794   0.561   0.897  0.3226 -0.2156 -0.0343
    8MOL   H149 1423   1.555   0.509   1.032  0.3421  0.1561 -0.0667
    8MOL   H150 1424   1.662   0.385   1.087  0.8036 -0.3586 -0.6106
    8MOL   H151 1425   1.615   0.466   0.818 -2.0532 -2.8075  1.0788
    8MOL   H152 1426   1.739   0.654   0.913  2.3123  0.6879  1.6585
    8MOL   H153 1427   1.872   0.554   0.972  2.2521  0.1623 -1.9477
    8MOL   H154 1428   1.846   0.566   0.801 -0.5751  0.5398 -0.4987
    8MOL   C155 1429   1.770   0.302   0.851  0.4970  0.5992  0.0223
    8MOL   C156 1430   1.856   0.297   0.728 -0.0911  0.3264  0.5579
    8MOL   C157 1431   2.000   0.338   0.761  0.2060 -0.3703 -0.0544
    8MOL   H158 1432   1.813   0.272   0.947 -1.3978 -0.2625  0.6422
    8MOL   H159 1433   1.697   0.222   0.842  0.5397  0.2500  2.4245
    8MOL   H160 1434   1.820   0.361   0.648  1.1665 -1.1651 -1.2148
    8MOL   H161 1435   2.073   0.333   0.680  0.9238  0.4117  0.5319
    8MOL   H162 1436   2.000   0.433   0.816 -0.2975 -0.8557  0.8062
    8MOL   H163 1437   2.040   0.266   0.833  0.9254  0.2858  0.2147
    8MOL   C164 1438   1.858   0.152   0.672  0.5503  0.2698 -0.1982
    8MOL   C165 1439   1.939   0.135   0.535  0.2580 -0.6849  0.1542
    8MOL   C166 1440   1.936   7.688   0.490  0.4476 -0.1811 -0.4095
    8MOL   H167 1441   1.901   0.083   0.746  1.0203  0.1016 -0.6306
    8MOL   H168 1442   1.760   0.108   0.653  0.2730  0.0843  1.5533
    8MOL   H169 1443   2.041   0.168   0.556  0.2802 -1.2542  0.9521
    8MOL   H170 1444   1.956   7.627   0.578 -1.2518 -1.8745 -1.1568
    8MOL   H171 1445   1.834   7.664   0.458 -0.2544  2.1279 -0.0360
    8MOL   H172 1446   2.007   7.658   0.413 -0.0970 -2.0698 -0.2091
    8MOL   C173 1447   1.877   0.228   0.430  0.0422  0.1188  0.1035
    8MOL   C174 1448   1.934   0.218   0.288  0.7274  0.7030  0.7140
    8MOL   C175 1449   1.869   0.323   0.189  0.1422  0.2228 -0.2756
    8MOL   H176 1450   1.770   0.208   0.419  0.3521 -1.9861  0.7948
    8MOL   H177 1451   1.890   0.329   0.470 -0.1264  0.6175 -1.0770
    8MOL   H178 1452   1.938   0.123   0.236 -0.4806  2.1527 -2.1793
    8MOL   H179 1453   1.774   0.280   0.157 -0.5561  0.7461  1.0305
    8MOL   H180 1454   1.845   0.416   0.241 -1.1946  0.3293 -1.0574
    8MOL   H181 1455   1.917   0.344   0.094 -0.0956 -2.0637 -0.9221
    8MOL   H182 1456   2.039   0.246   0.294  0.8659  0.2619  0.3474
    9MOL     C1 1457   3.440   1.068   3.675  0.8369 -0.1466 -0.2740
    9MOL     C2 1458   3.302   0.998   3.668 -0.3909  0.6323  0.5680
    9MOL     C3 1459   3.238   1.022   3.807 -0.2318 -0.2767 -0.1162
    9MOL     H4 1460   3.496   1.053   3.583  0.6078 -0.2422 -0.3981
    9MOL     H5 1461   3.495   1.025   3.758  1.0145 -0.9821 -0.8179
    9MOL     H6 1462   3.326   0.893   3.651 -0.2932  0.6872  0.3576
    9MOL     H7 1463   3.223   1.129   3.822 -2.4743 -0.6809  0.7430
    9MOL     H8 1464   3.140   0.981   3.831 -0.3609  0.2400  0.2713
    9MOL     H9 1465   3.296   0.978   3.888 -0.9658  0.2651  0.7295
    9MOL    H10 1466   3.429   1.175   3.697 -1.0294 -0.0595 -1.4813
    9MOL    C11 1467   3.213   1.031   3.546 -0.3115 -0.4088 -0.3784
    9MOL    C12 1468   3.278   1.027   3.401 -0.2099 -0.0509  0.1741
    9MOL    C13 1469   3.317   0.880   3.369 -0.0329  0.5659 -0.1325
    9MOL    H14 1470   3.130   0.961   3.548 -0.9757  0.4131  0.9045
    9MOL    H15 1471   3.161   1.125   3.565 -0.7962 -0.8029  0.2658
    9MOL    H16 1472   3.366   1.090   3.388 -1.3534  1.2542 -1.5205
    9MOL    H17 1473   3.234   0.809   3.363  0.8643 -0.5194  0.2113
    9MOL    H18 1474   3.385   0.874   3.284 -1.4939  2.6392 -1.5264
    9MOL    H19 1475   3.374   0.850   3.456  2.0378  1.4209 -1.1743
    9MOL    C20 1476   3.185   1.088   3.294 -0.2365 -0.2104  0.1035
    9MOL    C21 1477   3.179   1.248   3.282 -0.0836  0.0526 -0.0977
    9MOL    C22 1478   3.269   1.282   3.167 -0.4934 -0.1040 -1.1734
    9MOL    H23 1479   3.209   1.047   3.196 -0.7486 -1.7682  0.6173
    9MOL    H24 1480   3.083   1.060   3.320  0.3311 -3.1136 -0.6070
    9MOL    H25 1481   3.230   1.288   3.370 -0.8287 -0.3000  0.5007
    9MOL    H26 1482   3.370   1.244   3.185 -0.5528  0.6775  0.9331
    9MOL    H27 1483   3.234   1.261   3.066  1.7694  0.1936 -2.0657
    9MOL    H28 1484   3.279   1.390   3.171  0.8210 -0.2184 -1.0440
    9MOL    C29 1485   3.045   1.317   3.254 -0.9877 -0.3111  0.0330
    9MOL    C30 1486   2.940   1.311   3.368  0.0771 -0.0419  0.5360
    9MOL    C31 1487   2.984   1.399   3.486  0.3638  0.0091  0.3813
    9MOL    H32 1488   3.057   1.423   3.233 -1.7253 -0.5389 -1.7090
    9MOL    H33 1489   3.003   1.270   3.164  1.0011  1.3965 -1.8194
    9MOL    H34 1490   2.937   1.213   3.417 -1.6182 -0.5446 -0.5394
    9MOL    H35 1491   3.083   1.367   3.517  0.7453 -1.1303 -1.9062
    9MOL    H36 1492   2.980   1.505   3.464 -1.0202  0.2703  1.8229
    9MOL    H37 1493   2.917   1.384   3.571  0.0134  1.3249  0.3443
    9MOL    C38 1494   2.804   1.346   3.307 -1.1360 -0.4071 -0.0382
    9MOL    C39 1495   2.678   1.326   3.398  0.2379 -0.5677  0.9668
    9MOL    C40 1496   2.562   1.416   3.351 -0.1952  0.3696 -0.6453
    9MOL    H41 1497   2.809   1.448   3.269 -0.7386 -0.9498 -1.5153
    9MOL    H42 1498   2.787   1.284   3.218 -2.0617 -0.3313  0.0899
    9MOL    H43 1499   2.716   1.351   3.497  2.4507 -1.9096  0.4948
    9MOL    H44 1500   2.466   1.396   3.400 -0.0241  0.1478 -0.4009
    9MOL    H45 1501   2.593   1.521   3.355  0.4014  0.1559  0.5107
    9MOL    H46 1502   2.544   1.392   3.247 -1.5179  0.1505 -0.3727
    9MOL    C47 1503   2.638   1.168   3.401  0.6165 -0.2371  0.7017
    9MOL    C48 1504   2.574   1.117   3.543 -0.0250 -0.5663 -0.0986
    9MOL    C49 1505   2.427   1.135   3.564 -0.2386  0.2575  0.0421
    9MOL    H50 1506   2.568   1.141   3.322 -0.3335 -0.4258  1.5979
    9MOL    H51 1507   2.725   1.114   3.365  0.2073  0.7798 -1.9394
    9MOL    H52 1508   2.623   1.182   3.616  1.2161  0.0258 -1.4315
    9MOL    H53 1509   2.400   1.232   3.522 -0.2284  1.2135  2.1807
    9MOL    H54 1510   2.367   1.063   3.508 -1.0885  0.3216  0.8513
    9MOL    H55 1511   2.401   1.122   3.669 -1.2013  0.9472 -0.1041
    9MOL    C56 1512   2.632   0.983   3.571  0.2419 -0.1684 -0.7582
    9MOL    C57 1513   2.787   0.976   3.602 -0.7707 -0.3491 -0.0859
    9MOL    C58 1514   2.840   1.059   3.729 -0.4753 -0.1331  0.1764
    9MOL    H59 1515   2.585   0.939   3.659 -1.9968 -1.9240 -2.7551
    9MOL    H60 1516   2.613   0.908   3.494  2.3771  0.7883 -2.2530
    9MOL    H61 1517   2.844   1.030   3.527 -1.1954 -0.4508 -0.4853
    9MOL    H62 1518   2.836   1.024   3.832  0.7396 -1.2010 -0.1258
    9MOL    H63 1519   2.943   1.079   3.700 -0.5223 -0.0695  0.0517
    9MOL    H64 1520   2.794   1.158   3.736 -1.0660 -0.4408  0.6502
    9MOL    C65 1521   2.835   0.833   3.617 -0.2802  0.7674  0.0575
    9MOL    C66 1522   2.828   0.743   3.485  0.4859 -0.5983 -0.5640
    9MOL    C67 1523   2.879   0.824   3.366  1.0427  0.5209 -0.2148
    9MOL    H68 1524   2.942   0.830   3.639 -0.2121  1.1515 -0.2118
    9MOL    H69 1525   2.786   0.779   3.698 -1.5354 -0.5594 -1.5682
    9MOL    H70 1526   2.727   0.708   3.465 -0.8358  1.4895  2.2162
    9MOL    H71 1527   2.978   0.865   3.385  0.9732  0.4219  0.3678
    9MOL    H72 1528   2.899   0.754   3.285  2.9732 -1.0430  1.5538
    9MOL    H73 1529   2.810   0.901   3.332  1.6808  0.7406 -1.0165
    9MOL    C74 1530   2.907   0.613   3.488 -0.4061  0.3055  0.2710
    9MOL    C75 1531   2.880   0.527   3.611  0.1931 -0.3009 -1.2322
    9MOL    C76 1532   2.734   0.487   3.624  0.6401 -0.0374 -0.5730
    9MOL    H77 1533   2.894   0.540   3.408 -0.2232  1.6380 -0.9884
    9MOL    H78 1534   3.014   0.633   3.485 -0.9138  2.8812 -2.4574
    9MOL    H79 1535   2.907   0.590   3.695  0.9966  1.7065 -2.9712
    9MOL    H80 1536   2.708   0.449   3.722  0.6151  0.1723 -0.4987
    9MOL    H81 1537   2.675   0.578   3.615  1.4560  0.7862  1.9953
    9MOL    H82 1538   2.706   0.417   3.545  0.3258 -1.1962  0.5388
    9MOL    C83 1539   2.960   0.394   3.613  0.6387  0.3919 -0.4694
    9MOL    C84 1540   3.114   0.411   3.626  0.3242  0.2548  0.6168
    9MOL    C85 1541   3.166   0.521   3.725  0.3041  0.7019 -0.4342
    9MOL    H86 1542   2.926   0.331   3.695 -0.8589  1.9213  0.1347
    9MOL    H87 1543   2.943   0.339   3.521  0.1530  1.0389 -0.7721
    9MOL    H88 1544   3.155   0.442   3.530 -2.5366  0.1308 -0.7286
    9MOL    H89 1545   3.163   0.623   3.688  0.6626  0.5795 -0.8077
    9MOL    H90 1546   3.125   0.512   3.825  2.1090  1.8926  0.4328
    9MOL    H91 1547   3.274   0.525   3.737  0.2377  0.9889  0.0527
    9MOL    C92 1548   3.168   0.278   3.665  0.9054 -0.1302 -0.2061
    9MOL    C93 1549   3.247   0.208   3.553 -1.3538 -0.2493 -0.0328
    9MOL    C94 1550   3.162   0.155   3.434  0.1540 -0.5930  0.2340
    9MOL    H95 1551   3.232   0.301   3.750  2.5805  0.8958 -1.7078
    9MOL    H96 1552   3.099   0.201   3.698 -0.0154  1.1865  0.9732
    9MOL    H97 1553   3.297   0.120   3.595  1.4481  1.8824  1.2163
    9MOL    H98 1554   3.140   0.218   3.348  2.7074 -0.0601 -0.0838
    9MOL    H99 1555   3.218   0.074   3.387  0.6072 -1.0364  1.5142
    9MOL   H100 1556   3.071   0.105   3.467 -0.4025  0.5761  0.5094
    9MOL   C101 1557   3.370   0.286   3.498  0.9567  0.1926  0.3589
    9MOL   C102 1558   3.485   0.329   3.597 -0.1436 -0.0541 -0.1566
    9MOL   C103 1559   3.544   0.212   3.670  0.4860  0.4716  0.6308
    9MOL   H104 1560   3.417   0.222   3.423  1.4504 -0.1568  0.9605
    9MOL   H105 1561   3.349   0.373   3.435  0.4841  0.5986  1.0695
    9MOL   H106 1562   3.445   0.404   3.665 -3.8940 -1.3035 -0.8403
    9MOL   H107 1563   3.469   0.153   3.722  2.0938 -2.1782  0.0017
    9MOL   H108 1564   3.613   0.144   3.620 -3.0636 -2.2675 -0.7161
    9MOL   H109 1565   3.616   0.249   3.743 -0.6062  1.4808  1.2077
    9MOL   C110 1566   3.598   0.392   3.512 -0.4791 -0.1176  0.4862
    9MOL   C111 1567   3.582   0.539   3.454  0.2058 -0.1614 -0.4549
    9MOL   C112 1568   3.536   0.635   3.566 -0.1253  0.0948 -0.4937
    9MOL   H113 1569   3.694   0.393   3.563 -0.1496 -0.6004 -0.1237
    9MOL   H114 1570   3.606   0.317   3.433 -1.5698  0.8165 -0.5302
    9MOL   H115 1571   3.503   0.540   3.378 -0.3476  1.4411  0.1245
    9MOL   H116 1572   3.570   0.738   3.564  0.3367 -0.0613 -1.1522
    9MOL   H117 1573   3.428   0.643   3.570 -0.3428 -2.7084  0.6610
    9MOL   H118 1574   3.571   0.600   3.663  1.7570  1.2503 -0.7247
    9MOL   C119 1575   3.717   0.583   3.388 -0.6924 -0.2570 -0.1975
    9MOL   C120 1576   3.697   0.670   3.262 -1.1604 -0.4077  1.2058
    9MOL   C121 1577   3.832   0.739   3.243 -0.4961  0.6639 -0.1057
    9MOL   H122 1578   3.791   0.617   3.461 -1.8691  1.2375  0.3392
    9MOL   H123 1579   3.761   0.492   3.349 -0.4263 -0.1583 -0.1340
    9MOL   H124 1580   3.626   0.749   3.286 -2.5673 -0.8430 -1.3011
    9MOL   H125 1581   3.849   0.804   3.329 -1.9481  0.7692  0.1063
    9MOL   H126 1582   3.914   0.667   3.242 -1.9087 -0.9624 -2.1078
    9MOL   H127 1583   3.844   0.798   3.152 -1.1540  0.5793 -0.2509
    9MOL   C128 1584   3.653   0.599   3.133 -0.2133 -0.8088  0.1182
    9MOL   C129 1585   3.625   0.681   3.005  0.1633 -0.5158 -0.3314
    9MOL   C130 1586   3.568   0.579   2.902  0.0344  0.0263 -0.7788
    9MOL   H131 1587   3.732   0.531   3.099 -0.4579  0.1979 -2.5631
    9MOL   H132 1588   3.566   0.537   3.152 -0.3449 -0.6891 -0.1003
    9MOL   H133 1589   3.720   0.723   2.972 -0.5371  1.1042 -0.3424
    9MOL   H134 1590   3.632   0.490   2.901  0.3419  0.2467 -0.9846
    9MOL   H135 1591   3.469   0.541   2.926  0.1150  2.2347  3.5569
    9MOL   H136 1592   3.569   0.625   2.803 -0.1507  1.3127 -0.1961
    9MOL   C137 1593   3.532   0.802   3.036  0.3431 -0.2917  1.1450
    9MOL   C138 1594   3.483   0.884   2.917  0.0435  0.3675  0.6161
    9MOL   C139 1595   3.380   0.992   2.946  0.2849  0.4163  0.2656
    9MOL   H140 1596   3.438   0.780   3.088  0.3716  0.7010  1.6300
    9MOL   H141 1597   3.579   0.862   3.114 -0.4031  0.4747  1.0173
    9MOL   H142 1598   3.439   0.812   2.848 -0.0381 -0.0285  1.0777
    9MOL   H143 1599   3.300   0.956   3.010 -0.0138 -0.2934 -0.4975
    9MOL   H144 1600   3.425   1.085   2.980  2.5522 -0.9117  0.9394
    9MOL   H145 1601   3.332   1.018   2.851 -0.3694 -1.2379  0.1309
    9MOL   C146 1602   3.602   0.950   2.847 -0.4322 -0.0674 -0.1087
    9MOL   C147 1603   3.572   1.013   2.709 -0.4806  0.0432  0.1239
    9MOL   C148 1604   3.711   1.062   2.657  0.4163 -0.1879 -0.5230
    9MOL   H149 1605   3.649   1.025   2.911  2.5502  0.7885 -3.0950
    9MOL   H150 1606   3.682   0.877   2.834  0.5185  1.2905 -2.2651
    9MOL   H151 1607   3.510   1.102   2.720  0.7877  0.9557  0.0878
    9MOL   H152 1608   3.783   0.983   2.636  0.5980 -0.2376  0.2452
    9MOL   H153 1609   3.700   1.106   2.558  1.1829 -1.2173 -1.0772
    9MOL   H154 1610   3.757   1.142   2.716  2.2147 -1.3562 -0.3335
    9MOL   C155 1611   3.511   0.914   2.619  0.3424  0.2088  0.2297
    9MOL   C156 1612   3.493   0.948   2.473  0.1581  0.4390 -0.1401
    9MOL   C157 1613   3.428   0.822   2.414  0.6407 -0.2787  0.3365
    9MOL   H158 1614   3.567   0.821   2.628  2.1137  0.8993 -2.8707
    9MOL   H159 1615   3.408   0.904   2.653 -0.3301  0.1402 -1.7590
    9MOL   H160 1616   3.594   0.953   2.434 -0.1941  1.1848 -0.9718
    9MOL   H161 1617   3.324   0.810   2.444  0.3502  1.5758  0.1645
    9MOL   H162 1618   3.435   0.821   2.305 -2.9918 -2.6277  0.0430
    9MOL   H163 1619   3.477   0.731   2.445  1.7089 -0.3193 -1.3897
    9MOL   C164 1620   3.400   1.068   2.444 -0.3061  0.0696 -0.4265
    9MOL   C165 1621   3.392   1.128   2.304 -0.1793  0.3727  0.5058
    9MOL   C166 1622   3.266   1.217   2.299  0.2608 -0.0388 -0.5916
    9MOL   H167 1623   3.298   1.053   2.482 -0.1974  0.4053 -0.0014
    9MOL   H168 1624   3.433   1.151   2.506 -1.7809 -0.8787  1.7294
    9MOL   H169 1625   3.366   1.046   2.237  0.7241 -0.5944  1.3106
    9MOL   H170 1626   3.173   1.182   2.344  1.5875 -0.9882  1.4768
    9MOL   H171 1627   3.287   1.310   2.352  0.6913 -0.1317 -0.5999
    9MOL   H172 1628   3.235   1.238   2.196  0.6507  1.1403 -0.4737
    9MOL   C173 1629   3.526   1.201   2.267 -0.3820 -0.0047  0.0926
    9MOL   C174 1630   3.519   1.266   2.130  0.2379 -0.3309  0.8902
    9MOL   C175 1631   3.647   1.338   2.084  0.7262 -0.0862 -0.1868
    9MOL   H176 1632   3.554   1.278   2.339  0.3752 -0.1775 -0.0177
    9MOL   H177 1633   3.611   1.134   2.270  1.4779  2.3200  1.0872
    9MOL   H178 1634   3.441   1.342   2.134 -0.8679 -1.3706 -0.3710
    9MOL   H179 1635   3.719   1.281   2.025  1.6879  1.7047 -0.7891
    9MOL   H180 1636   3.617   1.433   2.040  0.3178 -0.7126 -1.2823
    9MOL   H181 1637   3.702   1.361   2.174 -0.7264 -2.2442  1.3027
    9MOL   H182 1638   3.495   1.192   2.053 -1.3928 -1.5866  2.5556
   10MOL     C1 1639   0.326   0.827   5.404  0.7918  0.1944  0.4413
   10MOL     C2 1640   0.405   0.770   5.515  0.0695  0.4747 -0.0764
   10MOL     C3 1641   0.494   0.869   5.596 -0.4116  0.0375  0.2550
   10MOL     H4 1642   0.297   0.757   5.326  1.3848  1.0723 -0.5818
   10MOL     H5 1643   0.398   0.892   5.356 -0.1952  0.7320 -0.3311
   10MOL     H6 1644   0.477   0.712   5.458  0.4220 -0.3748  1.2089
   10MOL     H7 1645   0.561   0.810   5.657 -1.0792 -0.4905  0.4856
   10MOL     H8 1646   0.559   0.922   5.526  0.4434  0.9521  1.7309
   10MOL     H9 1647   0.438   0.943   5.652 -0.9405 -1.1705  1.3476
   10MOL    H10 1648   0.236   0.879   5.437  1.5448  0.9298  1.3745
   10MOL    C11 1649   0.317   0.685   5.607  0.3015  0.0964 -0.3478
   10MOL    C12 1650   0.319   0.533   5.571 -0.3664  0.4351  0.9144
   10MOL    C13 1651   0.448   0.473   5.623  0.8714 -0.2851  0.0430
   10MOL    H14 1652   0.346   0.715   5.708  2.3135 -2.3107 -0.1595
   10MOL    H15 1653   0.215   0.723   5.604  0.0983 -0.4497 -0.4330
   10MOL    H16 1654   0.332   0.535   5.463 -0.4196 -0.4983  0.8926
   10MOL    H17 1655   0.434   0.458   5.730  0.1201 -0.2328 -0.0453
   10MOL    H18 1656   0.470   0.372   5.586  2.1102 -0.1126  0.2913
   10MOL    H19 1657   0.535   0.527   5.586 -0.7722  1.3337 -1.5338
   10MOL    C20 1658   0.199   0.448   5.622 -0.8013 -1.4718  0.1391
   10MOL    C21 1659   0.069   0.466   5.542  0.1618  0.2882  0.1297
   10MOL    C22 1660   0.058   0.362   5.429 -0.0438  0.2421 -0.1238
   10MOL    H23 1661   0.223   0.343   5.605  1.8708 -0.8367 -0.1657
   10MOL    H24 1662   0.185   0.472   5.727 -0.1491  0.3278 -0.1588
   10MOL    H25 1663   0.082   0.566   5.500  1.4187  0.3567  0.6582
   10MOL    H26 1664   0.030   0.272   5.484  0.4203  0.0321 -0.2339
   10MOL    H27 1665   7.671   0.389   5.365 -1.3171 -1.3373  0.8572
   10MOL    H28 1666   0.150   0.358   5.371  1.2391 -0.8579  1.9052
   10MOL    C29 1667   7.642   0.461   5.635  0.0848  0.0076  0.1955
   10MOL    C30 1668   7.503   0.485   5.571 -0.1838  0.4335 -0.1786
   10MOL    C31 1669   7.402   0.463   5.677 -0.0214 -0.7370 -0.2415
   10MOL    H32 1670   7.643   0.365   5.686  1.9423  0.4292  1.0033
   10MOL    H33 1671   7.651   0.535   5.716  0.2407  2.4317 -1.9665
   10MOL    H34 1672   7.479   0.396   5.513 -2.3027  1.2800 -0.6667
   10MOL    H35 1673   7.434   0.513   5.768 -1.3845 -1.4219  0.6212
   10MOL    H36 1674   7.316   0.527   5.658  2.2154  2.6113  0.4605
   10MOL    H37 1675   7.395   0.356   5.699  0.2984 -1.3235 -2.7954
   10MOL    C38 1676   7.497   0.627   5.494 -0.0595 -0.4023  0.3145
   10MOL    C39 1677   7.370   0.632   5.401  0.0420 -0.0375 -0.7199
   10MOL    C40 1678   7.320   0.776   5.375 -0.6019 -1.2973 -0.0005
   10MOL    H41 1679   7.491   0.708   5.567  2.5828  0.2421 -0.1046
   10MOL    H42 1680   7.594   0.635   5.444  0.0371  2.2375  0.8593
   10MOL    H43 1681   7.287   0.574   5.441  0.8793 -0.3107  0.6536
   10MOL    H44 1682   7.305   0.841   5.461 -0.1576 -0.2948 -0.6686
   10MOL    H45 1683   7.380   0.818   5.294  0.8540 -2.9260  0.1968
   10MOL    H46 1684   7.225   0.761   5.325 -1.3237  1.1064  0.5859
   10MOL    C47 1685   7.402   0.569   5.263  0.1585  0.4396 -0.1340
   10MOL    C48 1686   7.292   0.552   5.153  0.1059  0.0897 -0.8511
   10MOL    C49 1687   7.354   0.527   5.014 -0.3463 -0.6807 -0.0043
   10MOL    H50 1688   7.479   0.636   5.226  0.1502  0.0176 -0.9315
   10MOL    H51 1689   7.439   0.467   5.281  0.7154  0.6125 -0.2862
   10MOL    H52 1690   7.246   0.650   5.143  1.0327  0.6024 -0.2201
   10MOL    H53 1691   7.283   0.560   4.938  2.3550 -0.6440 -2.5743
   10MOL    H54 1692   7.442   0.590   5.005 -0.7427 -0.0250  0.6401
   10MOL    H55 1693   7.394   0.427   4.997  1.8072  0.0920  0.3838
   10MOL    C56 1694   7.193   0.437   5.178 -0.1411 -0.0352 -0.1834
   10MOL    C57 1695   7.079   0.441   5.071 -0.0925  0.1391  0.5289
   10MOL    C58 1696   7.032   0.299   5.035  0.6811  0.5362 -0.1967
   10MOL    H59 1697   7.259   0.352   5.164 -3.1520 -2.1769 -1.9929
   10MOL    H60 1698   7.148   0.445   5.277  0.0136  0.6920 -0.1653
   10MOL    H61 1699   7.106   0.478   4.972  0.2038  0.8111  0.8601
   10MOL    H62 1700   6.974   0.256   5.117 -2.5122  1.8877 -1.6857
   10MOL    H63 1701   6.970   0.287   4.947  2.0248  1.0581 -1.2288
   10MOL    H64 1702   7.114   0.231   5.013  0.9829  1.0724 -0.7502
   10MOL    C65 1703   6.959   0.526   5.119 -0.4012 -0.1365 -0.1537
   10MOL    C66 1704   6.895   0.619   5.016  0.7819 -0.0294 -0.2288
   10MOL    C67 1705   6.744   0.633   5.034  0.0210  0.1026 -0.4909
   10MOL    H68 1706   6.886   0.456   5.160 -2.8136  1.9921 -0.6125
   10MOL    H69 1707   6.976   0.579   5.213  1.4419 -0.3773 -0.3384
   10MOL    H70 1708   6.901   0.571   4.918 -1.9255 -0.4826 -0.2061
   10MOL    H71 1709   6.698   0.535   5.041  0.4682 -0.1479 -1.0183
   10MOL    H72 1710   6.717   0.682   5.127  2.3524  0.0290  0.2672
   10MOL    H73 1711   6.699   0.678   4.945  2.0209 -1.4721 -2.3727
   10MOL    C74 1712   6.968   0.750   5.010 -0.0870 -0.6285  0.2636
   10MOL    C75 1713   6.977   0.830   4.881  0.0973 -0.2755 -0.6528
   10MOL    C76 1714   6.856   0.830   4.780  0.2180 -0.2989  0.5484
   10MOL    H77 1715   6.911   0.809   5.083  1.1427  0.1304  0.6353
   10MOL    H78 1716   7.073   0.742   5.037 -0.0375  1.5724  0.8717
   10MOL    H79 1717   7.059   0.793   4.820  0.1919 -1.2196  0.0435
   10MOL    H80 1718   6.766   0.849   4.837  1.3083  1.7187  1.6261
   10MOL    H81 1719   6.862   0.910   4.706 -1.6218  0.1873  0.8985
   10MOL    H82 1720   6.825   0.739   4.728 -0.6814  0.1069  0.3741
   10MOL    C83 1721   7.009   0.980   4.920  0.4534 -0.9533  0.1800
   10MOL    C84 1722   7.130   1.009   5.010 -0.6478 -0.1689  0.1071
   10MOL    C85 1723   7.261   0.953   4.962  0.1608  0.6625 -0.2418
   10MOL    H86 1724   7.017   1.037   4.828  2.0552  0.0895  0.9502
   10MOL    H87 1725   6.910   1.015   4.951 -0.9156 -0.6992 -4.1448
   10MOL    H88 1726   7.116   0.970   5.111  0.3059  2.1372  1.1673
   10MOL    H89 1727   7.282   0.997   4.864  0.3872  2.4924  0.6122
   10MOL    H90 1728   7.343   0.988   5.024  0.7534 -0.0427 -0.6214
   10MOL    H91 1729   7.259   0.845   4.951 -3.1144  0.5408  0.9468
   10MOL    C92 1730   7.148   1.159   5.040 -0.4146  0.3012  0.4815
   10MOL    C93 1731   7.025   1.229   5.109 -0.2331 -0.7775 -0.1945
   10MOL    C94 1732   6.971   1.142   5.226 -0.5510  0.5981 -0.0391
   10MOL    H95 1733   7.240   1.173   5.098  1.1004 -1.0663 -1.5406
   10MOL    H96 1734   7.179   1.208   4.948 -1.9958 -1.7646 -1.1754
   10MOL    H97 1735   6.949   1.234   5.032 -1.2803 -1.6122  0.7731
   10MOL    H98 1736   7.049   1.131   5.301  0.3123  1.2449 -0.8332
   10MOL    H99 1737   6.887   1.194   5.270  0.5282  1.2818  1.2501
   10MOL   H100 1738   6.935   1.043   5.196 -1.0315  0.0397  2.2684
   10MOL   C101 1739   7.063   1.369   5.162 -0.1166 -0.3407  0.5460
   10MOL   C102 1740   7.098   1.476   5.055  0.0869  0.7030 -0.3272
   10MOL   C103 1741   6.997   1.473   4.935 -0.3458 -0.3482 -0.2089
   10MOL   H104 1742   6.985   1.402   5.230 -2.6628 -0.8643 -2.0406
   10MOL   H105 1743   7.138   1.350   5.239 -0.9040 -0.4513  1.2947
   10MOL   H106 1744   7.198   1.449   5.020 -0.1634  0.4468 -0.8518
   10MOL   H107 1745   6.903   1.457   4.988  0.2108 -0.5843  0.7146
   10MOL   H108 1746   6.997   1.567   4.880  0.7517  0.1063  0.5424
   10MOL   H109 1747   7.017   1.409   4.849  0.9187 -0.6884  0.3293
   10MOL   C110 1748   7.102   1.613   5.126 -0.3894 -0.0269 -0.6136
   10MOL   C111 1749   7.200   1.634   5.245 -1.2339  0.6979 -0.1569
   10MOL   C112 1750   7.345   1.631   5.194 -0.6471  0.0490  0.2928
   10MOL   H113 1751   7.133   1.693   5.058  2.7462 -0.2114  0.5249
   10MOL   H114 1752   6.999   1.632   5.156 -0.0405  2.6902 -1.0053
   10MOL   H115 1753   7.198   1.543   5.305  2.1298 -0.6279 -1.9049
   10MOL   H116 1754   7.411   1.641   5.280 -1.9379 -0.1699  1.3183
   10MOL   H117 1755   7.365   1.542   5.135  0.0572 -0.8212  1.8307
   10MOL   H118 1756   7.367   1.712   5.125 -0.7630  1.7044  2.1364
   10MOL   C119 1757   7.164   1.762   5.324 -0.8199 -0.0143 -0.0487
   10MOL   C120 1758   7.039   1.768   5.410  0.1091  0.0503  0.3311
   10MOL   C121 1759   7.051   1.678   5.531 -0.3383  0.1373 -0.7848
   10MOL   H122 1760   7.241   1.779   5.399 -0.7406 -0.2731 -0.0685
   10MOL   H123 1761   7.182   1.849   5.262  0.7623  0.5685  1.1918
   10MOL   H124 1762   6.955   1.725   5.356 -1.1462  0.3879  1.9658
   10MOL   H125 1763   7.073   1.575   5.507 -1.4296 -0.1729 -0.4951
   10MOL   H126 1764   7.125   1.711   5.604  0.1659  0.9131 -1.6386
   10MOL   H127 1765   6.958   1.662   5.587  1.3211 -2.6683  1.2711
   10MOL   C128 1766   6.996   1.910   5.448  0.0582  0.3560 -0.3298
   10MOL   C129 1767   6.970   2.005   5.332 -0.0940 -0.3383 -0.3334
   10MOL   C130 1768   6.865   1.939   5.233  0.0476 -0.8286  0.1337
   10MOL   H131 1769   6.906   1.903   5.509  0.5702 -1.9026  0.2067
   10MOL   H132 1770   7.070   1.956   5.514 -0.0938 -0.6755  0.5668
   10MOL   H133 1771   7.067   2.031   5.289  0.0402  1.6428  1.0867
   10MOL   H134 1772   6.903   1.849   5.185  0.6508  0.1560 -1.2614
   10MOL   H135 1773   6.782   1.891   5.286  1.0755 -1.8497  0.8410
   10MOL   H136 1774   6.826   2.007   5.157  1.5460 -0.3032 -0.1662
   10MOL   C137 1775   6.903   2.136   5.385  0.0749 -0.4818  0.1935
   10MOL   C138 1776   6.996   2.259   5.387 -0.4692 -0.1315  0.4852
   10MOL   C139 1777   6.906   2.379   5.395 -0.5590  0.1929 -0.2427
   10MOL   H140 1778   6.823   2.165   5.317  1.1849  2.3167  0.0065
   10MOL   H141 1779   6.858   2.113   5.482  0.4707 -2.0365  0.0189
   10MOL   H142 1780   7.065   2.261   5.303 -0.1349  1.7836  0.7622
   10MOL   H143 1781   6.968   2.467   5.378 -1.3739  0.4810 -1.7930
   10MOL   H144 1782   6.824   2.387   5.324  1.5054  1.5787 -2.5666
   10MOL   H145 1783   6.847   2.381   5.486 -0.2430  0.5737 -0.0467
   10MOL   C146 1784   7.093   2.243   5.501  0.2056  0.3851 -0.0482
   10MOL   C147 1785   7.193   2.356   5.521 -0.8169 -0.8006 -0.8912
   10MOL   C148 1786   7.145   2.461   5.627  0.4841  0.5895 -0.4438
   10MOL   H149 1787   7.048   2.228   5.600  2.1223 -0.5298  0.7131
   10MOL   H150 1788   7.153   2.153   5.489 -2.0568 -1.0336 -1.0750
   10MOL   H151 1789   7.196   2.412   5.427  1.0063 -0.6499 -0.7607
   10MOL   H152 1790   7.050   2.506   5.599  0.2371  0.9329  0.8854
   10MOL   H153 1791   7.127   2.421   5.727  0.3708 -1.3879 -1.2544
   10MOL   H154 1792   7.223   2.537   5.638  0.0098  0.8825  1.0831
   10MOL   C155 1793   7.339   2.312   5.553 -0.9001 -0.4575 -0.0481
   10MOL   C156 1794   7.449   2.378   5.460 -0.8207  0.9861  0.1948
   10MOL   C157 1795   7.570   2.447   5.531  0.2798 -0.1696 -0.9032
   10MOL   H158 1796   7.356   2.347   5.655  0.2172  0.1226 -0.4187
   10MOL   H159 1797   7.349   2.206   5.577 -0.2983 -0.0680  1.5059
   10MOL   H160 1798   7.407   2.457   5.398  0.4450 -0.2402 -2.2980
   10MOL   H161 1799   7.641   2.484   5.457 -0.5766 -0.8230 -2.0779
   10MOL   H162 1800   7.532   2.539   5.575 -0.6796 -0.3870 -1.2561
   10MOL   H163 1801   7.628   2.380   5.594  1.6183  0.3925 -1.5266
   10MOL   C164 1802   7.507   2.277   5.365  0.9708 -0.5043 -0.3001
   10MOL   C165 1803   7.394   2.222   5.275 -0.5808  0.4181  0.1043
   10MOL   C166 1804   7.355   2.318   5.163 -0.3569 -0.1000  0.7828
   10MOL   H167 1805   7.585   2.323   5.305  0.5852 -0.0590 -0.4663
   10MOL   H168 1806   7.557   2.196   5.416 -0.3958 -0.3047  1.3901
   10MOL   H169 1807   7.307   2.198   5.336  0.9647  0.6302  2.4126
   10MOL   H170 1808   7.439   2.378   5.129  1.2380 -1.9157  1.4331
   10MOL   H171 1809   7.299   2.258   5.091  1.2225 -2.1707  1.2471
   10MOL   H172 1810   7.285   2.397   5.190  0.8418  1.7629 -1.4411
   10MOL   C173 1811   7.432   2.083   5.209  0.7234 -0.0322  0.8300
   10MOL   C174 1812   7.529   2.087   5.088  0.6359 -0.7279 -1.5687
   10MOL   C175 1813   7.560   1.946   5.029  0.2147 -0.1829 -1.3023
   10MOL   H176 1814   7.466   2.018   5.290 -1.0752 -1.1132  0.7416
   10MOL   H177 1815   7.340   2.032   5.179  0.8623  0.7763 -1.0155
   10MOL   H178 1816   7.625   2.130   5.118  0.3091 -0.2507 -1.1977
   10MOL   H179 1817   7.583   1.872   5.106 -0.5485  0.6127 -0.2911
   10MOL   H180 1818   7.464   1.911   4.992 -0.6612  1.4238 -0.5563
   10MOL   H181 1819   7.625   1.945   4.942  2.3271 -0.8320  0.2243
   10MOL   H182 1820   7.491   2.139   5.000  1.5640 -0.2240 -1.6759
   11MOL     C1 1821   2.557   4.992   6.342  0.5632  1.0794 -0.3535
   11MOL     C2 1822   2.575   4.853   6.414  0.1265  0.9940  0.4004
   11MOL     C3 1823   2.499   4.853   6.541 -0.2133 -0.2566  0.7285
   11MOL     H4 1824   2.464   4.997   6.285 -0.6638 -1.4075  1.3354
   11MOL     H5 1825   2.641   5.001   6.272  2.3845  1.4143  1.8214
   11MOL     H6 1826   2.681   4.860   6.440  1.1689 -0.8300 -3.0184
   11MOL     H7 1827   2.527   4.765   6.600  0.7969  0.2922  1.0655
   11MOL     H8 1828   2.519   4.929   6.616  5.2580 -1.3611  0.5980
   11MOL     H9 1829   2.392   4.839   6.524 -0.4705  0.3045  1.8512
   11MOL    H10 1830   2.558   5.076   6.410  1.7036 -0.0404  1.0544
   11MOL    C11 1831   2.541   4.739   6.318  0.4096 -0.1025 -0.6356
   11MOL    C12 1832   2.573   4.599   6.363  0.2051  0.3493 -0.1814
   11MOL    C13 1833   2.489   4.499   6.287 -0.5067  0.0260  0.1066
   11MOL    H14 1834   2.434   4.749   6.299  0.3571  1.7455  0.5219
   11MOL    H15 1835   2.582   4.746   6.218  0.4759 -1.7913 -0.7387
   11MOL    H16 1836   2.524   4.583   6.459 -1.4641 -0.8074 -1.1931
   11MOL    H17 1837   2.503   4.395   6.315 -0.9208  0.3430  1.5970
   11MOL    H18 1838   2.383   4.525   6.281 -0.4844 -0.1267 -0.8955
   11MOL    H19 1839   2.530   4.499   6.186 -0.7510  0.4331  0.0057
   11MOL    C20 1840   2.720   4.570   6.348 -0.4720  0.1825 -0.8929
   11MOL    C21 1841   2.778   4.444   6.414  0.0690 -0.0979 -0.1711
   11MOL    C22 1842   2.922   4.426   6.346  0.0697 -0.0110  0.0604
   11MOL    H23 1843   2.743   4.568   6.242 -1.7108 -3.0125 -1.1315
   11MOL    H24 1844   2.777   4.651   6.394  0.4831 -1.2623  0.4959
   11MOL    H25 1845   2.715   4.365   6.374  0.4123 -0.4200 -0.0777
   11MOL    H26 1846   2.918   4.400   6.241 -0.0830 -0.1366  0.0972
   11MOL    H27 1847   2.981   4.518   6.351  1.4474 -0.9567  2.0237
   11MOL    H28 1848   2.978   4.348   6.397 -0.9066 -0.9649 -0.3305
   11MOL    C29 1849   2.794   4.456   6.569 -0.6835  0.0330 -0.6159
   11MOL    C30 1850   2.721   4.342   6.644 -0.8690 -0.0023  0.3845
   11MOL    C31 1851   2.576   4.322   6.596  0.1381  0.4614 -0.5490
   11MOL    H32 1852   2.897   4.460   6.606 -0.8304 -0.1583 -0.1798
   11MOL    H33 1853   2.762   4.552   6.610 -0.7703 -1.3985  2.8899
   11MOL    H34 1854   2.712   4.354   6.752  0.5605  0.8000  0.4201
   11MOL    H35 1855   2.522   4.413   6.624 -1.8361 -0.3726 -1.6130
   11MOL    H36 1856   2.566   4.297   6.491  0.8120 -0.8664 -0.2999
   11MOL    H37 1857   2.525   4.240   6.646  0.8752  1.0932  1.2831
   11MOL    C38 1858   2.799   4.205   6.620 -0.2132  0.5350  0.6546
   11MOL    C39 1859   2.935   4.192   6.690 -0.4197 -0.4616  0.4178
   11MOL    C40 1860   2.931   4.209   6.843  0.0224 -0.9887  0.7469
   11MOL    H41 1861   2.740   4.117   6.644 -0.0901  1.1146  3.2979
   11MOL    H42 1862   2.820   4.195   6.514  2.6457  3.0985  0.9089
   11MOL    H43 1863   2.999   4.276   6.662  1.0330 -1.1763  1.5307
   11MOL    H44 1864   2.893   4.305   6.879 -0.3165 -1.1417  0.7923
   11MOL    H45 1865   2.855   4.140   6.878 -0.4640 -0.1422  1.3708
   11MOL    H46 1866   3.011   4.171   6.907 -0.2981 -3.0903 -0.0608
   11MOL    C47 1867   3.000   4.055   6.659 -0.4096 -0.6682 -0.5841
   11MOL    C48 1868   3.151   4.059   6.655 -0.1234  0.1857 -0.0520
   11MOL    C49 1869   3.210   3.929   6.624 -0.4635 -0.0191 -0.3258
   11MOL    H50 1870   2.956   3.985   6.729  0.9391 -0.1699  0.7955
   11MOL    H51 1871   2.968   4.021   6.560 -1.3504  0.5863 -0.7257
   11MOL    H52 1872   3.180   4.085   6.757  1.6862 -2.1363  0.0649
   11MOL    H53 1873   3.166   3.881   6.536 -1.3089 -1.4956  0.8839
   11MOL    H54 1874   3.318   3.939   6.608  0.1941 -1.0706  3.0799
   11MOL    H55 1875   3.198   3.858   6.706 -0.4793 -0.6228 -0.8419
   11MOL    C56 1876   3.196   4.168   6.548 -0.3001 -0.3853 -0.2885
   11MOL    C57 1877   3.316   4.256   6.587  0.1596  0.5759 -0.1836
   11MOL    C58 1878   3.356   4.344   6.469 -0.9227  0.0647  0.2887
   11MOL    H59 1879   3.220   4.122   6.452  1.0646  0.6313 -0.4502
   11MOL    H60 1880   3.117   4.233   6.511 -1.2219 -0.8765  0.7724
   11MOL    H61 1881   3.393   4.184   6.612 -1.5033 -1.3753 -0.4922
   11MOL    H62 1882   3.393   4.277   6.391  1.8031  2.4434 -0.5623
   11MOL    H63 1883   3.276   4.404   6.425  0.5423  0.4504 -1.9154
   11MOL    H64 1884   3.442   4.406   6.493 -1.1150  0.8253 -0.9242
   11MOL    C65 1885   3.303   4.340   6.720  0.1153  0.5139  0.3807
   11MOL    C66 1886   3.439   4.392   6.775  0.5651  0.4222  0.0358
   11MOL    C67 1887   3.427   4.525   6.846  0.3318  0.2590 -0.1085
   11MOL    H68 1888   3.233   4.423   6.709  1.1132  1.2095 -0.8582
   11MOL    H69 1889   3.249   4.286   6.798  1.0781  0.8412  1.2880
   11MOL    H70 1890   3.489   4.420   6.683 -0.1652  1.6421  0.0030
   11MOL    H71 1891   3.520   4.553   6.895 -0.3629  3.1471 -0.3593
   11MOL    H72 1892   3.408   4.596   6.765 -0.7954 -1.0705 -1.0275
   11MOL    H73 1893   3.340   4.527   6.912  1.6802  3.3656  1.6691
   11MOL    C74 1894   3.518   4.289   6.859  0.2801  0.1170  0.2763
   11MOL    C75 1895   3.645   4.236   6.789  0.0101  0.2494 -0.4241
   11MOL    C76 1896   3.750   4.354   6.790 -0.0589  0.4577  0.2760
   11MOL    H77 1897   3.532   4.310   6.965  0.5825 -0.7796  0.4189
   11MOL    H78 1898   3.461   4.197   6.867  0.2515  0.1280  0.2034
   11MOL    H79 1899   3.623   4.219   6.684 -2.0588  1.5619 -0.2276
   11MOL    H80 1900   3.819   4.337   6.707 -0.3363  2.8517 -0.5025
   11MOL    H81 1901   3.704   4.453   6.780 -0.9473 -0.1059 -1.5824
   11MOL    H82 1902   3.810   4.362   6.880  0.4637 -1.2824  0.1083
   11MOL    C83 1903   3.706   4.112   6.851 -0.1850 -0.2135  0.0919
   11MOL    C84 1904   3.630   3.984   6.812 -0.4355  0.1663  0.4166
   11MOL    C85 1905   3.651   3.941   6.666  0.2021  0.8582 -0.1455
   11MOL    H86 1906   3.801   4.093   6.801 -0.2401  1.1045 -0.5170
   11MOL    H87 1907   3.715   4.124   6.959 -1.2434 -3.5213  0.6031
   11MOL    H88 1908   3.523   3.998   6.831 -0.4275 -1.3029  1.6689
   11MOL    H89 1909   3.626   4.015   6.589 -1.0480  1.2018  0.5652
   11MOL    H90 1910   3.745   3.889   6.647 -0.1205 -0.2020  1.1107
   11MOL    H91 1911   3.578   3.864   6.640 -1.0927  2.2423 -0.7128
   11MOL    C92 1912   3.673   3.861   6.904 -0.3264 -0.1752  0.4241
   11MOL    C93 1913   3.621   3.721   6.875  0.0462  0.0043 -0.0010
   11MOL    C94 1914   3.698   3.620   6.964 -0.2218 -0.0766 -0.2807
   11MOL    H95 1915   3.781   3.849   6.906 -0.0569  2.0252 -0.2301
   11MOL    H96 1916   3.646   3.899   7.003 -2.2310  1.7655 -0.7932
   11MOL    H97 1917   3.640   3.686   6.774  0.1933 -0.3207  0.1372
   11MOL    H98 1918   3.697   3.651   7.069  1.0255 -0.4269 -0.1654
   11MOL    H99 1919   3.657   3.519   6.964  1.2467 -0.6905  0.1930
   11MOL   H100 1920   3.803   3.631   6.937 -0.1302 -0.0463  0.0841
   11MOL   C101 1921   3.467   3.719   6.905  0.3088 -0.1282 -0.0412
   11MOL   C102 1922   3.395   3.579   6.897  0.1443 -0.6206  0.1564
   11MOL   C103 1923   3.240   3.581   6.930  0.7433  0.3160 -0.4657
   11MOL   H104 1924   3.456   3.756   7.007 -0.7261  0.3917 -0.3317
   11MOL   H105 1925   3.411   3.789   6.844  0.5187 -1.1890 -1.4745
   11MOL   H106 1926   3.447   3.512   6.966  2.3898 -0.7027 -1.5593
   11MOL   H107 1927   3.210   3.478   6.949  0.0751  0.9195  1.9421
   11MOL   H108 1928   3.226   3.628   7.027 -0.0612 -0.3506 -0.2485
   11MOL   H109 1929   3.174   3.634   6.862 -3.2569 -1.0834  2.1463
   11MOL   C110 1930   3.422   3.508   6.753 -0.2742 -0.5876 -0.4525
   11MOL   C111 1931   3.352   3.373   6.726 -0.6037  0.1414 -0.7649
   11MOL   C112 1932   3.377   3.321   6.587  0.8915  0.0988 -0.1849
   11MOL   H113 1933   3.396   3.579   6.674  2.3660  1.2018  0.2258
   11MOL   H114 1934   3.528   3.497   6.733 -0.2652  0.2644 -0.9047
   11MOL   H115 1935   3.251   3.415   6.735 -0.3057  0.5543  0.7667
   11MOL   H116 1936   3.479   3.288   6.571  1.2960  0.5109  1.4459
   11MOL   H117 1937   3.312   3.234   6.586 -0.2002  0.8701  1.1029
   11MOL   H118 1938   3.351   3.396   6.513  0.9050  0.9990  0.7018
   11MOL   C119 1939   3.392   3.268   6.833 -0.2113 -0.8667  0.2226
   11MOL   C120 1940   3.290   3.163   6.878 -0.0579 -0.5246 -0.0066
   11MOL   C121 1941   3.249   3.060   6.779 -0.1393 -1.0385 -0.4993
   11MOL   H122 1942   3.493   3.231   6.819  0.7302  1.0339  1.6134
   11MOL   H123 1943   3.408   3.326   6.924 -0.1482 -0.7183  0.1179
   11MOL   H124 1944   3.203   3.215   6.917  0.2042 -1.3848  1.7896
   11MOL   H125 1945   3.205   2.967   6.815 -0.9053 -0.3704  0.3136
   11MOL   H126 1946   3.162   3.088   6.719  0.5215  1.1907 -0.4638
   11MOL   H127 1947   3.321   3.023   6.706  1.6405  0.4165  0.4727
   11MOL   C128 1948   3.366   3.086   6.994  0.4838  0.3210 -0.4597
   11MOL   C129 1949   3.292   3.062   7.126 -0.1290  0.1763  0.2413
   11MOL   C130 1950   3.276   3.194   7.204 -0.4229  0.5022 -0.2485
   11MOL   H131 1951   3.393   2.981   6.976 -0.3218  0.0964 -0.3570
   11MOL   H132 1952   3.458   3.134   7.028  0.3548 -0.0541  0.4532
   11MOL   H133 1953   3.367   3.007   7.183  0.2815  0.9149  0.4217
   11MOL   H134 1954   3.181   3.244   7.184 -0.3028  0.8107 -0.0501
   11MOL   H135 1955   3.282   3.167   7.309 -0.9686 -3.4088 -1.1461
   11MOL   H136 1956   3.362   3.261   7.199  0.3337 -0.3986  0.5340
   11MOL   C137 1957   3.164   2.977   7.128  0.2545 -0.3635  0.3623
   11MOL   C138 1958   3.188   2.843   7.200 -0.7383 -0.3905  0.2941
   11MOL   C139 1959   3.191   2.870   7.353  0.2952  0.5717  0.0948
   11MOL   H140 1960   3.086   3.025   7.187 -0.4141 -1.5737  0.4908
   11MOL   H141 1961   3.118   2.980   7.030 -1.4456 -1.1368  1.1168
   11MOL   H142 1962   3.281   2.793   7.175  0.3250  1.9516 -0.6161
   11MOL   H143 1963   3.254   2.953   7.387 -0.6408  1.3334 -0.0234
   11MOL   H144 1964   3.095   2.897   7.396 -0.5664 -0.1560 -1.3457
   11MOL   H145 1965   3.223   2.778   7.402 -2.9730 -1.8892 -2.2237
   11MOL   C146 1966   3.073   2.739   7.165 -0.4830 -0.0527  0.3355
   11MOL   C147 1967   3.114   2.590   7.151 -0.1270 -0.6214  0.6630
   11MOL   C148 1968   2.987   2.507   7.128  0.2641 -0.3361 -0.2884
   11MOL   H149 1969   2.994   2.743   7.241 -0.5073 -1.4187  0.4036
   11MOL   H150 1970   3.010   2.761   7.079 -2.0065 -1.9622  0.9247
   11MOL   H151 1971   3.168   2.570   7.243 -0.7102 -0.5564  1.0266
   11MOL   H152 1972   2.925   2.535   7.042 -0.0082  1.7715  0.5707
   11MOL   H153 1973   3.013   2.403   7.110 -1.2539 -0.2800 -3.0781
   11MOL   H154 1974   2.920   2.508   7.214 -2.4572  0.7579 -2.3346
   11MOL   C155 1975   3.222   2.562   7.039  0.6603  0.2332  0.8549
   11MOL   C156 1976   3.348   2.485   7.078  0.1977  0.8374 -0.6764
   11MOL   C157 1977   3.446   2.563   7.171  0.0424 -0.1463 -0.4997
   11MOL   H158 1978   3.176   2.501   6.962  0.8194  1.9226 -0.6242
   11MOL   H159 1979   3.254   2.653   6.988 -0.9689  0.8267  0.8767
   11MOL   H160 1980   3.404   2.475   6.986  1.4515 -1.7525  0.3270
   11MOL   H161 1981   3.540   2.510   7.188 -1.3571 -1.7612  2.5785
   11MOL   H162 1982   3.458   2.663   7.129 -0.4739 -0.0284 -0.3691
   11MOL   H163 1983   3.402   2.560   7.271 -2.8415 -3.3864 -1.8169
   11MOL   C164 1984   3.337   2.342   7.138  0.4501  0.2709  0.3789
   11MOL   C165 1985   3.277   2.236   7.036 -0.1086  0.0939  0.3176
   11MOL   C166 1986   3.378   2.201   6.924 -0.6722 -0.0186  0.3472
   11MOL   H167 1987   3.432   2.304   7.173  1.5515 -0.0790 -2.7878
   11MOL   H168 1988   3.275   2.343   7.227 -2.5331  1.4304 -1.6227
   11MOL   H169 1989   3.197   2.282   6.979 -0.6345 -0.0631  0.9156
   11MOL   H170 1990   3.336   2.126   6.856 -0.1428 -1.2468  1.3635
   11MOL   H171 1991   3.421   2.284   6.867  0.9119 -0.3443  1.0479
   11MOL   H172 1992   3.464   2.145   6.959 -1.1389  0.1948  1.8752
   11MOL   C173 1993   3.218   2.118   7.112 -0.6423 -0.6994  0.0068
   11MOL   C174 1994   3.086   2.144   7.188 -0.0446 -0.4172  0.1071
   11MOL   C175 1995   3.019   2.020   7.248 -0.2962 -0.3715 -0.0584
   11MOL   H176 1996   3.193   2.041   7.039  0.3117 -0.9223 -0.0887
   11MOL   H177 1997   3.298   2.075   7.173  0.2493  1.8463  0.6853
   11MOL   H178 1998   3.014   2.171   7.111 -0.8608  0.3864  1.1353
   11MOL   H179 1999   2.924   2.051   7.291  0.1638 -0.0719  0.7413
   11MOL   H180 2000   2.993   1.947   7.171  0.0216  0.5314 -1.0257
   11MOL   H181 2001   3.083   1.967   7.319  0.0636 -0.0488 -0.1434
   11MOL   H182 2002   3.089   2.223   7.263 -0.3880 -0.6426  0.3590
   12MOL     C1 2003   6.634   2.879   6.822  0.3906 -0.3705  0.2310
   12MOL     C2 2004   6.528   2.923   6.723  0.6610 -0.5259  0.1501
   12MOL     C3 2005   6.389   2.869   6.758  0.3060  0.2074 -0.3613
   12MOL     H4 2006   6.638   2.771   6.841  0.3680 -0.9750 -2.9458
   12MOL     H5 2007   6.624   2.941   6.911 -0.7073 -0.1638 -0.0351
   12MOL     H6 2008   6.556   2.881   6.626  0.1619 -0.5015 -0.0036
   12MOL     H7 2009   6.356   2.931   6.841 -0.0789 -2.7834  1.8034
   12MOL     H8 2010   6.327   2.888   6.671  2.2668 -1.0310 -2.0870
   12MOL     H9 2011   6.375   2.768   6.795  0.4803  0.9896  1.9574
   12MOL    H10 2012   6.738   2.902   6.798  0.1198  0.7172  0.0830
   12MOL    C11 2013   6.526   3.078   6.696 -0.4030 -0.4632  0.0668
   12MOL    C12 2014   6.662   3.141   6.662  0.0647  0.2568  0.4274
   12MOL    C13 2015   6.733   3.076   6.540  0.4040  0.4296  0.2990
   12MOL    H14 2016   6.469   3.088   6.603  1.4435 -1.4188 -1.2218
   12MOL    H15 2017   6.489   3.137   6.780 -0.3179  1.8561 -1.4706
   12MOL    H16 2018   6.730   3.125   6.746  0.5144 -1.7617 -0.2844
   12MOL    H17 2019   6.750   2.968   6.542  1.8401  0.6361  0.1722
   12MOL    H18 2020   6.670   3.099   6.455 -0.3393 -1.1805  0.3991
   12MOL    H19 2021   6.831   3.119   6.517  0.6526 -0.2806  0.0132
   12MOL    C20 2022   6.648   3.289   6.635  0.4988 -0.1864 -0.3922
   12MOL    C21 2023   6.588   3.383   6.747 -0.2106  0.1006  0.5874
   12MOL    C22 2024   6.641   3.355   6.888 -0.4876  0.2692  0.2965
   12MOL    H23 2025   6.749   3.329   6.622  1.0095 -0.3119  2.7401
   12MOL    H24 2026   6.583   3.297   6.548 -0.4850  1.3358  0.4522
   12MOL    H25 2027   6.480   3.366   6.744 -0.0253 -1.2501  1.5171
   12MOL    H26 2028   6.597   3.415   6.967 -1.0854  0.3374 -0.0805
   12MOL    H27 2029   6.645   3.249   6.911  2.6166  0.4846  0.9097
   12MOL    H28 2030   6.746   3.383   6.882 -0.0773 -1.3315 -0.3422
   12MOL    C29 2031   6.604   3.527   6.718  0.4266 -0.4188 -0.5432
   12MOL    C30 2032   6.525   3.581   6.600  0.1442 -0.4307  0.2055
   12MOL    C31 2033   6.395   3.646   6.645 -0.1684 -0.8350  0.3387
   12MOL    H32 2034   6.569   3.574   6.810  1.6049 -1.0020  0.2096
   12MOL    H33 2035   6.703   3.571   6.709 -0.3418  0.9221 -2.9889
   12MOL    H34 2036   6.494   3.499   6.535  2.0908  0.2389 -1.6226
   12MOL    H35 2037   6.404   3.736   6.707  3.5120 -0.0967 -1.1357
   12MOL    H36 2038   6.333   3.695   6.570 -0.2505  1.6748  1.9522
   12MOL    H37 2039   6.336   3.566   6.688  0.3854 -3.2619 -3.2410
   12MOL    C38 2040   6.612   3.671   6.506 -0.1549  0.6753 -0.1286
   12MOL    C39 2041   6.730   3.588   6.433 -0.5514  0.1038  0.0122
   12MOL    C40 2042   6.685   3.497   6.310  0.5155  0.5343  0.3071
   12MOL    H41 2043   6.549   3.715   6.428  0.5845 -0.6003 -1.4754
   12MOL    H42 2044   6.648   3.752   6.570 -3.2822 -0.3161  3.0677
   12MOL    H43 2045   6.779   3.523   6.505  0.6706 -1.4043 -2.0967
   12MOL    H44 2046   6.651   3.569   6.236  0.3031  2.2393  2.0079
   12MOL    H45 2047   6.767   3.446   6.260 -0.6056  0.9932 -2.0708
   12MOL    H46 2048   6.611   3.422   6.338 -0.8942  1.2682 -1.4088
   12MOL    C47 2049   6.831   3.683   6.376  0.1293  0.0608  0.8622
   12MOL    C48 2050   6.895   3.799   6.460 -0.3633 -0.6238 -0.2482
   12MOL    C49 2051   6.946   3.736   6.591 -0.6105 -0.6153 -0.3653
   12MOL    H50 2052   6.914   3.622   6.338 -0.5431 -1.5242  1.8821
   12MOL    H51 2053   6.783   3.730   6.291 -0.7634 -0.7035  0.9387
   12MOL    H52 2054   6.811   3.867   6.475  0.2662  0.3191 -0.9623
   12MOL    H53 2055   6.858   3.705   6.648 -0.6927  0.6133  0.1906
   12MOL    H54 2056   7.000   3.643   6.574  0.0934 -0.6924  2.0791
   12MOL    H55 2057   7.002   3.803   6.656 -2.5793 -1.3454  2.2071
   12MOL    C56 2058   7.011   3.876   6.389  0.2338 -0.0548 -0.0136
   12MOL    C57 2059   7.079   3.989   6.476 -0.3775  0.3599  0.0283
   12MOL    C58 2060   7.210   3.937   6.551  0.6106  0.0147 -0.2578
   12MOL    H59 2061   7.087   3.801   6.364  0.8093 -0.4139  2.7195
   12MOL    H60 2062   6.964   3.929   6.306 -0.6552 -0.9350 -0.0808
   12MOL    H61 2063   7.007   4.018   6.552 -0.4868 -1.5296  0.6701
   12MOL    H62 2064   7.280   3.907   6.474 -1.0598 -0.3442 -1.6762
   12MOL    H63 2065   7.247   4.017   6.615  0.4364  1.0733 -1.4493
   12MOL    H64 2066   7.190   3.849   6.613  0.7547  0.8512  0.9874
   12MOL    C65 2067   7.114   4.118   6.387 -0.3238  0.0726 -0.2026
   12MOL    C66 2068   7.140   4.251   6.470 -0.6149 -0.8388 -0.1039
   12MOL    C67 2069   7.181   4.361   6.375 -0.2597 -0.3477 -0.3090
   12MOL    H68 2070   7.192   4.106   6.311 -0.8376 -2.3837 -0.3905
   12MOL    H69 2071   7.023   4.141   6.331  0.7392 -0.2560 -2.1143
   12MOL    H70 2072   7.230   4.236   6.530  1.5228  1.9587 -2.4488
   12MOL    H71 2073   7.272   4.336   6.320  0.7023  1.0418  0.6128
   12MOL    H72 2074   7.094   4.373   6.311 -0.6603 -1.1790  0.0691
   12MOL    H73 2075   7.194   4.452   6.434  1.3334 -1.7774  1.6507
   12MOL    C74 2076   7.024   4.286   6.562 -0.2910 -0.0040  0.1175
   12MOL    C75 2077   6.911   4.373   6.514 -0.1891  0.0807  0.4724
   12MOL    C76 2078   6.824   4.305   6.407  0.3435 -0.1257 -0.0132
   12MOL    H77 2079   6.984   4.198   6.612  1.2967 -0.2830  0.9136
   12MOL    H78 2080   7.072   4.339   6.644  0.1687 -1.9812  1.1657
   12MOL    H79 2081   6.951   4.462   6.464 -2.0417  0.8096  0.2681
   12MOL    H80 2082   6.878   4.283   6.315  0.6698 -0.6276  0.2928
   12MOL    H81 2083   6.790   4.206   6.437  1.3754 -0.7996 -1.0156
   12MOL    H82 2084   6.749   4.377   6.374 -0.4492 -1.3811 -1.0034
   12MOL    C83 2085   6.818   4.418   6.635 -0.6229  0.0795 -0.0598
   12MOL    C84 2086   6.863   4.495   6.759 -0.1152  0.2347 -0.1053
   12MOL    C85 2087   6.953   4.612   6.712 -0.1413 -0.8083 -0.1363
   12MOL    H86 2088   6.739   4.472   6.583 -1.6271 -1.6172 -0.3571
   12MOL    H87 2089   6.774   4.326   6.676  1.4646 -0.4334  1.1008
   12MOL    H88 2090   6.926   4.433   6.823  0.1992 -0.1540 -0.7933
   12MOL    H89 2091   6.969   4.692   6.785 -1.9317 -0.8562  0.3423
   12MOL    H90 2092   7.051   4.565   6.700  0.2318  0.1294 -0.8251
   12MOL    H91 2093   6.936   4.656   6.614  0.9385  0.0395  0.0470
   12MOL    C92 2094   6.739   4.550   6.844  0.0328 -1.4675  0.3472
   12MOL    C93 2095   6.761   4.597   6.993 -0.8270 -0.3086  0.0710
   12MOL    C94 2096   6.628   4.624   7.063 -0.3412 -0.4749 -0.4041
   12MOL    H95 2097   6.690   4.632   6.793 -2.4169 -2.5019  0.9785
   12MOL    H96 2098   6.655   4.481   6.841 -1.3353  0.1238  1.3153
   12MOL    H97 2099   6.820   4.688   6.979 -1.1402 -0.1750 -0.3764
   12MOL    H98 2100   6.581   4.690   6.989 -0.8528  0.8074  1.0471
   12MOL    H99 2101   6.560   4.544   7.090  0.9062 -0.6847  2.1647
   12MOL   H100 2102   6.644   4.698   7.141  0.3174  0.6516 -1.5719
   12MOL   C101 2103   6.843   4.503   7.079  0.2482  0.5305  0.0307
   12MOL   C102 2104   6.998   4.528   7.083 -0.4572 -0.0995 -0.3856
   12MOL   C103 2105   7.047   4.657   7.154 -0.0479  0.2054  0.2507
   12MOL   H104 2106   6.807   4.516   7.181 -0.0130  1.6571 -0.1935
   12MOL   H105 2107   6.813   4.400   7.060  1.0569  0.4388 -0.7668
   12MOL   H106 2108   7.034   4.533   6.980 -1.2263  0.1019 -0.6517
   12MOL   H107 2109   7.146   4.687   7.120 -0.2887 -0.5351 -1.1389
   12MOL   H108 2110   6.986   4.747   7.144 -0.8195  0.0091  2.8668
   12MOL   H109 2111   7.049   4.640   7.262  0.6363 -1.7495 -0.0640
   12MOL   C110 2112   7.081   4.412   7.145  0.2985 -0.6972 -0.3081
   12MOL   C111 2113   7.066   4.280   7.070 -0.2955  0.4476  0.0885
   12MOL   C112 2114   7.161   4.273   6.943  0.2594  0.4798 -0.2891
   12MOL   H113 2115   7.186   4.439   7.156 -0.0503  1.3626 -1.8023
   12MOL   H114 2116   7.048   4.390   7.247 -1.9356 -1.4130 -1.1513
   12MOL   H115 2117   6.968   4.269   7.023  1.1912 -0.6685 -2.9320
   12MOL   H116 2118   7.266   4.257   6.970  0.3728 -2.8326 -2.5313
   12MOL   H117 2119   7.128   4.198   6.871 -0.4657  0.0200  0.5083
   12MOL   H118 2120   7.157   4.366   6.887  1.2103  0.8590  0.2574
   12MOL   C119 2121   7.099   4.167   7.167  0.1582 -0.2127 -0.1962
   12MOL   C120 2122   7.090   4.026   7.102  0.1059 -0.2018 -0.8242
   12MOL   C121 2123   7.150   3.934   7.218  0.2218  0.7603 -0.0059
   12MOL   H122 2124   7.200   4.190   7.201  0.0124 -1.0162  0.8213
   12MOL   H123 2125   7.027   4.172   7.249 -0.5296  0.6939 -0.8537
   12MOL   H124 2126   7.152   4.017   7.014 -0.2926  1.5175 -1.3067
   12MOL   H125 2127   7.112   3.969   7.314 -0.8545 -2.2129  0.7184
   12MOL   H126 2128   7.110   3.834   7.201 -0.0399  0.6763  1.0398
   12MOL   H127 2129   7.259   3.925   7.219  0.2667  1.2327  1.4155
   12MOL   C128 2130   6.946   3.979   7.070  0.3755 -0.0741  0.0414
   12MOL   C129 2131   6.934   3.903   6.936  0.0562 -0.3461 -0.9030
   12MOL   C130 2132   7.009   3.770   6.935  0.5181  0.6405 -0.0442
   12MOL   H131 2133   6.909   3.915   7.150  0.5136 -0.7452 -0.4183
   12MOL   H132 2134   6.880   4.062   7.090  1.2998  0.7521 -0.2978
   12MOL   H133 2135   6.981   3.967   6.861 -0.0824  0.4331 -0.3292
   12MOL   H134 2136   7.113   3.797   6.952  0.0159  3.0943 -0.6507
   12MOL   H135 2137   6.977   3.706   7.017 -0.9335  0.7477 -0.5169
   12MOL   H136 2138   6.996   3.703   6.850 -0.7567 -0.5131  1.0377
   12MOL   C137 2139   6.781   3.881   6.918 -0.0774  0.4466 -0.6500
   12MOL   C138 2140   6.701   4.006   6.872  0.2818 -0.2642  0.2653
   12MOL   C139 2141   6.738   4.040   6.725 -0.4728  0.0327  0.2644
   12MOL   H140 2142   6.762   3.803   6.844 -2.3383 -1.2115  1.5987
   12MOL   H141 2143   6.734   3.834   7.004 -0.3306  0.1329 -0.9585
   12MOL   H142 2144   6.736   4.080   6.943 -0.7008 -0.4619  0.9602
   12MOL   H143 2145   6.847   4.053   6.724 -0.3265 -0.8385  2.4091
   12MOL   H144 2146   6.713   3.955   6.663  2.1365  0.6842 -1.7807
   12MOL   H145 2147   6.679   4.121   6.682 -1.9163 -1.2836 -0.2705
   12MOL   C146 2148   6.551   3.990   6.889  0.6931  0.0056  0.2541
   12MOL   C147 2149   6.491   3.987   7.032  1.3537  0.4355 -0.8189
   12MOL   C148 2150   6.519   4.116   7.115 -0.9952  0.5577  0.5757
   12MOL   H149 2151   6.515   4.078   6.835 -1.2736 -0.4997  0.6869
   12MOL   H150 2152   6.511   3.912   6.824 -3.9128  0.0296  2.7898
   12MOL   H151 2153   6.533   3.900   7.083 -3.0277 -1.3462  0.0177
   12MOL   H152 2154   6.627   4.131   7.127 -0.7663 -1.1378  0.7095
   12MOL   H153 2155   6.475   4.198   7.058  2.8041  2.8067  0.6501
   12MOL   H154 2156   6.478   4.116   7.216 -1.0212  0.5907  0.5649
   12MOL   C155 2157   6.335   3.965   7.036 -0.4056  0.0814  0.3113
   12MOL   C156 2158   6.286   3.835   6.964 -0.6580 -0.2374  0.2838
   12MOL   C157 2159   6.359   3.709   7.026 -0.1813  0.1660  0.5183
   12MOL   H158 2160   6.297   3.968   7.138 -0.3789 -0.6943  0.3397
   12MOL   H159 2161   6.283   4.047   6.987 -1.7209 -1.2281 -0.4916
   12MOL   H160 2162   6.314   3.864   6.863 -1.9622 -0.6884 -0.2131
   12MOL   H161 2163   6.312   3.619   6.988 -1.4849  0.3396  1.6733
   12MOL   H162 2164   6.459   3.687   6.990 -1.1765 -0.1832 -2.1887
   12MOL   H163 2165   6.377   3.722   7.133  1.8272 -0.2957  0.2489
   12MOL   C164 2166   6.134   3.825   6.964  0.4478 -0.0430  0.3166
   12MOL   C165 2167   6.074   3.738   6.860  0.2238 -0.5438  0.2441
   12MOL   C166 2168   5.943   3.667   6.908  0.2312  0.1770  0.1996
   12MOL   H167 2169   6.100   3.801   7.065 -1.8813  1.0732 -0.1521
   12MOL   H168 2170   6.088   3.922   6.941  3.3515  0.7446 -2.4092
   12MOL   H169 2171   6.138   3.653   6.841 -0.0805  0.0706 -3.8524
   12MOL   H170 2172   5.855   3.731   6.911  0.7153  1.0005 -2.1635
   12MOL   H171 2173   5.915   3.586   6.841  2.3388 -1.8170  1.6428
   12MOL   H172 2174   5.965   3.627   7.007 -0.7818 -1.7710 -0.3378
   12MOL   C173 2175   6.052   3.813   6.727  0.4008  0.1828  0.1263
   12MOL   C174 2176   5.996   3.718   6.620  0.2685  0.1924 -0.6406
   12MOL   C175 2177   6.000   3.784   6.481 -0.2836 -0.1469  0.5771
   12MOL   H176 2178   5.986   3.897   6.745  2.6906  2.1907 -0.5553
   12MOL   H177 2179   6.149   3.850   6.694  0.8145 -2.1043 -1.3029
   12MOL   H178 2180   5.892   3.693   6.644  0.0479  0.1265 -1.6342
   12MOL   H179 2181   5.938   3.738   6.404 -1.7447  0.6307  1.2716
   12MOL   H180 2182   5.963   3.887   6.482 -2.4027 -0.8496 -1.7562
   12MOL   H181 2183   6.105   3.787   6.451 -0.7994 -0.4045 -1.2972
   12MOL   H182 2184   6.053   3.625   6.608  0.6713  0.1674  1.3328
   13MOL     C1 2185   2.840   6.948   2.854 -0.3207 -0.4602  0.5368
   13MOL     C2 2186   2.910   6.888   2.982  0.1215 -0.2925 -0.0165
   13MOL     C3 2187   3.044   6.816   2.950  0.8646  0.3727 -0.0930
   13MOL     H4 2188   2.746   7.000   2.868 -0.7600 -1.4632  1.4247
   13MOL     H5 2189   2.821   6.865   2.787  0.6978 -0.3598  0.1185
   13MOL     H6 2190   2.845   6.809   3.020 -1.0821 -0.4873 -2.3757
   13MOL     H7 2191   3.110   6.862   2.876 -1.8271  0.3991 -2.5622
   13MOL     H8 2192   3.096   6.803   3.045  0.2236 -0.6309  0.1228
   13MOL     H9 2193   3.030   6.714   2.915 -0.7222  1.1760 -1.8563
   13MOL    H10 2194   2.908   7.018   2.806 -0.0347  0.1211  1.7533
   13MOL    C11 2195   2.935   7.005   3.085  0.5531 -0.4582  0.2539
   13MOL    C12 2196   2.806   7.056   3.165 -0.4304 -0.5268  0.2839
   13MOL    C13 2197   2.767   6.942   3.264  0.3983  0.1052  0.6002
   13MOL    H14 2198   3.014   6.971   3.151  0.0082 -0.3243  0.9799
   13MOL    H15 2199   2.981   7.086   3.029  2.9090 -0.5981  1.9079
   13MOL    H16 2200   2.723   7.079   3.099 -0.6674  0.5479  0.9393
   13MOL    H17 2201   2.849   6.914   3.330  1.5871  1.1670 -0.4126
   13MOL    H18 2202   2.689   6.978   3.331  1.1299  2.0427  0.4335
   13MOL    H19 2203   2.727   6.857   3.208 -1.1297  0.4683  1.1177
   13MOL    C20 2204   2.843   7.192   3.232  0.2127  0.3739 -0.9793
   13MOL    C21 2205   2.840   7.316   3.145  0.0234 -0.1631 -0.7178
   13MOL    C22 2206   2.693   7.345   3.118  0.3750 -0.5388 -0.2411
   13MOL    H23 2207   2.785   7.206   3.324  0.4019  2.1603 -1.1015
   13MOL    H24 2208   2.944   7.179   3.273 -0.7108 -0.6534  1.0731
   13MOL    H25 2209   2.900   7.294   3.056  0.4780  0.1446 -0.4885
   13MOL    H26 2210   2.642   7.333   3.213  0.3203  0.5439 -0.1217
   13MOL    H27 2211   2.679   7.449   3.088  2.2353 -0.0758  0.4366
   13MOL    H28 2212   2.653   7.279   3.041 -0.3961 -2.4525  1.7614
   13MOL    C29 2213   2.909   7.443   3.214  0.3899 -0.1784  0.1108
   13MOL    C30 2214   2.922   7.570   3.126 -0.1228  0.2829  0.0056
   13MOL    C31 2215   2.995   7.666   3.209 -0.4361  0.5242  0.2624
   13MOL    H32 2216   2.850   7.476   3.300  0.3284  1.1601 -0.4296
   13MOL    H33 2217   3.005   7.424   3.261  1.1665  0.0972 -1.3718
   13MOL    H34 2218   2.820   7.605   3.110  0.9946  2.9320 -1.7185
   13MOL    H35 2219   2.986   7.655   3.317 -0.0223  1.7141  0.4267
   13MOL    H36 2220   3.103   7.653   3.202 -0.6021  0.7011 -3.4551
   13MOL    H37 2221   2.971   0.073   3.186  0.1659  0.7162  0.5011
   13MOL    C38 2222   3.005   7.544   2.993  0.4175 -0.2740 -0.6827
   13MOL    C39 2223   3.033   7.665   2.907 -0.0587  0.5128 -0.0697
   13MOL    C40 2224   3.142   7.628   2.809 -0.3424 -0.1111 -0.4261
   13MOL    H41 2225   3.089   7.477   3.011  1.8982  1.0463 -2.4197
   13MOL    H42 2226   2.944   7.482   2.927  0.0014  1.5614 -2.0687
   13MOL    H43 2227   3.080   0.044   2.969 -1.4103  2.6397 -1.5974
   13MOL    H44 2228   3.109   7.562   2.728  0.5714 -0.6095 -0.3890
   13MOL    H45 2229   3.186   0.023   2.770 -0.8776  0.7072  0.8793
   13MOL    H46 2230   3.229   7.580   2.853 -0.0427  0.0845 -0.7999
   13MOL    C47 2231   2.901   0.023   2.839 -0.0458  0.5753 -0.3068
   13MOL    C48 2232   2.900   0.180   2.830 -0.0195 -0.4298 -1.0104
   13MOL    C49 2233   2.778   0.222   2.751  1.0412  0.0056  0.7869
   13MOL    H50 2234   2.898   7.671   2.742  0.9839 -1.7594  0.8022
   13MOL    H51 2235   2.816   7.682   2.896  1.3551 -1.4392  0.4647
   13MOL    H52 2236   2.991   0.199   2.773  0.5558  2.7372  0.8693
   13MOL    H53 2237   2.772   0.330   2.734  1.6358  0.1296  1.2996
   13MOL    H54 2238   2.776   0.176   2.653 -1.1071  1.4845  0.0968
   13MOL    H55 2239   2.690   0.178   2.797  0.9221 -0.4490  0.1152
   13MOL    C56 2240   2.908   0.255   2.963  0.6452 -0.3051 -0.3277
   13MOL    C57 2241   2.927   0.406   2.947 -0.4334 -0.0654  0.1373
   13MOL    C58 2242   2.878   0.477   3.076  0.9511 -0.0708  0.2411
   13MOL    H59 2243   2.818   0.229   3.019 -0.1826  1.1347 -0.9727
   13MOL    H60 2244   2.989   0.222   3.028  0.5764  0.7741  0.3196
   13MOL    H61 2245   2.873   0.446   2.861  0.3371  0.4225 -0.1296
   13MOL    H62 2246   2.775   0.451   3.100  1.3171 -2.3490 -0.5433
   13MOL    H63 2247   2.947   0.456   3.158 -2.4502 -1.2981  2.9085
   13MOL    H64 2248   2.886   0.585   3.062 -3.1180  0.2304 -0.5300
   13MOL    C65 2249   3.075   0.445   2.904 -0.0214  0.2801  0.0359
   13MOL    C66 2250   3.095   0.590   2.861  0.0340 -0.7549  0.0949
   13MOL    C67 2251   3.170   0.678   2.972 -0.2623  0.2532  0.1481
   13MOL    H68 2252   3.152   0.421   2.976  0.8129  1.1378 -0.5648
   13MOL    H69 2253   3.098   0.381   2.819  0.1419  0.6233 -0.1776
   13MOL    H70 2254   2.993   0.618   2.836 -0.0840 -2.3282 -1.3214
   13MOL    H71 2255   3.276   0.654   2.980 -0.2948 -0.2227 -0.7623
   13MOL    H72 2256   3.155   0.782   2.944  0.7356  0.5536  0.7420
   13MOL    H73 2257   3.129   0.662   3.072  1.0899 -3.6652  0.1613
   13MOL    C74 2258   3.178   0.597   2.735  0.0083  0.0417  0.0885
   13MOL    C75 2259   3.098   0.566   2.606 -0.8132 -0.8111  0.2783
   13MOL    C76 2260   3.018   0.679   2.550 -0.0304  0.7339  0.1906
   13MOL    H77 2261   3.234   0.689   2.722 -1.8592  1.0430 -1.1174
   13MOL    H78 2262   3.262   0.529   2.751 -0.9337 -1.2488 -0.3267
   13MOL    H79 2263   3.025   0.492   2.639 -1.1394 -0.2098  0.9045
   13MOL    H80 2264   2.948   0.637   2.478  1.6231 -1.7326 -0.0516
   13MOL    H81 2265   2.965   0.732   2.629  0.6514  2.2186 -0.3130
   13MOL    H82 2266   3.083   0.757   2.510  0.6214  0.2650  0.3335
   13MOL    C83 2267   3.181   0.501   2.497  0.5950  0.8171  0.1747
   13MOL    C84 2268   3.206   0.349   2.523  0.6984 -0.4341  0.0118
   13MOL    C85 2269   3.082   0.261   2.480 -0.4321  0.4195  0.0017
   13MOL    H86 2270   3.132   0.506   2.399 -0.6548 -1.1848  0.6629
   13MOL    H87 2271   3.276   0.553   2.498  2.2438 -2.0704  1.3020
   13MOL    H88 2272   3.223   0.333   2.629  1.6728  1.1186  0.0989
   13MOL    H89 2273   3.062   0.280   2.375 -0.3304 -0.1223 -0.1178
   13MOL    H90 2274   3.099   0.153   2.482  3.5780  0.9596 -0.2171
   13MOL    H91 2275   2.992   0.273   2.541 -0.3654 -1.1773  0.4307
   13MOL    C92 2276   3.334   0.302   2.452  1.4468  0.3014 -0.2941
   13MOL    C93 2277   3.471   0.361   2.495 -0.1006  0.4984 -0.0230
   13MOL    C94 2278   3.499   0.327   2.645  0.7909  0.0061 -0.1687
   13MOL    H95 2279   3.353   0.195   2.460  0.5341  0.1082 -0.6305
   13MOL    H96 2280   3.325   0.319   2.345 -0.7686 -0.3887 -0.2365
   13MOL    H97 2281   3.461   0.468   2.480  2.7288  0.7536 -0.3804
   13MOL    H98 2282   3.596   0.369   2.672  0.7491  0.9172 -1.3668
   13MOL    H99 2283   3.421   0.358   2.714  2.7201  0.5026  1.8501
   13MOL   H100 2284   3.516   0.221   2.662 -4.5515 -0.6109  2.0372
   13MOL   C101 2285   3.585   0.317   2.403  1.1268  0.2802 -0.1628
   13MOL   C102 2286   3.727   0.382   2.429 -0.1062  1.1447  0.2625
   13MOL   C103 2287   3.831   0.287   2.359  0.1529  0.3306  0.1947
   13MOL   H104 2288   3.591   0.208   2.406  0.2408  0.2516  1.2339
   13MOL   H105 2289   3.560   0.339   2.300 -1.4592  2.6764  0.9085
   13MOL   H106 2290   3.748   0.375   2.536 -0.6645  0.0145  0.2959
   13MOL   H107 2291   3.931   0.325   2.381  0.2135  0.4381 -0.2648
   13MOL   H108 2292   3.833   0.180   2.380 -0.3035  0.6347  1.8708
   13MOL   H109 2293   3.823   0.302   2.252 -1.0918 -0.0506  0.2340
   13MOL   C110 2294   3.740   0.523   2.375  0.1703  0.4223  0.2559
   13MOL   C111 2295   3.863   0.607   2.416 -0.3194  0.0743  1.1223
   13MOL   C112 2296   3.869   0.744   2.338 -0.2898  0.0660  0.5001
   13MOL   H113 2297   3.742   0.528   2.266 -1.9997 -1.7229  0.0795
   13MOL   H114 2298   3.652   0.575   2.412 -0.0745 -1.2630  2.0683
   13MOL   H115 2299   3.951   0.559   2.374 -0.7310  0.6764 -0.4662
   13MOL   H116 2300   3.808   0.820   2.387  0.5225  1.3959 -0.5406
   13MOL   H117 2301   3.974   0.773   2.338 -0.1536 -0.3689  1.8034
   13MOL   H118 2302   3.830   0.737   2.237 -1.2061  0.4985  0.8093
   13MOL   C119 2303   3.890   0.618   2.571 -0.3148  0.4050 -0.5259
   13MOL   C120 2304   4.026   0.679   2.611 -0.4946 -0.6931  0.5441
   13MOL   C121 2305   4.015   0.740   2.752 -0.8557 -0.1732 -0.0200
   13MOL   H122 2306   3.803   0.666   2.615 -1.7164 -0.6717 -2.0811
   13MOL   H123 2307   3.886   0.516   2.608 -0.7921  0.2199 -1.0834
   13MOL   H124 2308   4.058   0.759   2.544  1.0305  0.3276  2.4469
   13MOL   H125 2309   3.983   0.665   2.824  1.7645 -0.7356  0.5858
   13MOL   H126 2310   4.111   0.784   2.779 -0.6753 -0.3152 -0.4276
   13MOL   H127 2311   3.952   0.829   2.761 -0.4633  0.0988  0.0448
   13MOL   C128 2312   4.144   0.575   2.604 -0.4107  0.1515 -0.1820
   13MOL   C129 2313   4.288   0.619   2.646 -0.7213 -0.5216  0.3950
   13MOL   C130 2314   4.382   0.492   2.652 -0.2235 -0.1495 -0.4019
   13MOL   H131 2315   4.103   0.498   2.668  0.6123  0.4241  0.8160
   13MOL   H132 2316   4.150   0.528   2.506 -0.5573 -2.3312  0.9783
   13MOL   H133 2317   4.282   0.658   2.748  2.6554 -1.1164  0.9138
   13MOL   H134 2318   4.337   0.406   2.703  3.0868 -2.0742 -0.6473
   13MOL   H135 2319   4.417   0.454   2.556  1.5896 -0.5884  0.4108
   13MOL   H136 2320   4.470   0.518   2.711  0.8404 -0.1107 -1.9881
   13MOL   C137 2321   4.341   0.718   2.545 -0.6312 -0.4651 -0.0463
   13MOL   C138 2322   4.477   0.783   2.587  0.6284 -0.7152  0.1678
   13MOL   C139 2323   4.601   0.703   2.531  0.3688 -0.3989 -0.1238
   13MOL   H140 2324   4.350   0.674   2.446 -1.2842 -1.1318  0.1851
   13MOL   H141 2325   4.267   0.796   2.527 -1.5548 -0.9838  1.4109
   13MOL   H142 2326   4.477   0.789   2.696  0.2535  0.0347  0.1310
   13MOL   H143 2327   4.595   0.709   2.422  0.6683 -1.1485 -0.1830
   13MOL   H144 2328   4.688   0.746   2.579 -0.3078  0.2129  0.5699
   13MOL   H145 2329   4.608   0.599   2.560  2.8686 -0.8270 -2.1341
   13MOL   C146 2330   4.490   0.926   2.554  0.1536 -0.0831  0.4040
   13MOL   C147 2331   4.414   1.025   2.656  0.4384 -0.1465 -0.2241
   13MOL   C148 2332   4.515   1.068   2.767 -0.1235  0.2806 -0.1839
   13MOL   H149 2333   4.594   0.960   2.553  0.4057 -0.8377  1.1994
   13MOL   H150 2334   4.456   0.917   2.450  0.3137 -3.3232  0.5947
   13MOL   H151 2335   4.331   0.969   2.700  0.5993 -0.4897 -0.3538
   13MOL   H152 2336   4.591   1.121   2.708  0.4313  0.0995  0.3562
   13MOL   H153 2337   4.485   1.127   2.853 -0.8598 -1.1441  0.5408
   13MOL   H154 2338   4.549   0.982   2.825  1.9681  0.5670 -0.9377
   13MOL   C155 2339   4.355   1.156   2.594  0.0527  0.1674 -0.6118
   13MOL   C156 2340   4.214   1.141   2.530  0.3427 -0.2939  0.4245
   13MOL   C157 2341   4.094   1.147   2.621 -0.4549 -0.1513  0.3564
   13MOL   H158 2342   4.343   1.232   2.671 -0.3621 -1.5377  1.0530
   13MOL   H159 2343   4.431   1.194   2.526  0.2100 -0.7001 -0.9355
   13MOL   H160 2344   4.210   1.047   2.476  0.1864 -1.2878  2.1279
   13MOL   H161 2345   4.009   1.088   2.586 -1.0684  1.7435 -1.4640
   13MOL   H162 2346   4.118   1.089   2.710  1.7877  2.5903  1.6250
   13MOL   H163 2347   4.057   1.244   2.653 -2.0887 -1.1468  1.5958
   13MOL   C164 2348   4.203   1.248   2.417  0.1611  0.5835 -0.5864
   13MOL   C165 2349   4.079   1.247   2.328  0.1606 -0.5742  0.1833
   13MOL   C166 2350   4.067   1.379   2.253  0.9093 -0.4862 -0.5771
   13MOL   H167 2351   4.198   1.335   2.483  1.9226 -0.4612  0.9723
   13MOL   H168 2352   4.294   1.254   2.357  0.1331  0.8380 -0.6049
   13MOL   H169 2353   3.987   1.240   2.386  0.7897 -0.6082  1.1719
   13MOL   H170 2354   4.158   1.412   2.202  0.4590  1.0305 -0.4372
   13MOL   H171 2355   3.980   1.377   2.188 -0.3610 -2.4813  1.1319
   13MOL   H172 2356   4.041   1.455   2.327 -0.5966 -1.3962 -0.1416
   13MOL   C173 2357   4.074   1.134   2.223 -0.1010  0.0578  0.0229
   13MOL   C174 2358   3.951   1.116   2.137  0.0402 -0.1074  0.1199
   13MOL   C175 2359   3.962   1.164   1.988  0.1371 -0.2147  0.1991
   13MOL   H176 2360   4.160   1.148   2.158 -2.0045  0.9559 -2.3839
   13MOL   H177 2361   4.087   1.042   2.280  0.5239  0.5376  0.6611
   13MOL   H178 2362   3.867   1.163   2.188  0.9398  0.2549  1.2918
   13MOL   H179 2363   4.057   1.138   1.942  0.3457 -0.3707  0.7212
   13MOL   H180 2364   3.887   1.122   1.921 -0.4629 -1.2051  1.4993
   13MOL   H181 2365   3.964   1.273   1.978  0.7830 -0.2840 -0.5045
   13MOL   H182 2366   3.925   1.010   2.131  1.9936 -0.5581 -0.6805
   14MOL     C1 2367   2.810   1.142   5.442 -0.2358 -0.5330  0.0085
   14MOL     C2 2368   2.780   1.183   5.292  0.4018  0.7183 -0.4644
   14MOL     C3 2369   2.730   1.057   5.218 -0.3464 -0.1154  0.6046
   14MOL     H4 2370   2.873   1.215   5.493  0.1639  0.8933 -2.3997
   14MOL     H5 2371   2.865   1.048   5.449 -1.1185 -1.0680 -0.1797
   14MOL     H6 2372   2.869   1.210   5.235  0.3099  1.0571 -0.4505
   14MOL     H7 2373   2.643   1.012   5.267 -0.7090  0.2778  0.3273
   14MOL     H8 2374   2.713   1.075   5.111  1.4015 -0.5633  0.2464
   14MOL     H9 2375   2.790   0.966   5.218 -0.6175 -0.4043 -3.2412
   14MOL    H10 2376   2.722   1.124   5.503  0.2608  1.4496  1.3484
   14MOL    C11 2377   2.676   1.295   5.286  0.4486  0.2402 -0.3950
   14MOL    C12 2378   2.653   1.359   5.145 -0.2780 -0.8533 -0.4417
   14MOL    C13 2379   2.536   1.460   5.168  0.0890  1.2875 -0.5733
   14MOL    H14 2380   2.576   1.258   5.307 -0.1155  2.0499  0.2154
   14MOL    H15 2381   2.685   1.378   5.356 -1.4961  0.4705 -0.3903
   14MOL    H16 2382   2.625   1.282   5.073  0.5735 -0.5452 -1.1027
   14MOL    H17 2383   2.448   1.421   5.219  2.0108  1.2149  2.8951
   14MOL    H18 2384   2.568   1.548   5.223  2.2707 -1.5454  2.9618
   14MOL    H19 2385   2.501   1.493   5.071  1.7530  1.3580 -1.1672
   14MOL    C20 2386   2.784   1.434   5.104  0.7046  0.2923  0.3120
   14MOL    C21 2387   2.773   1.516   4.975  0.0578 -0.2487 -0.1066
   14MOL    C22 2388   2.912   1.597   4.952  0.3382  0.7664 -0.0753
   14MOL    H23 2389   2.821   1.493   5.188 -2.7935  0.1292  2.0597
   14MOL    H24 2390   2.860   1.358   5.086  3.1235  1.4932  4.6975
   14MOL    H25 2391   2.696   1.592   4.986  0.8049  0.3442  1.2798
   14MOL    H26 2392   2.924   1.680   5.021 -0.4859  0.8974 -0.0845
   14MOL    H27 2393   2.995   1.526   4.956  0.5339  1.1033  2.1318
   14MOL    H28 2394   2.908   1.650   4.856 -0.0830  1.5996  0.3990
   14MOL    C29 2395   2.737   1.432   4.857 -0.3092 -0.2661 -0.0902
   14MOL    C30 2396   2.656   1.515   4.753  0.6203 -0.1682  0.2289
   14MOL    C31 2397   2.693   1.453   4.619  0.0769  0.4312 -0.4181
   14MOL    H32 2398   2.831   1.387   4.828 -0.1227  0.0069  0.0896
   14MOL    H33 2399   2.676   1.346   4.887 -0.7711 -0.0958 -0.5416
   14MOL    H34 2400   2.710   1.610   4.756  1.0955 -0.3172 -2.4606
   14MOL    H35 2401   2.800   1.438   4.605 -0.4147 -2.2332 -1.7412
   14MOL    H36 2402   2.639   1.360   4.602  0.4732  0.3458 -1.2739
   14MOL    H37 2403   2.658   1.525   4.544 -1.4682 -0.9141 -1.0409
   14MOL    C38 2404   2.499   1.529   4.770  0.1709 -0.2501 -0.0731
   14MOL    C39 2405   2.444   1.648   4.684  0.3763 -0.5927  0.5136
   14MOL    C40 2406   2.293   1.662   4.694 -0.2438  0.2402  0.4285
   14MOL    H41 2407   2.452   1.436   4.739 -1.6031  0.2289  1.0938
   14MOL    H42 2408   2.475   1.546   4.876  0.0941 -0.8372  0.0029
   14MOL    H43 2409   2.459   1.619   4.580  2.6855 -2.1883  1.2631
   14MOL    H44 2410   2.263   1.733   4.617  0.0008  0.9381  0.9682
   14MOL    H45 2411   2.252   1.565   4.667 -0.7005 -0.3364  3.0224
   14MOL    H46 2412   2.266   1.697   4.794 -0.8568  0.3437  0.2281
   14MOL    C47 2413   2.512   1.784   4.704 -0.2554 -0.4238 -0.2911
   14MOL    C48 2414   2.601   1.816   4.580  0.6867  0.9673  0.1669
   14MOL    C49 2415   2.512   1.881   4.467  0.3431  0.4167 -0.2316
   14MOL    H50 2416   2.435   1.861   4.712 -2.6476 -2.8737  1.2919
   14MOL    H51 2417   2.562   1.782   4.801  2.0691 -1.5505 -1.4612
   14MOL    H52 2418   2.642   1.724   4.537 -0.8359 -0.1616  1.0777
   14MOL    H53 2419   2.451   1.800   4.427 -0.9075  2.0883 -1.7572
   14MOL    H54 2420   2.444   1.950   4.517 -0.3378 -1.1969  1.1153
   14MOL    H55 2421   2.552   1.928   4.377  2.3133  3.8670  2.3484
   14MOL    C56 2422   2.701   1.920   4.622 -0.2582  0.6915  0.4048
   14MOL    C57 2423   2.834   1.861   4.673  0.2989  1.1232  0.5199
   14MOL    C58 2424   2.895   1.769   4.565 -1.0080  0.1048  0.1661
   14MOL    H59 2425   2.729   1.971   4.530  0.5547 -0.8360 -0.2176
   14MOL    H60 2426   2.649   1.979   4.698  2.2506  0.7650  2.1158
   14MOL    H61 2427   2.821   1.802   4.763 -0.4822 -1.1263 -1.0251
   14MOL    H62 2428   3.001   1.745   4.571 -1.8012 -3.8454 -0.2039
   14MOL    H63 2429   2.855   1.668   4.551 -0.2748 -0.1833  0.1569
   14MOL    H64 2430   2.892   1.812   4.465  3.2523  1.0731  0.3765
   14MOL    C65 2431   2.931   1.974   4.719 -0.4315  0.0213  0.0943
   14MOL    C66 2432   2.872   2.076   4.819 -0.1235 -0.3652  0.0267
   14MOL    C67 2433   2.817   2.009   4.947 -0.0329 -0.3210 -0.1289
   14MOL    H68 2434   3.006   1.919   4.777 -2.7485 -1.7090  1.5170
   14MOL    H69 2435   2.976   2.017   4.629 -0.3882  1.3794  0.7496
   14MOL    H70 2436   2.784   2.126   4.777 -1.8493 -1.5265  2.1150
   14MOL    H71 2437   2.886   1.934   4.986  0.1275 -1.3201 -2.2637
   14MOL    H72 2438   2.800   2.086   5.022  1.8339  1.5032 -1.5157
   14MOL    H73 2439   2.716   1.971   4.935 -0.5671  1.2913 -0.7857
   14MOL    C74 2440   2.968   2.200   4.861  0.1863  0.0719  0.3296
   14MOL    C75 2441   3.011   2.287   4.740  0.7011 -0.3525  0.1420
   14MOL    C76 2442   2.894   2.363   4.672  0.3786 -0.2594 -0.5626
   14MOL    H77 2443   2.912   2.258   4.933 -0.9232  0.8805 -1.1565
   14MOL    H78 2444   3.056   2.159   4.911  0.8731  1.2411  0.0915
   14MOL    H79 2445   3.056   2.230   4.659  1.1348 -1.2951  1.0422
   14MOL    H80 2446   2.821   2.406   4.741  0.0510  0.1434 -1.1489
   14MOL    H81 2447   2.945   2.443   4.618  0.1696  1.0592  1.1514
   14MOL    H82 2448   2.840   2.291   4.611 -0.8302 -0.2655  0.4849
   14MOL    C83 2449   3.109   2.391   4.791  0.2694  0.2573 -0.4920
   14MOL    C84 2450   3.217   2.436   4.690  0.0929 -0.1084 -0.3270
   14MOL    C85 2451   3.286   2.565   4.731 -0.3537  0.0641 -0.3628
   14MOL    H86 2452   3.057   2.475   4.837  1.9964 -0.8657  3.8010
   14MOL    H87 2453   3.168   2.360   4.878  1.9408 -0.8980 -2.0048
   14MOL    H88 2454   3.165   2.463   4.598 -0.6108  1.9871  0.6593
   14MOL    H89 2455   3.210   2.639   4.754 -0.0930 -0.1884  1.3485
   14MOL    H90 2456   3.347   2.565   4.821  0.2842  0.4463 -0.7876
   14MOL    H91 2457   3.341   2.605   4.645  0.6382 -2.2233 -0.8432
   14MOL    C92 2458   3.309   2.314   4.653  0.6488  0.0244 -0.4344
   14MOL    C93 2459   3.371   2.309   4.508  0.1910  0.3997  0.4535
   14MOL    C94 2460   3.428   2.443   4.465  0.4402  0.1147 -0.5768
   14MOL    H95 2461   3.398   2.312   4.717 -0.7323  0.3512  1.5499
   14MOL    H96 2462   3.255   2.219   4.660  0.2021  0.3385  0.5260
   14MOL    H97 2463   3.289   2.291   4.440  0.6824  1.3682 -0.3973
   14MOL    H98 2464   3.490   2.481   4.546 -2.3604 -0.0479  1.7159
   14MOL    H99 2465   3.501   2.433   4.384  2.6210 -2.3991  1.5832
   14MOL   H100 2466   3.352   2.516   4.436  0.4446  0.5020  0.3685
   14MOL   C101 2467   3.470   2.190   4.498  0.1227 -0.2304 -0.1665
   14MOL   C102 2468   3.495   2.128   4.352  0.2972 -0.2066 -0.9297
   14MOL   C103 2469   3.602   2.011   4.356  0.4238  0.1408  0.9859
   14MOL   H104 2470   3.562   2.215   4.552  0.0299  2.7753 -1.3021
   14MOL   H105 2471   3.417   2.109   4.549 -1.4217  0.2802 -0.9286
   14MOL   H106 2472   3.532   2.213   4.295 -0.1744  2.4148  2.4770
   14MOL   H107 2473   3.563   1.915   4.390 -1.4132  2.0813  4.6874
   14MOL   H108 2474   3.642   2.006   4.255 -2.8584  0.1343 -0.3823
   14MOL   H109 2475   3.681   2.027   4.429 -0.2231 -3.3776  2.5415
   14MOL   C110 2476   3.370   2.083   4.278 -0.3680  0.1009  0.4898
   14MOL   C111 2477   3.291   1.964   4.341  0.2246 -0.2535 -0.4647
   14MOL   C112 2478   3.139   1.997   4.358 -0.5837 -1.2162  0.2830
   14MOL   H113 2479   3.300   2.165   4.261 -0.0547  0.4422  0.8601
   14MOL   H114 2480   3.391   2.051   4.176 -1.7958  0.2424  0.1396
   14MOL   H115 2481   3.339   1.954   4.439 -1.7635  1.8971  0.7681
   14MOL   H116 2482   3.080   1.989   4.267 -0.1215  2.2399 -0.3928
   14MOL   H117 2483   3.098   1.941   4.442 -1.6816  1.1388  1.3575
   14MOL   H118 2484   3.131   2.102   4.385  1.7952 -0.3119 -2.3169
   14MOL   C119 2485   3.301   1.826   4.263  0.3736 -0.2021 -0.1874
   14MOL   C120 2486   3.244   1.701   4.334  0.1345 -0.3615  0.2858
   14MOL   C121 2487   3.212   1.584   4.235 -0.4142 -0.5982 -0.6563
   14MOL   H122 2488   3.256   1.829   4.163  0.4349 -0.8581 -0.2387
   14MOL   H123 2489   3.406   1.814   4.238  0.9931 -0.5256  2.4188
   14MOL   H124 2490   3.144   1.724   4.373 -0.2139 -0.3242 -0.6146
   14MOL   H125 2491   3.129   1.613   4.171  0.6150  1.4987 -1.0852
   14MOL   H126 2492   3.307   1.566   4.185  0.9013  1.6216  0.9302
   14MOL   H127 2493   3.192   1.489   4.285  0.7596 -0.2433  0.5388
   14MOL   C128 2494   3.339   1.662   4.454  0.2437  0.3941 -0.5844
   14MOL   C129 2495   3.280   1.656   4.602 -0.7014  0.0259  0.3695
   14MOL   C130 2496   3.185   1.532   4.620 -0.7739  0.1339 -0.2071
   14MOL   H131 2497   3.387   1.568   4.430  0.4907 -0.3638  2.5775
   14MOL   H132 2498   3.416   1.739   4.466 -0.5438  1.2242 -0.7931
   14MOL   H133 2499   3.226   1.750   4.615 -1.5127  0.6027 -5.8982
   14MOL   H134 2500   3.231   1.435   4.601 -0.8232  0.5287 -2.5272
   14MOL   H135 2501   3.153   1.524   4.724 -0.5286  0.5311 -0.1000
   14MOL   H136 2502   3.097   1.519   4.556 -0.9516 -3.9461  0.7285
   14MOL   C137 2503   3.394   1.654   4.700  0.0971  0.6954 -1.0196
   14MOL   C138 2504   3.460   1.789   4.742  0.0123 -0.1182  0.7028
   14MOL   C139 2505   3.358   1.868   4.825 -0.5239 -0.3188 -0.3525
   14MOL   H140 2506   3.356   1.607   4.792 -0.6425 -0.6497 -1.9907
   14MOL   H141 2507   3.469   1.588   4.658  1.5853  0.5374  1.7257
   14MOL   H142 2508   3.488   1.841   4.650  2.1840 -0.2925  1.2512
   14MOL   H143 2509   3.280   1.914   4.765  0.2365 -1.6112 -2.3932
   14MOL   H144 2510   3.317   1.812   4.908 -0.0510 -0.4877 -0.2290
   14MOL   H145 2511   3.415   1.955   4.859 -0.2865 -0.8858  0.7041
   14MOL   C146 2512   3.589   1.756   4.821  0.5485  0.0432 -0.0338
   14MOL   C147 2513   3.705   1.684   4.744 -0.1065  0.3921  0.0889
   14MOL   C148 2514   3.742   1.765   4.617  0.2950 -0.0759  0.3217
   14MOL   H149 2515   3.628   1.847   4.867 -0.5918 -0.2382  1.5408
   14MOL   H150 2516   3.570   1.690   4.906  0.8969  1.5872  1.2717
   14MOL   H151 2517   3.682   1.583   4.710 -0.5223  0.3725  0.4161
   14MOL   H152 2518   3.677   1.753   4.530 -1.3361  0.4345  1.4384
   14MOL   H153 2519   3.733   1.872   4.635  0.1394  0.4095 -2.3754
   14MOL   H154 2520   3.842   1.745   4.578 -0.6177 -0.0753 -2.1403
   14MOL   C155 2521   3.831   1.665   4.840 -0.1230 -0.1091 -0.3475
   14MOL   C156 2522   3.812   1.564   4.956 -0.2756  0.7161 -0.6030
   14MOL   C157 2523   3.771   1.427   4.896 -0.2376  0.5898  0.0584
   14MOL   H158 2524   3.908   1.625   4.773  0.7281  0.9948 -0.0520
   14MOL   H159 2525   3.861   1.760   4.884  0.4402 -1.0149  1.2596
   14MOL   H160 2526   3.740   1.598   5.029 -2.2864 -2.8764 -0.7803
   14MOL   H161 2527   3.663   1.413   4.905 -0.2271 -0.1924 -0.9057
   14MOL   H162 2528   3.802   1.426   4.792 -0.1864  1.1233  0.0644
   14MOL   H163 2529   3.819   1.342   4.946 -1.9555 -0.1447  0.4891
   14MOL   C164 2530   3.943   1.546   5.031  0.5506 -0.1812 -0.5545
   14MOL   C165 2531   3.926   1.464   5.171  1.6021  0.3611  0.0437
   14MOL   C166 2532   4.060   1.404   5.208 -0.1579 -0.0669  0.4495
   14MOL   H167 2533   4.012   1.504   4.957  0.3061 -0.9577 -0.3466
   14MOL   H168 2534   3.993   1.642   5.046  0.0763 -0.1254  0.7466
   14MOL   H169 2535   3.865   1.374   5.159  1.1571  0.7364 -0.5756
   14MOL   H170 2536   4.051   1.347   5.301  0.2623 -0.7203  0.0971
   14MOL   H171 2537   4.089   1.336   5.128 -0.2449  1.1594 -0.6251
   14MOL   H172 2538   4.144   1.472   5.226 -0.5706 -0.0408  2.3749
   14MOL   C173 2539   3.866   1.549   5.291 -0.4747 -0.1748  0.2312
   14MOL   C174 2540   3.829   1.474   5.413  0.2412  0.1317 -0.3721
   14MOL   C175 2541   3.739   1.552   5.512  0.0231  0.1450  0.3247
   14MOL   H176 2542   3.940   1.625   5.317 -0.4313  0.2015 -0.9482
   14MOL   H177 2543   3.780   1.603   5.249 -0.0438 -2.2139 -3.4690
   14MOL   H178 2544   3.924   1.442   5.454  0.6885 -1.2669 -2.4053
   14MOL   H179 2545   3.749   1.512   5.612 -1.1705  0.0888  0.4262
   14MOL   H180 2546   3.764   1.658   5.521 -1.8384  0.5021  1.5410
   14MOL   H181 2547   3.633   1.552   5.487  0.1646  0.6024 -0.3003
   14MOL   H182 2548   3.775   1.382   5.392 -0.9023  0.5434  0.6878
   15MOL     C1 2549   2.946   5.174   6.756  0.5289  0.1725 -0.2858
   15MOL     C2 2550   3.075   5.121   6.683  0.2822 -0.2777 -0.2866
   15MOL     C3 2551   3.178   5.227   6.688 -0.1495 -0.9998 -0.1842
   15MOL     H4 2552   2.957   5.159   6.863  2.5450 -0.7250 -0.6012
   15MOL     H5 2553   2.848   5.140   6.721  0.9247  2.0947 -3.4711
   15MOL     H6 2554   3.049   5.112   6.577 -1.1473  0.2014  0.0063
   15MOL     H7 2555   3.203   5.241   6.793 -2.7144  0.2309  0.3038
   15MOL     H8 2556   3.273   5.209   6.639  0.7173  3.9912 -0.6801
   15MOL     H9 2557   3.136   5.323   6.656  1.3567  0.0398  0.9186
   15MOL    H10 2558   2.934   5.282   6.743 -0.1855  0.1725  0.3508
   15MOL    C11 2559   3.130   4.983   6.727  0.3795 -0.2683  0.0980
   15MOL    C12 2560   3.054   4.863   6.676  0.2826 -0.3674 -0.2289
   15MOL    C13 2561   3.085   4.833   6.521  0.1247  0.1449  0.1158
   15MOL    H14 2562   3.236   4.971   6.703  0.2680 -0.1336 -0.4635
   15MOL    H15 2563   3.125   4.987   6.835  1.3467  0.1668  0.1328
   15MOL    H16 2564   2.947   4.882   6.678  0.4643  0.7197 -0.9181
   15MOL    H17 2565   3.064   4.918   6.456  2.2998  2.3143  2.1783
   15MOL    H18 2566   3.187   4.798   6.503 -1.4339 -3.3511 -2.5743
   15MOL    H19 2567   3.027   4.754   6.473  0.4436 -0.8006  1.2716
   15MOL    C20 2568   3.065   4.725   6.754  0.5836 -0.5277 -0.3687
   15MOL    C21 2569   3.026   4.738   6.906  0.6866 -0.2078 -0.1462
   15MOL    C22 2570   2.886   4.803   6.936  0.1318  0.2487 -0.2955
   15MOL    H23 2571   2.998   4.656   6.703 -0.4926  0.9197 -0.9221
   15MOL    H24 2572   3.168   4.692   6.736  0.4068 -1.6003  0.5680
   15MOL    H25 2573   3.101   4.791   6.965  0.7744 -0.5938  0.0882
   15MOL    H26 2574   2.874   4.911   6.927  1.6013  0.4420  0.0238
   15MOL    H27 2575   2.815   4.748   6.874  1.9052 -2.8792  0.3638
   15MOL    H28 2576   2.865   4.790   7.042  0.3827  0.9967 -0.1526
   15MOL    C29 2577   3.021   4.596   6.969  0.2213 -0.2287 -0.1812
   15MOL    C30 2578   3.022   4.596   7.123 -0.2991 -0.4288  0.1776
   15MOL    C31 2579   2.931   4.480   7.171 -0.1892  0.0734 -0.0422
   15MOL    H32 2580   2.926   4.549   6.943 -0.9101  2.4454 -0.9799
   15MOL    H33 2581   3.098   4.534   6.924 -0.4654 -0.5260 -0.9494
   15MOL    H34 2582   2.986   4.685   7.175  1.4571 -0.5689  1.6777
   15MOL    H35 2583   2.917   4.456   7.277  1.0521  1.5674  0.4750
   15MOL    H36 2584   2.831   4.486   7.127 -0.0050 -0.6807 -0.5703
   15MOL    H37 2585   2.969   4.385   7.136  0.9944  0.7526 -0.6220
   15MOL    C38 2586   3.168   4.583   7.169  0.0447 -0.2338 -0.6806
   15MOL    C39 2587   3.190   4.586   7.326 -0.2277 -0.9264  0.5955
   15MOL    C40 2588   3.309   4.491   7.366  0.6753 -0.6607  0.5520
   15MOL    H41 2589   3.203   4.486   7.133 -2.1747 -1.9774  1.5874
   15MOL    H42 2590   3.232   4.653   7.115 -0.8923 -0.3786 -2.0180
   15MOL    H43 2591   3.098   4.553   7.375  1.1742 -1.0114  3.3196
   15MOL    H44 2592   3.292   4.384   7.358  2.2249 -0.8345 -0.5929
   15MOL    H45 2593   3.397   4.499   7.303  0.0808  0.9684 -0.1240
   15MOL    H46 2594   3.323   4.495   7.474  1.6845 -0.4193  0.4186
   15MOL    C47 2595   3.216   4.715   7.395 -0.5602  0.0713  0.0924
   15MOL    C48 2596   3.126   4.836   7.373  0.1542  0.2393  0.4716
   15MOL    C49 2597   2.987   4.813   7.432  0.1063 -0.3233 -0.4422
   15MOL    H50 2598   3.231   4.698   7.502  2.6018  1.7489 -0.0287
   15MOL    H51 2599   3.318   4.740   7.366 -0.3908 -1.9526 -1.1941
   15MOL    H52 2600   3.122   4.850   7.265  2.9039 -3.2275 -0.1843
   15MOL    H53 2601   2.988   4.818   7.540 -0.5365  0.7709 -0.4708
   15MOL    H54 2602   2.918   4.890   7.397 -0.6201 -2.5591 -4.2973
   15MOL    H55 2603   2.942   4.723   7.391 -2.8760  2.1225 -2.8555
   15MOL    C56 2604   3.189   4.966   7.430  0.1128 -1.2312 -1.0958
   15MOL    C57 2605   3.305   5.029   7.343 -0.2046 -0.0289  0.3365
   15MOL    C58 2606   3.272   5.074   7.198 -0.0484 -0.4630  0.1623
   15MOL    H59 2607   3.121   5.051   7.423  2.4792  1.0395  2.0454
   15MOL    H60 2608   3.229   4.955   7.531 -2.2075  1.2177  0.1345
   15MOL    H61 2609   3.387   4.958   7.329  0.0568  0.4903 -0.7600
   15MOL    H62 2610   3.357   5.112   7.141 -1.8104 -0.7024 -2.7298
   15MOL    H63 2611   3.231   4.993   7.137 -0.8403  0.4219 -0.4859
   15MOL    H64 2612   3.191   5.145   7.209 -1.9248 -2.5895  0.4546
   15MOL    C65 2613   3.375   5.152   7.418 -0.0854  0.3199  0.0601
   15MOL    C66 2614   3.445   5.126   7.552 -0.1624 -0.7869 -0.2780
   15MOL    C67 2615   3.558   5.029   7.538 -0.2002 -0.3947 -0.9338
   15MOL    H68 2616   3.450   5.203   7.357 -0.0260  0.1790  0.0157
   15MOL    H69 2617   3.310   5.237   7.438  0.1281  0.2981  0.8619
   15MOL    H70 2618   3.384   5.080   7.630 -0.5433 -2.0830 -1.3141
   15MOL    H71 2619   3.614   5.006   7.629  0.1827 -2.9668 -1.7804
   15MOL    H72 2620   3.522   4.930   7.511  0.4699 -0.7709 -0.4678
   15MOL    H73 2621   3.628   5.066   7.463 -0.4574 -0.4315 -1.1878
   15MOL    C74 2622   3.501   5.260   7.609  0.4671 -0.6155  0.0834
   15MOL    C75 2623   3.400   5.365   7.671  0.8504 -0.8015  0.1750
   15MOL    C76 2624   3.330   5.316   0.109 -0.4501  0.1696 -0.0620
   15MOL    H77 2625   3.580   5.247   7.683  0.4048 -1.3427  0.0295
   15MOL    H78 2626   3.544   5.318   7.528 -0.1673  0.2843  0.3777
   15MOL    H79 2627   3.322   5.388   7.599  1.9849  1.3006 -0.4287
   15MOL    H80 2628   3.312   5.209   0.103 -3.1560  0.2831  4.0567
   15MOL    H81 2629   3.389   5.328   0.200 -1.4119  0.5438  0.5291
   15MOL    H82 2630   3.228   5.346   0.136 -0.7911 -0.5466 -0.5231
   15MOL    C83 2631   3.485   5.490   0.001  0.0814 -0.9317  0.1801
   15MOL    C84 2632   3.409   5.628   0.036 -0.1905  0.1580  0.4232
   15MOL    C85 2633   3.494   5.733   0.100 -0.3028  0.4455  0.9788
   15MOL    H86 2634   3.561   5.461   0.074 -0.1422 -2.3324 -0.1115
   15MOL    H87 2635   3.537   5.519   7.607 -2.4447  4.3063  0.2437
   15MOL    H88 2636   3.341   5.585   0.110  1.0466 -1.9000  0.4024
   15MOL    H89 2637   3.566   5.688   0.168 -1.4480  0.2168  2.0743
   15MOL    H90 2638   3.554   5.783   0.025 -0.1669 -0.9119  0.1755
   15MOL    H91 2639   3.429   5.799   0.159 -2.2285 -0.2027 -0.3812
   15MOL    C92 2640   3.318   5.680   7.625  0.3533  0.3272 -0.1177
   15MOL    C93 2641   3.194   5.768   7.659 -0.1459 -0.1641  0.5783
   15MOL    C94 2642   3.170   5.880   7.563  0.2998  0.1213  0.1165
   15MOL    H95 2643   3.374   5.729   7.546  0.3412 -0.5349 -0.6649
   15MOL    H96 2644   3.297   5.596   7.560  0.7904 -0.8235  1.2020
   15MOL    H97 2645   3.214   5.803   0.063  0.6609 -2.2210  1.1651
   15MOL    H98 2646   3.259   5.942   7.560  0.0944  0.3515 -1.2485
   15MOL    H99 2647   3.153   5.835   7.465  4.6186  0.7080 -0.9795
   15MOL   H100 2648   3.091   5.948   7.596 -0.2524 -0.6604  0.4214
   15MOL   C101 2649   3.078   5.663   7.655 -1.1444  0.2441  0.3189
   15MOL   C102 2650   2.935   5.711   7.691  0.4870 -0.0095  0.0064
   15MOL   C103 2651   2.853   5.585   7.674 -0.5837  0.3531 -0.2780
   15MOL   H104 2652   3.076   5.618   7.556  2.4049  1.1794 -0.2417
   15MOL   H105 2653   3.111   5.578   0.017 -1.0674 -0.6789 -1.0496
   15MOL   H106 2654   2.906   5.784   7.616  1.0571  1.2224  0.9735
   15MOL   H107 2655   2.897   5.499   0.027  0.5531  0.6812 -0.7033
   15MOL   H108 2656   2.748   5.606   7.697 -1.3912 -1.6415 -2.0575
   15MOL   H109 2657   2.848   5.547   7.572 -1.0705 -2.0970  0.6219
   15MOL   C110 2658   2.924   5.778   0.130  0.5677 -0.5371 -0.8348
   15MOL   C111 2659   2.777   5.817   0.167  0.8135 -0.0881 -0.4333
   15MOL   C112 2660   2.700   5.711   0.253 -0.5075  0.1977  0.1714
   15MOL   H113 2661   2.960   5.712   0.210  0.0036  1.6024  1.2602
   15MOL   H114 2662   2.984   5.869   0.131  0.9110 -0.7555  0.3682
   15MOL   H115 2663   2.722   5.829   0.074 -0.7634  2.5714  0.7642
   15MOL   H116 2664   2.734   5.711   0.357  1.1554  0.1857 -0.3553
   15MOL   H117 2665   2.593   5.723   0.236 -0.7148 -0.5981  0.8928
   15MOL   H118 2666   2.716   5.606   0.227  3.8594  1.0501 -1.0929
   15MOL   C119 2667   2.766   5.958   0.239 -0.1129  0.2310 -0.1224
   15MOL   C120 2668   2.634   6.031   0.224  0.1621 -1.1297  0.3969
   15MOL   C121 2669   2.539   6.002   0.346  1.1854 -0.3829 -0.1141
   15MOL   H122 2670   2.805   5.949   0.340 -3.4881  0.3612  1.2220
   15MOL   H123 2671   2.836   6.018   0.180  0.4658 -1.0610 -0.7780
   15MOL   H124 2672   2.591   5.993   0.131 -1.7413  0.8885  0.4075
   15MOL   H125 2673   2.506   5.898   0.353 -2.0051  0.6461  0.7575
   15MOL   H126 2674   2.594   6.031   0.436  0.1754 -2.4825  1.2220
   15MOL   H127 2675   2.441   6.050   0.341 -0.0755 -2.7364  0.8894
   15MOL   C128 2676   2.659   6.178   0.211 -0.4601 -0.6492  0.2168
   15MOL   C129 2677   2.536   6.273   0.197 -0.7635 -0.6806 -0.0434
   15MOL   C130 2678   2.580   6.420   0.229  0.2448  0.5083 -0.1118
   15MOL   H131 2679   2.734   6.212   0.282  0.9568  0.0939 -1.6015
   15MOL   H132 2680   2.719   6.197   0.123 -0.9423  2.0496  0.4342
   15MOL   H133 2681   2.461   6.249   0.272 -0.4678 -1.8142 -0.0915
   15MOL   H134 2682   2.500   6.490   0.204 -1.1918 -0.5415  1.4559
   15MOL   H135 2683   2.590   6.429   0.337  0.5627  0.6588 -0.1534
   15MOL   H136 2684   2.678   6.436   0.183  0.2428 -3.4266 -1.6877
   15MOL   C137 2685   2.480   6.262   0.050  0.0351 -0.3051  0.3670
   15MOL   C138 2686   2.334   6.315   0.039 -0.1757  0.0082 -0.6552
   15MOL   C139 2687   2.337   6.444   7.654 -0.4528  0.5171 -0.3075
   15MOL   H140 2688   2.544   6.306   7.671 -0.4482  0.8103  0.6025
   15MOL   H141 2689   2.500   6.158   0.023 -0.5376 -0.3803  0.2363
   15MOL   H142 2690   2.281   6.351   0.127 -0.0319  1.4490 -1.1375
   15MOL   H143 2691   2.242   6.490   7.626  0.1026  1.2604 -0.9965
   15MOL   H144 2692   2.396   6.522   0.007 -1.7724  0.9221  0.6541
   15MOL   H145 2693   2.382   6.437   7.555 -0.8943  0.5757 -0.5120
   15MOL   C146 2694   2.257   6.208   7.662 -0.2293 -0.0632 -0.4842
   15MOL   C147 2695   2.231   6.078   0.047 -0.6587 -0.2160 -0.3390
   15MOL   C148 2696   2.133   6.105   0.160  0.7318 -0.2635 -0.4869
   15MOL   H149 2697   2.167   6.259   7.627  0.4334  2.7820  1.7617
   15MOL   H150 2698   2.310   6.169   7.575 -0.6407  0.0092 -0.7668
   15MOL   H151 2699   2.321   6.038   0.095 -1.0819  0.9095  1.4370
   15MOL   H152 2700   2.154   6.047   0.250  1.8514 -0.0914 -0.6236
   15MOL   H153 2701   2.136   6.207   0.197 -0.5104  0.3251 -1.9391
   15MOL   H154 2702   2.030   6.089   0.129 -0.4412  0.8577  2.6394
   15MOL   C155 2703   2.180   5.960   7.656 -0.4510 -0.5130  0.3081
   15MOL   C156 2704   2.172   5.815   0.023 -0.3230 -0.8730 -0.6359
   15MOL   C157 2705   2.045   5.789   0.112  0.3903 -1.0006 -0.2522
   15MOL   H158 2706   2.081   5.981   7.616  0.5357  0.6071 -1.6234
   15MOL   H159 2707   2.242   5.962   7.566  0.3366 -0.8225  0.8366
   15MOL   H160 2708   2.254   5.815   0.095 -1.2831  0.8044  0.5241
   15MOL   H161 2709   2.072   5.815   0.215  0.7280 -1.3561 -0.2523
   15MOL   H162 2710   1.956   5.842   0.078 -0.4589 -2.3056 -0.1003
   15MOL   H163 2711   2.029   5.683   0.095  0.0862 -0.7292 -1.6993
   15MOL   C164 2712   2.189   5.702   7.614 -0.0569 -1.3634  0.0317
   15MOL   C165 2713   2.338   5.685   7.559  0.0781  0.2386  0.0723
   15MOL   C166 2714   2.427   5.613   7.662  0.3275  0.2496  0.7000
   15MOL   H167 2715   2.182   5.605   7.664 -1.6787 -1.0328  0.4716
   15MOL   H168 2716   2.119   5.715   7.532  2.3425  1.9523 -1.5573
   15MOL   H169 2717   2.384   5.784   7.550  0.2470  0.2354  0.9161
   15MOL   H170 2718   2.415   5.666   0.059 -2.9593  1.1366 -0.1583
   15MOL   H171 2719   2.394   5.510   7.667 -0.3897  0.4616  0.2922
   15MOL   H172 2720   2.532   5.630   7.638  0.0189 -0.1510 -0.9243
   15MOL   C173 2721   2.345   5.612   7.422  0.3338  0.1984 -0.2862
   15MOL   C174 2722   2.297   5.689   7.296  0.2462  1.1355  0.5038
   15MOL   C175 2723   2.292   5.596   7.175 -0.3942 -0.3525  0.4947
   15MOL   H176 2724   2.450   5.592   7.404  0.0508 -1.5670 -0.0587
   15MOL   H177 2725   2.289   5.518   7.424  1.2917 -0.3701 -0.1599
   15MOL   H178 2726   2.367   5.771   7.281  0.8734  0.9608  2.3068
   15MOL   H179 2727   2.263   5.658   7.091  0.3563 -0.7208 -0.0312
   15MOL   H180 2728   2.395   5.564   7.161  0.5002  2.7322 -0.3020
   15MOL   H181 2729   2.216   5.518   7.190 -0.4069 -0.0615  2.0558
   15MOL   H182 2730   2.198   5.727   7.324  0.5736  2.2333  0.1817
   16MOL     C1 2731   7.552   2.373   0.655 -1.1933 -0.5891  0.2503
   16MOL     C2 2732   7.462   2.366   0.526 -0.2498  0.3248  0.0551
   16MOL     C3 2733   7.543   2.401   0.398 -0.4881  0.0025  0.7554
   16MOL     H4 2734   7.509   2.324   0.743 -0.6919 -0.0001  0.8328
   16MOL     H5 2735   7.567   2.478   0.677 -2.5039 -0.8641  2.6006
   16MOL     H6 2736   7.376   2.431   0.541 -2.1561 -1.8726 -1.0322
   16MOL     H7 2737   7.471   2.405   0.317 -0.3823  0.7925  0.6985
   16MOL     H8 2738   7.594   2.496   0.409  0.8598 -0.2042 -3.0131
   16MOL     H9 2739   7.619   2.328   0.370  0.6580  1.1807  0.7547
   16MOL    H10 2740   7.656   2.339   0.657 -0.4739  1.5804  0.5242
   16MOL    C11 2741   7.397   2.225   0.515  0.4985  0.2915  0.5675
   16MOL    C12 2742   7.316   2.161   0.628  0.2308 -0.0410  0.1183
   16MOL    C13 2743   7.212   2.259   0.684 -0.5428 -0.0597  0.7059
   16MOL    H14 2744   7.317   2.230   0.442 -0.8386 -1.1536  1.9115
   16MOL    H15 2745   7.462   2.146   0.476  0.0056 -0.3960  1.1359
   16MOL    H16 2746   7.385   2.143   0.711 -1.3815  0.1490  1.5392
   16MOL    H17 2747   7.261   2.351   0.715 -0.8754  0.2331  0.3727
   16MOL    H18 2748   7.135   2.276   0.609 -0.4033 -0.0184  0.5711
   16MOL    H19 2749   7.159   2.216   0.769 -2.3520  2.2189  0.7725
   16MOL    C20 2750   7.256   2.021   0.588  0.3854  0.3437  0.8311
   16MOL    C21 2751   7.182   1.934   0.691  0.0029  0.2024  0.0616
   16MOL    C22 2752   7.090   1.829   0.607 -0.2718  0.0184 -0.2659
   16MOL    H23 2753   7.179   2.048   0.517  1.1632 -2.0467 -0.9741
   16MOL    H24 2754   7.330   1.962   0.534 -0.1391  2.4588 -2.3124
   16MOL    H25 2755   7.126   1.997   0.760  0.2049  1.3257 -0.7987
   16MOL    H26 2756   7.154   1.772   0.539 -2.4099 -0.2002 -2.1699
   16MOL    H27 2757   7.035   1.758   0.669  0.3722 -0.3282 -0.0910
   16MOL    H28 2758   7.018   1.883   0.545 -0.1163  2.1533  1.3638
   16MOL    C29 2759   7.299   1.856   0.777 -0.2865 -0.5477 -0.0003
   16MOL    C30 2760   7.281   1.865   0.930  0.4273  0.4511  0.0259
   16MOL    C31 2761   7.155   1.788   0.964  0.3551  0.2179 -0.1531
   16MOL    H32 2762   7.299   1.752   0.744 -0.6732 -0.1142 -1.3880
   16MOL    H33 2763   7.399   1.895   0.761 -1.1245  1.7438  0.2091
   16MOL    H34 2764   7.265   1.967   0.965  2.5031  0.7041  0.2909
   16MOL    H35 2765   7.153   1.689   0.918  0.1890  0.2598 -0.2396
   16MOL    H36 2766   7.141   1.790   1.072 -0.1626  0.6871 -0.2282
   16MOL    H37 2767   7.070   1.839   0.917  1.5182  2.0098 -0.3811
   16MOL    C38 2768   7.402   1.802   1.000  0.1007 -0.1149  0.5997
   16MOL    C39 2769   7.413   1.809   1.158 -0.1116 -0.1897 -0.0017
   16MOL    C40 2770   7.526   1.720   1.211  0.1553  0.2821 -0.2465
   16MOL    H41 2771   7.405   1.695   0.981 -2.3254 -0.0580 -0.3052
   16MOL    H42 2772   7.496   1.840   0.961  0.5263 -1.6608  0.1010
   16MOL    H43 2773   7.318   1.763   1.186  0.0258 -1.0757 -0.9528
   16MOL    H44 2774   7.519   1.614   1.185 -1.4627  0.4466 -0.5242
   16MOL    H45 2775   7.615   1.756   1.159 -0.1572  1.2593 -0.1086
   16MOL    H46 2776   7.534   1.732   1.319  1.4002  0.4030 -0.3542
   16MOL    C47 2777   7.429   1.955   1.199 -0.0245 -0.1551 -0.1763
   16MOL    C48 2778   7.441   1.988   1.349  1.0472  0.4236  0.5407
   16MOL    C49 2779   7.489   2.140   1.365  0.4133  0.3800 -0.2102
   16MOL    H50 2780   7.511   2.003   1.147 -1.7291  1.5297 -1.3532
   16MOL    H51 2781   7.350   2.023   1.168  0.5781  1.1117  1.0356
   16MOL    H52 2782   7.534   1.948   1.388  0.4994  1.2668  2.7700
   16MOL    H53 2783   7.586   2.159   1.319  0.9117 -1.2439  0.1469
   16MOL    H54 2784   7.416   2.209   1.324 -0.0664 -0.0248 -0.0495
   16MOL    H55 2785   7.507   2.158   1.471 -0.2017  1.6936 -0.3265
   16MOL    C56 2786   7.321   1.951   1.427  0.3926 -0.2196 -0.0708
   16MOL    C57 2787   7.350   1.876   1.557 -0.4161 -0.2088  0.4607
   16MOL    C58 2788   7.436   1.972   1.649  0.5117 -0.1472  0.6611
   16MOL    H59 2789   7.251   2.034   1.436  1.1493  0.5261 -1.0470
   16MOL    H60 2790   7.265   1.883   1.362 -1.0054 -0.8636  1.7507
   16MOL    H61 2791   7.406   1.784   1.541 -0.2622 -0.6775  3.4657
   16MOL    H62 2792   7.388   2.066   1.676  0.1224 -0.1912  0.1246
   16MOL    H63 2793   7.461   1.930   1.747  0.6123 -0.5329  0.4727
   16MOL    H64 2794   7.534   1.996   1.607 -0.2608  1.1024 -0.4712
   16MOL    C65 2795   7.221   1.844   1.637 -0.5325  0.0340 -0.0172
   16MOL    C66 2796   7.116   1.752   1.575  0.4892  0.2162 -0.9334
   16MOL    C67 2797   7.167   1.613   1.538  0.2051  0.1129 -0.2658
   16MOL    H68 2798   7.262   1.801   1.729  0.2648 -2.6420 -1.5997
   16MOL    H69 2799   7.173   1.936   1.672 -0.3754 -0.3290  1.1736
   16MOL    H70 2800   7.086   1.788   1.477 -0.1516  0.8483 -0.5141
   16MOL    H71 2801   7.232   1.613   1.451  2.2986  2.1502  1.2253
   16MOL    H72 2802   7.229   1.569   1.616  1.1375  0.8859 -0.5522
   16MOL    H73 2803   7.086   1.542   1.519 -0.7866  1.2191 -0.2297
   16MOL    C74 2804   7.000   1.739   1.671  0.1948  0.0150  0.3665
   16MOL    C75 2805   6.912   1.872   1.682  0.7329 -0.1938 -0.0610
   16MOL    C76 2806   6.868   1.933   1.540  0.9380  0.0739  0.2276
   16MOL    H77 2807   6.932   1.661   1.637 -0.2609  0.4886  0.1862
   16MOL    H78 2808   7.033   1.719   1.773 -0.7532  0.3935  0.7491
   16MOL    H79 2809   6.967   1.948   1.737  0.2615  0.3884 -0.3895
   16MOL    H80 2810   6.818   1.848   1.492 -1.3131  0.8017  1.1860
   16MOL    H81 2811   6.810   2.025   1.553  0.4936  0.1208 -1.9085
   16MOL    H82 2812   6.948   1.942   1.467  0.0504 -0.9415 -0.8892
   16MOL    C83 2813   6.790   1.851   1.771 -0.0351 -0.0143 -1.0756
   16MOL    C84 2814   6.724   1.982   1.822 -0.3377 -0.8325 -0.0274
   16MOL    C85 2815   6.579   1.954   1.869 -0.0215  0.0775  0.1955
   16MOL    H86 2816   6.710   1.799   1.718 -3.4746  2.7691  1.1774
   16MOL    H87 2817   6.819   1.783   1.850  1.6659 -1.5474 -2.9549
   16MOL    H88 2818   6.726   2.060   1.746 -0.1359 -1.1943 -0.3971
   16MOL    H89 2819   6.512   1.904   1.799 -0.9404  0.5449  0.7294
   16MOL    H90 2820   6.580   1.896   1.960 -1.2969  1.6782  1.2661
   16MOL    H91 2821   6.522   2.045   1.889  1.5001  0.8178  1.2193
   16MOL    C92 2822   6.814   2.032   1.938  0.4031  1.0315 -0.6241
   16MOL    C93 2823   6.803   2.184   1.964  0.2635  0.5282 -0.0453
   16MOL    C94 2824   6.777   2.203   2.115  0.0582  0.1998  0.6471
   16MOL    H95 2825   6.769   1.985   2.025  2.0816  1.4440  0.4936
   16MOL    H96 2826   6.915   1.990   1.946  0.8556  1.9776 -1.2721
   16MOL    H97 2827   6.722   2.230   1.906 -0.4024  1.4354  1.5693
   16MOL    H98 2828   6.691   2.155   2.162  0.7583 -0.9440  0.7861
   16MOL    H99 2829   6.863   2.178   2.178  0.0920  0.1940  0.5980
   16MOL   H100 2830   6.785   2.310   2.130  1.5362  0.5096 -2.0573
   16MOL   C101 2831   6.932   2.244   1.924 -0.3741  0.1491  0.2085
   16MOL   C102 2832   6.934   2.308   1.780 -0.7181 -0.6713  0.2109
   16MOL   C103 2833   6.857   2.445   1.767 -0.8676 -0.0682 -0.5065
   16MOL   H104 2834   6.961   2.323   1.993 -1.1269 -0.0964  0.8083
   16MOL   H105 2835   7.018   2.177   1.923  0.2763  0.9782 -1.1792
   16MOL   H106 2836   6.884   2.240   1.710  0.2912 -1.5124  0.2947
   16MOL   H107 2837   6.901   2.518   1.836  1.0697 -2.8433  1.2983
   16MOL   H108 2838   6.875   2.496   1.672  0.2823 -0.4623 -0.5102
   16MOL   H109 2839   6.750   2.435   1.783 -0.6673  1.0004  1.7280
   16MOL   C110 2840   7.078   2.328   1.730  0.5146  0.5581  0.0402
   16MOL   C111 2841   7.105   2.367   1.584 -0.4578  0.5357  0.3495
   16MOL   C112 2842   7.261   2.369   1.568 -0.0677 -0.5224  0.0724
   16MOL   H113 2843   7.131   2.399   1.794 -1.5118  1.5443  0.6365
   16MOL   H114 2844   7.134   2.238   1.756  0.3968  0.2568 -0.7432
   16MOL   H115 2845   7.055   2.462   1.571  2.1522  1.8619 -0.5041
   16MOL   H116 2846   7.289   2.435   1.486 -1.1447  0.2824  0.3302
   16MOL   H117 2847   7.302   2.400   1.664  1.7113 -2.2302 -0.1037
   16MOL   H118 2848   7.303   2.270   1.550  3.0451  0.5183  1.2434
   16MOL   C119 2849   7.038   2.265   1.491  0.2503 -0.7855 -0.1148
   16MOL   C120 2850   7.047   2.295   1.342  0.1044 -0.1592 -0.4729
   16MOL   C121 2851   7.032   2.171   1.248  0.7593  0.2605 -0.3105
   16MOL   H122 2852   7.074   2.165   1.516  0.8468 -0.5715 -0.1248
   16MOL   H123 2853   6.931   2.259   1.512  0.2805  1.5624  0.9104
   16MOL   H124 2854   7.149   2.328   1.324 -0.8474  3.2052  0.0461
   16MOL   H125 2855   6.943   2.110   1.266 -0.6272  1.3244 -3.3097
   16MOL   H126 2856   7.027   2.204   1.144  0.5206  2.7375  0.4487
   16MOL   H127 2857   7.107   2.093   1.262 -0.9364 -1.1295  1.3610
   16MOL   C128 2858   6.950   2.411   1.304  0.1077  0.0575  0.5640
   16MOL   C129 2859   6.987   2.481   1.165  1.0325 -0.2870  0.8430
   16MOL   C130 2860   6.863   2.528   1.099 -0.4658  0.0918 -0.1541
   16MOL   H131 2861   6.850   2.367   1.300  0.3814 -0.6651  1.5097
   16MOL   H132 2862   6.923   2.479   1.385 -1.0616  0.7577 -0.3938
   16MOL   H133 2863   7.030   2.405   1.099 -0.1594 -1.7955  1.7637
   16MOL   H134 2864   6.802   2.457   1.044 -0.6263  0.8095 -0.9171
   16MOL   H135 2865   6.793   2.570   1.172 -1.2005 -0.6379 -0.4341
   16MOL   H136 2866   6.896   2.611   1.037  1.0670  1.0426  1.8409
   16MOL   C137 2867   7.091   2.588   1.193  0.6050  0.3711 -0.1263
   16MOL   C138 2868   7.173   2.640   1.070 -0.1017  0.0382 -0.1939
   16MOL   C139 2869   7.263   2.751   1.120  0.8447 -1.1000  0.6588
   16MOL   H140 2870   7.032   2.667   1.238  2.4080  2.0167 -0.5797
   16MOL   H141 2871   7.164   2.555   1.267 -1.0207 -0.4381  1.1352
   16MOL   H142 2872   7.112   2.687   0.994  0.7617  0.0519 -0.8794
   16MOL   H143 2873   7.204   2.832   1.163  3.4486  0.2458  1.7918
   16MOL   H144 2874   7.343   2.725   1.189  2.1605  1.5743  0.2315
   16MOL   H145 2875   7.310   2.792   1.030 -1.9294 -0.5296 -0.6031
   16MOL   C146 2876   7.250   2.526   0.996 -0.3815 -0.6832 -0.1036
   16MOL   C147 2877   7.366   2.464   1.074  0.1289 -0.1627  0.2718
   16MOL   C148 2878   7.359   2.311   1.048 -0.1580 -0.0755 -0.1307
   16MOL   H149 2879   7.184   2.448   0.957 -2.4487  0.6793  0.5670
   16MOL   H150 2880   7.272   2.571   0.899  0.4800 -1.0575 -0.0894
   16MOL   H151 2881   7.365   2.474   1.183  2.9450  2.7274  0.1101
   16MOL   H152 2882   7.343   2.295   0.941  0.5791 -3.3616  0.1800
   16MOL   H153 2883   7.447   2.252   1.073  0.0428 -0.6724 -2.1525
   16MOL   H154 2884   7.275   2.265   1.100  0.1710 -1.3873 -0.7349
   16MOL   C155 2885   7.499   2.526   1.014 -0.4960  0.4684 -0.7303
   16MOL   C156 2886   7.620   2.492   1.091 -0.1399  1.1196 -0.5606
   16MOL   C157 2887   0.043   2.506   1.001 -0.4900 -0.6402 -0.0931
   16MOL   H158 2888   7.497   2.495   0.909  1.0866  0.2522 -0.7006
   16MOL   H159 2889   7.495   2.635   1.022 -2.8120  0.2911  0.9815
   16MOL   H160 2890   7.605   2.385   1.106 -0.6563  0.6037 -4.3129
   16MOL   H161 2891   0.127   2.444   1.032 -1.0133 -0.6535  1.3222
   16MOL   H162 2892   0.016   2.477   0.900 -1.3628  0.1955 -0.1062
   16MOL   H163 2893   0.078   2.610   1.003 -0.1782 -0.7368 -0.4838
   16MOL   C164 2894   7.627   2.568   1.227 -0.2595 -0.3001 -0.1021
   16MOL   C165 2895   0.060   2.541   1.302 -0.9169 -0.2963  0.4920
   16MOL   C166 2896   0.074   2.629   1.426  0.5370  0.8618  0.4965
   16MOL   H167 2897   7.608   2.675   1.223 -0.0542 -0.3158 -1.9562
   16MOL   H168 2898   7.553   2.530   1.298  1.2627 -0.0010  1.6747
   16MOL   H169 2899   0.152   2.562   1.248  0.2834 -0.1416  2.5701
   16MOL   H170 2900   7.690   2.601   1.493 -1.3078 -2.4186 -2.9508
   16MOL   H171 2901   0.174   2.621   1.468  0.6510  1.6300  0.3802
   16MOL   H172 2902   0.073   2.737   1.413 -0.1230  1.0571  2.0472
   16MOL   C173 2903   0.063   2.392   1.325 -0.3314 -0.1484  0.0297
   16MOL   C174 2904   0.184   2.345   1.417 -0.0711  0.7981  0.5598
   16MOL   C175 2905   0.181   2.192   1.441 -0.0168 -0.0278  0.0038
   16MOL   H176 2906   7.669   2.354   1.370 -0.0280  0.8167  1.5124
   16MOL   H177 2907   0.073   2.341   1.229 -0.3011 -0.0370 -0.0275
   16MOL   H178 2908   0.175   2.393   1.515 -0.9352 -1.2080  1.4821
   16MOL   H179 2909   0.090   2.176   1.499 -0.6221  1.6932 -0.4486
   16MOL   H180 2910   0.180   2.123   1.357 -0.6090 -0.1276  0.0948
   16MOL   H181 2911   0.268   2.165   1.501 -0.3309 -1.2320 -0.0687
   16MOL   H182 2912   0.279   2.377   1.375 -0.2848  1.2045  0.3776
   17MOL     C1 2913   3.748   1.330   6.275  0.1521 -0.1621  0.0968
   17MOL     C2 2914   3.627   1.259   6.217 -0.5414  0.2542  0.6500
   17MOL     C3 2915   3.609   1.110   6.258  0.1415  0.7245 -0.5261
   17MOL     H4 2916   3.762   1.434   6.246  0.6435 -0.8907 -2.3910
   17MOL     H5 2917   3.838   1.269   6.267 -0.6553 -1.3391 -0.1486
   17MOL     H6 2918   3.640   1.281   6.111  0.5394 -1.2103  0.4602
   17MOL     H7 2919   3.596   1.105   6.367  2.1496  2.0135 -0.2080
   17MOL     H8 2920   3.519   1.080   6.205  1.1333 -1.5580 -0.9832
   17MOL     H9 2921   3.692   1.043   6.236 -0.2384  0.9692 -2.8285
   17MOL    H10 2922   3.728   1.333   6.382  2.2014 -2.5104  0.6032
   17MOL    C11 2923   3.497   1.337   6.264  0.4111  0.0107 -0.3453
   17MOL    C12 2924   3.414   1.392   6.147 -0.3903 -0.1058  0.2305
   17MOL    C13 2925   3.273   1.417   6.196 -0.2121  0.0373  0.4117
   17MOL    H14 2926   3.431   1.268   6.317 -0.5273  1.7479  0.7793
   17MOL    H15 2927   3.500   1.424   6.330  0.3035  0.5985 -1.1124
   17MOL    H16 2928   3.391   1.313   6.075  1.2954 -2.5335  2.2888
   17MOL    H17 2929   3.203   1.442   6.116 -0.0483  2.5934  1.0217
   17MOL    H18 2930   3.236   1.325   6.242  2.0177 -0.4449  1.2665
   17MOL    H19 2931   3.268   1.489   6.277 -0.5837 -2.6165  2.8222
   17MOL    C20 2932   3.472   1.517   6.080  0.2203  0.4009 -0.0896
   17MOL    C21 2933   3.431   1.544   5.932 -0.0700  0.5542 -0.0795
   17MOL    C22 2934   3.488   1.676   5.885 -0.1267  0.1069  0.0547
   17MOL    H23 2935   3.438   1.608   6.132  1.6777  0.2704  1.1239
   17MOL    H24 2936   3.579   1.527   6.096  0.6780 -4.0719  0.1975
   17MOL    H25 2937   3.322   1.552   5.929 -0.3765 -2.4253  1.1214
   17MOL    H26 2938   3.593   1.663   5.859  0.6953  1.8112  2.4507
   17MOL    H27 2939   3.432   1.713   5.799  0.4970  0.9557  0.0080
   17MOL    H28 2940   3.487   1.752   5.963  2.7198  0.6169 -0.3718
   17MOL    C29 2941   3.464   1.425   5.840  0.1801 -1.0169  0.0708
   17MOL    C30 2942   3.436   1.443   5.691  0.2490 -0.2357 -0.5783
   17MOL    C31 2943   3.498   1.329   5.603  0.2442 -0.5200  0.8499
   17MOL    H32 2944   3.568   1.395   5.849  0.8900  1.6613  1.1467
   17MOL    H33 2945   3.395   1.349   5.876 -0.6614  0.2962  1.3034
   17MOL    H34 2946   3.490   1.535   5.665 -1.5409  0.8692 -0.4802
   17MOL    H35 2947   3.439   1.238   5.596 -1.3776  0.7468 -3.1388
   17MOL    H36 2948   3.513   1.370   5.504 -1.0315 -0.2074  0.7725
   17MOL    H37 2949   3.601   1.314   5.635  0.8634  0.4764 -0.6193
   17MOL    C38 2950   3.281   1.459   5.670 -0.0658 -0.4328  0.4326
   17MOL    C39 2951   3.230   1.480   5.523  0.7293 -0.2619  0.5117
   17MOL    C40 2952   3.077   1.509   5.527 -0.4790  0.1707 -0.4613
   17MOL    H41 2953   3.238   1.381   5.733  0.1572 -0.3308  0.7082
   17MOL    H42 2954   3.257   1.547   5.731  1.7096  1.6660 -1.7960
   17MOL    H43 2955   3.257   1.390   5.467  1.4808 -0.2464  0.8486
   17MOL    H44 2956   3.042   1.555   5.435  1.5084 -0.0198 -1.3299
   17MOL    H45 2957   3.016   1.424   5.559  1.2783 -0.7050  0.6663
   17MOL    H46 2958   3.059   1.591   5.596  1.5844 -1.5651  2.2789
   17MOL    C47 2959   3.302   1.594   5.450 -0.1763 -0.1354 -0.1941
   17MOL    C48 2960   3.356   1.556   5.314 -0.9239  0.5209  0.4458
   17MOL    C49 2961   3.237   1.549   5.214  0.6221 -0.3115  0.1335
   17MOL    H50 2962   3.247   1.687   5.436  2.1661  1.4715  0.8063
   17MOL    H51 2963   3.387   1.623   5.512  1.1801 -2.4252 -0.9011
   17MOL    H52 2964   3.408   1.460   5.318  0.4240  1.2253  0.0126
   17MOL    H53 2965   3.168   1.633   5.207  0.8294 -0.1702 -0.2614
   17MOL    H54 2966   3.276   1.541   5.112  0.4952 -0.6451  0.1115
   17MOL    H55 2967   3.175   1.462   5.234  0.3672 -0.8594 -2.7544
   17MOL    C56 2968   3.461   1.648   5.258  0.9368 -0.2194  0.5837
   17MOL    C57 2969   3.445   1.803   5.296 -0.3218  0.5590 -0.3197
   17MOL    C58 2970   3.582   1.869   5.274  0.4702  0.5460 -0.2320
   17MOL    H59 2971   3.556   1.608   5.294  0.7652 -0.6819  0.5216
   17MOL    H60 2972   3.469   1.629   5.151  0.9571 -0.6110  0.6565
   17MOL    H61 2973   3.425   1.811   5.403 -3.4815 -2.0457 -0.6377
   17MOL    H62 2974   3.604   1.855   5.169 -0.7900 -0.2789 -0.3961
   17MOL    H63 2975   3.585   1.973   5.306 -0.7435  0.1927  1.1040
   17MOL    H64 2976   3.666   1.818   5.321  0.5052 -1.0146 -1.9930
   17MOL    C65 2977   3.339   1.877   5.216 -0.4032 -0.4104  0.2713
   17MOL    C66 2978   3.298   2.022   5.254 -0.5184  0.0908 -0.1264
   17MOL    C67 2979   3.213   2.089   5.143  0.2476  0.3500  0.0882
   17MOL    H68 2980   3.375   1.891   5.114  2.5311 -0.5005  1.2467
   17MOL    H69 2981   3.257   1.805   5.217  0.8034 -1.8199 -0.2738
   17MOL    H70 2982   3.395   2.071   5.251  1.0539 -2.9926 -1.5590
   17MOL    H71 2983   3.192   2.195   5.156 -0.1193  0.1281  1.3138
   17MOL    H72 2984   3.250   2.075   5.041 -0.1274  1.5904 -0.2251
   17MOL    H73 2985   3.114   2.045   5.131 -0.4318  1.3893  1.7944
   17MOL    C74 2986   3.260   2.048   5.401 -0.5718  0.7125 -0.5162
   17MOL    C75 2987   3.130   1.981   5.451 -0.4826  0.0845  0.3984
   17MOL    C76 2988   3.141   1.940   5.597  0.2911 -0.0875 -0.7155
   17MOL    H77 2989   3.343   2.006   5.459 -1.7578  0.6615  1.1961
   17MOL    H78 2990   3.270   2.154   5.423 -0.4651  0.7154 -0.5758
   17MOL    H79 2991   3.108   1.894   5.390  2.3471  0.5035 -1.2865
   17MOL    H80 2992   3.063   1.866   5.615  0.6817 -0.7019 -1.4882
   17MOL    H81 2993   3.238   1.891   5.599  0.9591  1.1785 -1.7330
   17MOL    H82 2994   3.134   2.031   5.657 -3.3423 -0.7657  0.0346
   17MOL    C83 2995   3.015   2.080   5.440 -0.1192 -0.2705 -0.4287
   17MOL    C84 2996   2.863   2.033   5.450 -0.3755  0.7943  0.3040
   17MOL    C85 2997   2.777   2.155   5.468 -0.2810 -0.0803 -0.0059
   17MOL    H86 2998   3.040   2.162   5.507  3.1150 -1.9008  0.4694
   17MOL    H87 2999   3.024   2.127   5.342 -1.2197  0.5949 -0.1239
   17MOL    H88 3000   2.860   1.988   5.550 -0.9783  0.8062  0.2928
   17MOL    H89 3001   2.758   2.214   5.378  1.7839 -0.3146 -0.6093
   17MOL    H90 3002   2.683   2.109   5.498  0.5207 -2.4430 -0.9597
   17MOL    H91 3003   2.799   2.220   5.552 -0.5387 -2.1048  1.6428
   17MOL    C92 3004   2.811   1.941   5.327  0.0053  0.5955  0.4390
   17MOL    C93 3005   2.706   1.830   5.362 -0.0779 -0.5556  0.7944
   17MOL    C94 3006   2.758   1.739   5.476  0.4577  0.7649 -0.0762
   17MOL    H95 3007   2.771   1.996   5.241 -2.5723 -0.8969  0.6614
   17MOL    H96 3008   2.899   1.893   5.284 -0.4386  1.1582 -1.1738
   17MOL    H97 3009   2.693   1.766   5.274  1.0190 -0.3337  0.4684
   17MOL    H98 3010   2.802   1.789   5.562  0.4934 -0.3883  0.5891
   17MOL    H99 3011   2.677   1.670   5.496  3.1695 -1.6359  3.2535
   17MOL   H100 3012   2.841   1.682   5.434 -0.5736 -1.6049  1.0499
   17MOL   C101 3013   2.566   1.886   5.390  0.1724 -0.2683 -0.4095
   17MOL   C102 3014   2.490   1.971   5.280  0.3980 -0.1313 -0.0717
   17MOL   C103 3015   2.473   1.888   5.154  0.0078  0.0515  0.5369
   17MOL   H104 3016   2.503   1.800   5.413  1.7725 -1.2920  0.1784
   17MOL   H105 3017   2.585   1.942   5.482  0.4568  2.3737 -2.0081
   17MOL   H106 3018   2.546   2.058   5.245 -0.6268  0.8695  0.7457
   17MOL   H107 3019   2.410   1.802   5.178 -0.7303 -0.1495 -1.9681
   17MOL   H108 3020   2.417   1.942   5.078 -0.4180  2.9346  2.8247
   17MOL   H109 3021   2.569   1.848   5.120  0.5359  0.4364  1.5551
   17MOL   C110 3022   2.356   2.027   5.335 -0.0725  0.7643 -0.0179
   17MOL   C111 3023   2.366   2.139   5.436  0.3457 -0.2567 -0.1269
   17MOL   C112 3024   2.436   2.264   5.379 -0.3478 -0.8431  0.1059
   17MOL   H113 3025   2.291   2.062   5.255 -0.1697  1.0763  0.1986
   17MOL   H114 3026   2.303   1.940   5.373 -0.3529  1.8201  2.1071
   17MOL   H115 3027   2.436   2.111   5.514 -1.7861 -2.0124  1.2174
   17MOL   H116 3028   2.533   2.249   5.333  0.1880  2.1921  0.1251
   17MOL   H117 3029   2.378   2.314   5.301 -1.7136  0.3932  1.8756
   17MOL   H118 3030   2.445   2.344   5.453 -1.6053 -1.1853  0.6423
   17MOL   C119 3031   2.230   2.176   5.506  0.0053 -0.4614 -0.2095
   17MOL   C120 3032   2.244   2.226   5.650 -0.0302  0.3809  0.2468
   17MOL   C121 3033   2.099   2.269   5.702  0.4155  0.2054  0.3199
   17MOL   H122 3034   2.172   2.244   5.445 -2.3657 -3.1530 -1.1021
   17MOL   H123 3035   2.170   2.085   5.518 -2.2250  1.0673  0.5093
   17MOL   H124 3036   2.322   2.301   5.638 -0.2687  0.6765  0.5214
   17MOL   H125 3037   2.031   2.186   5.684 -2.1015  2.3320 -0.3939
   17MOL   H126 3038   2.115   2.302   5.804 -1.1042 -1.6970  1.1924
   17MOL   H127 3039   2.057   2.352   5.643  0.8670  0.3789  0.2420
   17MOL   C128 3040   2.299   2.128   5.754  0.2312  0.3561  0.1588
   17MOL   C129 3041   2.395   2.183   5.860  0.6448 -0.1405 -0.1522
   17MOL   C130 3042   2.380   2.090   5.983  0.1536 -0.2868  0.4796
   17MOL   H131 3043   2.212   2.095   5.811 -0.9180  2.4417 -0.3693
   17MOL   H132 3044   2.335   2.035   5.709  0.8820 -0.0356  1.4429
   17MOL   H133 3045   2.367   2.286   5.882  0.2357 -0.3629  0.3765
   17MOL   H134 3046   2.291   2.123   6.037  0.4261 -0.3328  0.9546
   17MOL   H135 3047   2.362   1.985   5.958 -1.9384  0.0127  0.6436
   17MOL   H136 3048   2.466   2.102   6.048 -0.1316 -1.2443  1.0357
   17MOL   C137 3049   2.542   2.188   5.812 -0.3074  0.0433  0.2446
   17MOL   C138 3050   2.645   2.277   5.892  0.2833  0.2442  0.1218
   17MOL   C139 3051   2.773   2.206   5.939  0.2788  0.2157 -0.6332
   17MOL   H140 3052   2.594   2.092   5.803 -0.9696 -0.5335  2.3556
   17MOL   H141 3053   2.535   2.223   5.709 -0.1263 -1.6655 -0.3550
   17MOL   H142 3054   2.596   2.311   5.983  1.6543  0.6549  0.7166
   17MOL   H143 3055   2.760   2.127   6.012 -2.4785  0.2548 -1.0307
   17MOL   H144 3056   2.800   2.150   5.849  0.7069 -0.2600 -0.2055
   17MOL   H145 3057   2.850   2.272   5.979  0.2334 -0.4110  0.5054
   17MOL   C146 3058   2.700   2.401   5.811 -0.2247  0.1991 -0.0009
   17MOL   C147 3059   2.594   2.510   5.771 -0.2923 -0.2316 -0.4740
   17MOL   C148 3060   2.523   2.568   5.897 -0.1249  0.2888  0.1602
   17MOL   H149 3061   2.780   2.449   5.866  0.1834  0.0157 -0.4325
   17MOL   H150 3062   2.747   2.363   5.720 -1.3679 -0.8168 -0.1931
   17MOL   H151 3063   2.513   2.463   5.715 -0.8499 -0.0533  0.1676
   17MOL   H152 3064   2.470   2.485   5.943 -1.2481  0.3308 -1.0096
   17MOL   H153 3065   2.593   2.619   5.963 -1.2833  0.0312  1.6134
   17MOL   H154 3066   2.454   2.641   5.853 -0.0388  0.3396  0.1096
   17MOL   C155 3067   2.654   2.625   5.685  0.0500 -0.1781 -0.0895
   17MOL   C156 3068   2.662   2.597   5.531  0.3181  0.4958  0.0575
   17MOL   C157 3069   2.517   2.600   5.470  0.2247 -0.4609  0.4852
   17MOL   H158 3070   2.599   2.717   5.699 -1.0704 -0.4307 -2.5123
   17MOL   H159 3071   2.752   2.637   5.732 -0.7572 -0.0883  1.5709
   17MOL   H160 3072   2.700   2.496   5.516 -0.9608 -0.0705  0.5004
   17MOL   H161 3073   2.442   2.539   5.519  0.6901 -2.0627 -0.7621
   17MOL   H162 3074   2.475   2.701   5.469  0.1137 -0.4994 -1.4965
   17MOL   H163 3075   2.523   2.574   5.364 -0.6068 -1.2947  0.6431
   17MOL   C164 3076   2.771   2.694   5.471 -0.1683  0.0173 -0.4593
   17MOL   C165 3077   2.795   2.684   5.315 -0.3488  0.0716  1.1256
   17MOL   C166 3078   2.868   2.806   5.260  0.2642 -0.4987 -0.4583
   17MOL   H167 3079   2.744   2.799   5.480 -0.5223  0.3141 -4.3500
   17MOL   H168 3080   2.867   2.682   5.521 -1.3068 -0.6144  1.6554
   17MOL   H169 3081   2.700   2.683   5.262  0.2269 -1.6836  0.0984
   17MOL   H170 3082   2.967   2.827   5.300 -0.1877  1.0025 -0.1144
   17MOL   H171 3083   2.882   2.798   5.152  1.5522 -1.4905 -0.2204
   17MOL   H172 3084   2.805   2.894   5.275  1.0535  0.1042 -0.6432
   17MOL   C173 3085   2.857   2.550   5.282  0.0485 -0.6591 -0.5229
   17MOL   C174 3086   3.011   2.549   5.306 -0.1013  1.1234 -0.3549
   17MOL   C175 3087   3.084   2.431   5.247 -0.0228  0.7082 -0.4944
   17MOL   H176 3088   2.808   2.468   5.334 -2.4019  0.4411 -1.0581
   17MOL   H177 3089   2.835   2.527   5.178 -0.9047 -0.9472 -0.2615
   17MOL   H178 3090   3.024   2.544   5.414  0.7718  0.7874 -0.4721
   17MOL   H179 3091   3.186   2.431   5.284 -0.0914 -0.8444 -0.2803
   17MOL   H180 3092   3.032   2.340   5.275  0.2788 -0.0583 -2.3246
   17MOL   H181 3093   3.074   2.433   5.138 -1.3252 -1.3151 -0.4395
   17MOL   H182 3094   3.063   2.635   5.265  0.2075  0.5690 -1.1433
   18MOL     C1 3095   5.828   1.096   2.681  0.3030 -0.1362  0.1301
   18MOL     C2 3096   5.794   0.988   2.788  0.8741 -0.4777  0.2372
   18MOL     C3 3097   5.650   0.993   2.816 -0.4942  0.8288  0.7713
   18MOL     H4 3098   5.798   1.195   2.715  0.2890 -0.4661  1.0841
   18MOL     H5 3099   5.776   1.074   2.588 -0.9361  0.6598  0.6385
   18MOL     H6 3100   5.839   1.020   2.882 -0.3436  0.8414  0.3908
   18MOL     H7 3101   5.617   0.925   2.894 -3.5515  1.2733 -0.1030
   18MOL     H8 3102   5.609   1.091   2.838  0.9885  1.5013  0.6249
   18MOL     H9 3103   5.590   0.954   2.734 -0.0739  2.5424 -0.3877
   18MOL    H10 3104   5.935   1.083   2.663  0.3240  1.2596 -0.8865
   18MOL    C11 3105   5.829   0.842   2.756  0.1967  0.8735  0.4200
   18MOL    C12 3106   5.975   0.805   2.768 -0.1176 -0.9924  0.2228
   18MOL    C13 3107   6.032   0.827   2.903  0.0179  0.4561 -0.1975
   18MOL    H14 3108   5.769   0.779   2.821  0.0531  1.1331  0.5379
   18MOL    H15 3109   5.804   0.835   2.650  1.1991  0.0983  0.2140
   18MOL    H16 3110   6.033   0.867   2.699  0.1953 -1.1587  0.3331
   18MOL    H17 3111   6.022   0.745   2.974 -1.3989  1.1126  0.3822
   18MOL    H18 3112   6.140   0.841   2.897  0.2917 -1.5792 -0.2394
   18MOL    H19 3113   5.992   0.916   2.952 -1.8475  1.7439 -3.8316
   18MOL    C20 3114   6.002   0.662   2.716 -0.5661 -0.3721 -0.2245
   18MOL    C21 3115   5.941   0.624   2.582 -0.2309  0.2494 -0.6466
   18MOL    C22 3116   5.978   0.722   2.461 -0.3754  0.4317 -0.3157
   18MOL    H23 3117   6.111   0.659   2.718 -0.5765 -1.6267 -0.9711
   18MOL    H24 3118   5.959   0.590   2.786 -0.3484 -0.0346  0.2638
   18MOL    H25 3119   5.832   0.628   2.586 -0.1314  2.7759  0.3250
   18MOL    H26 3120   5.935   0.817   2.494 -1.0328 -0.5837  1.7994
   18MOL    H27 3121   6.086   0.734   2.453 -0.4321  0.0099 -2.0536
   18MOL    H28 3122   5.930   0.680   2.373  1.2616 -0.5360 -0.7749
   18MOL    C29 3123   5.982   0.480   2.547  0.1761 -0.3529  0.3874
   18MOL    C30 3124   5.949   0.356   2.643 -0.1355  0.4144  0.1475
   18MOL    C31 3125   5.795   0.348   2.663  0.0478  0.0904  0.0180
   18MOL    H32 3126   5.932   0.454   2.454 -2.2274 -1.3855  1.8936
   18MOL    H33 3127   6.088   0.487   2.524  0.0322  0.2942 -0.0794
   18MOL    H34 3128   5.994   0.367   2.741 -1.4194  1.2126  0.6582
   18MOL    H35 3129   5.754   0.437   2.710  2.0594  0.0554  1.8942
   18MOL    H36 3130   5.734   0.335   2.573 -0.8709  2.1003  0.3347
   18MOL    H37 3131   5.778   0.262   2.728  1.1103 -0.1809 -0.0576
   18MOL    C38 3132   6.003   0.231   2.584  0.5300 -0.1705 -0.7271
   18MOL    C39 3133   6.035   0.113   2.679  0.3339  0.0292 -0.6076
   18MOL    C40 3134   6.049   7.682   2.606 -0.2122  0.1377  0.3343
   18MOL    H41 3135   5.944   0.193   2.500 -0.6780 -0.1398  0.1017
   18MOL    H42 3136   6.091   0.250   2.522 -0.6022  2.0009 -1.7177
   18MOL    H43 3137   5.955   0.112   2.752  0.1672 -0.5923 -0.7971
   18MOL    H44 3138   5.982   7.660   2.523  1.2626  0.2198 -0.9014
   18MOL    H45 3139   6.150   7.676   2.566 -1.0816 -1.2306 -1.7295
   18MOL    H46 3140   6.021   7.595   2.665 -0.0733  0.2746  0.6003
   18MOL    C47 3141   6.175   0.143   2.754  0.1712  0.6013  0.3986
   18MOL    C48 3142   6.183   0.081   2.890  0.0510 -0.3092  0.4132
   18MOL    C49 3143   6.324   0.088   2.955  0.4438  0.1405 -0.1040
   18MOL    H50 3144   6.257   0.093   2.701  0.3864 -2.7262  3.6418
   18MOL    H51 3145   6.205   0.247   2.757 -2.1751  1.3093 -0.2382
   18MOL    H52 3146   6.150   7.675   2.895 -0.6213 -0.3011 -2.8432
   18MOL    H53 3147   6.336   0.191   2.989 -0.7847  0.6531 -1.1599
   18MOL    H54 3148   6.319   0.023   3.042 -1.2726  2.1652  1.3849
   18MOL    H55 3149   6.408   0.062   2.892 -0.1605  2.7724 -2.0774
   18MOL    C56 3150   6.085   0.160   2.990 -0.1374  0.4098 -0.2098
   18MOL    C57 3151   6.064   0.091   3.128 -0.2007  0.6956 -0.9932
   18MOL    C58 3152   5.967   0.170   3.215 -0.2717  0.2813 -0.5083
   18MOL    H59 3153   6.138   0.254   3.010  1.8256 -0.4641 -1.1903
   18MOL    H60 3154   5.988   0.183   2.947  0.2477  0.5108 -1.0322
   18MOL    H61 3155   6.151   0.112   3.191 -0.1211  0.4618 -1.0233
   18MOL    H62 3156   5.992   0.276   3.219 -2.2757  0.7790 -0.9048
   18MOL    H63 3157   5.862   0.155   3.190 -0.4644  1.0517 -0.1594
   18MOL    H64 3158   5.971   0.142   3.320  0.6490 -1.0504 -0.8899
   18MOL    C65 3159   6.034   7.637   3.116  0.8895  0.0163  0.0252
   18MOL    C66 3160   5.951   7.561   3.229  0.5889 -0.3979 -0.3318
   18MOL    C67 3161   5.881   7.430   3.187 -0.4508 -0.6709 -0.0499
   18MOL    H68 3162   5.974   7.614   3.028 -1.5623 -1.3626  1.9977
   18MOL    H69 3163   6.133   7.593   3.105  0.3832 -1.7095  2.0092
   18MOL    H70 3164   5.875   7.631   3.265 -0.3693 -1.0703 -1.0173
   18MOL    H71 3165   5.937   7.370   3.115 -2.3971 -1.6403 -0.7840
   18MOL    H72 3166   5.824   7.376   3.262 -3.7849  0.6697 -1.4745
   18MOL    H73 3167   5.798   7.475   3.132  1.8831  0.1492 -3.0227
   18MOL    C74 3168   6.039   7.532   3.356 -0.6664 -0.0543 -0.6092
   18MOL    C75 3169   5.981   7.483   3.498 -0.5993  0.2212  0.2891
   18MOL    C76 3170   5.862   7.556   3.538 -0.4589 -0.4582 -0.4154
   18MOL    H77 3171   6.105   7.452   3.321  0.4446  2.0267 -3.5149
   18MOL    H78 3172   6.100   7.622   3.354 -1.2906  0.3633 -1.1311
   18MOL    H79 3173   6.056   7.513   3.571  1.2906  1.1602 -1.9798
   18MOL    H80 3174   5.866   7.662   3.514  2.1136 -0.5122 -0.3096
   18MOL    H81 3175   5.772   7.522   3.486 -1.7070  0.7174  0.9668
   18MOL    H82 3176   5.855   7.540   3.646 -0.6974  0.6443 -0.2636
   18MOL    C83 3177   5.971   7.328   3.519 -0.1047 -0.8356  1.5181
   18MOL    C84 3178   6.103   7.245   3.522  0.5837  0.3261 -0.1139
   18MOL    C85 3179   6.187   7.274   3.650 -0.5061  0.2653  0.4394
   18MOL    H86 3180   5.917   7.309   3.611 -0.2297  0.5603  1.7404
   18MOL    H87 3181   5.901   7.286   3.447  0.0712  2.1535 -0.4681
   18MOL    H88 3182   6.175   7.260   3.442  0.8931  2.4480  0.5282
   18MOL    H89 3183   6.220   7.378   3.651  0.4276  0.0162 -1.4566
   18MOL    H90 3184   6.130   7.256   3.741 -0.6747  2.3237  0.7673
   18MOL    H91 3185   6.285   7.225   3.654 -0.8490 -0.7148 -2.1073
   18MOL    C92 3186   6.080   7.087   3.522 -0.2596  0.2752  0.7079
   18MOL    C93 3187   6.011   7.029   3.400  0.1416 -0.4378 -0.0883
   18MOL    C94 3188   6.065   7.069   3.262 -0.1844 -0.4729  1.2260
   18MOL    H95 3189   6.178   7.041   3.529 -0.3441 -0.1386 -0.6296
   18MOL    H96 3190   6.014   7.068   3.607 -1.5676 -2.0504 -0.7628
   18MOL    H97 3191   5.909   7.066   3.397  0.1601 -0.3298  0.4451
   18MOL    H98 3192   6.054   7.176   3.250  0.0737 -0.4481  1.1939
   18MOL    H99 3193   6.171   7.051   3.243 -0.2193  0.1453  0.4131
   18MOL   H100 3194   6.031   7.023   3.169  0.2389  1.2190  0.2187
   18MOL   C101 3195   6.002   6.873   3.396  0.4404 -0.1824  0.1930
   18MOL   C102 3196   5.956   6.799   3.524  0.2892  0.3338 -0.4343
   18MOL   C103 3197   5.826   6.864   3.581  0.2283 -0.2346 -0.4492
   18MOL   H104 3198   5.922   6.850   3.326  0.4130  0.7550 -0.0794
   18MOL   H105 3199   6.086   6.820   3.350  0.3985 -0.5038  0.4755
   18MOL   H106 3200   6.032   6.828   3.598  3.3876  1.0733 -3.7667
   18MOL   H107 3201   5.830   6.970   3.604 -1.1969 -0.5893  1.4854
   18MOL   H108 3202   5.752   6.854   3.501 -0.9939 -1.2109  0.7936
   18MOL   H109 3203   5.792   6.818   3.673 -2.1292  1.0597 -0.6526
   18MOL   C110 3204   5.939   6.647   3.504  0.0526 -0.2871 -0.6844
   18MOL   C111 3205   6.065   6.563   3.522  0.1931 -0.1783 -0.2980
   18MOL   C112 3206   6.095   6.557   3.680 -0.0220  0.0845  0.6474
   18MOL   H113 3207   5.866   6.606   3.574  1.0305 -2.3553 -0.8454
   18MOL   H114 3208   5.905   6.628   3.402 -0.2945  0.5477 -0.7313
   18MOL   H115 3209   6.149   6.615   3.475  0.4716 -0.9287 -0.6257
   18MOL   H116 3210   6.202   6.547   3.691  0.6080  1.9402 -3.0186
   18MOL   H117 3211   6.073   6.653   3.728 -1.2994 -0.2558  0.7652
   18MOL   H118 3212   6.040   6.480   3.735 -1.4679  1.5312  1.3061
   18MOL   C119 3213   6.056   6.418   3.486  0.3700  0.4588  0.0580
   18MOL   C120 3214   6.032   6.383   3.327 -0.1177 -0.1621  0.0435
   18MOL   C121 3215   6.151   6.444   3.240  0.3027 -0.6132  1.1751
   18MOL   H122 3216   6.141   6.356   3.514  0.4071  0.3261 -0.3352
   18MOL   H123 3217   5.976   6.368   3.539  0.7397  0.5909  0.7505
   18MOL   H124 3218   5.943   6.420   3.276  1.2771  0.8039 -1.7570
   18MOL   H125 3219   6.157   6.416   3.135 -0.2954  2.4290  0.2771
   18MOL   H126 3220   6.146   6.552   3.251 -1.3666 -0.3859 -1.4756
   18MOL   H127 3221   6.246   6.421   3.289  1.1633  2.2415  0.9195
   18MOL   C128 3222   6.035   6.228   3.300  0.4822  0.0386  0.0529
   18MOL   C129 3223   5.918   6.171   3.210 -0.3103  0.3098 -0.3717
   18MOL   C130 3224   5.924   6.239   3.074 -0.2184 -0.5571  1.3406
   18MOL   H131 3225   6.134   6.206   3.259  1.9373  0.4376  3.2043
   18MOL   H132 3226   6.029   6.179   3.397  2.0678 -1.6309 -0.6715
   18MOL   H133 3227   5.823   6.198   3.257  0.5928  3.0331 -0.0542
   18MOL   H134 3228   5.866   6.200   2.990  1.7668  0.6027 -0.6359
   18MOL   H135 3229   5.877   6.337   3.081  1.6179  0.5160 -0.8260
   18MOL   H136 3230   6.026   6.247   3.036 -0.6074  2.6180  0.7859
   18MOL   C137 3231   5.939   6.016   3.190 -0.1776  0.2409 -0.4768
   18MOL   C138 3232   5.903   5.929   3.315  0.3938  0.1472 -0.2170
   18MOL   C139 3233   5.751   5.948   3.346  0.2019 -0.2514 -0.7471
   18MOL   H140 3234   5.876   5.987   3.107  0.8240 -0.8220 -0.8841
   18MOL   H141 3235   6.044   6.003   3.165  0.4877  0.8654  1.8299
   18MOL   H142 3236   5.966   5.968   3.395  1.6861 -0.6523 -0.8202
   18MOL   H143 3237   5.723   6.030   3.412 -0.1363 -0.0392 -1.1497
   18MOL   H144 3238   5.691   5.964   3.257  0.1444 -1.0285 -0.8429
   18MOL   H145 3239   5.717   5.861   3.400 -1.4912  0.1733 -1.1136
   18MOL   C146 3240   5.934   5.781   3.300 -0.5733  0.0896  0.0201
   18MOL   C147 3241   5.936   5.704   3.435 -0.6305 -0.1361  0.2909
   18MOL   C148 3242   5.932   5.558   3.408 -0.1347 -0.1172  0.1554
   18MOL   H149 3243   5.860   5.743   3.230 -0.3822 -0.0949 -0.0806
   18MOL   H150 3244   6.031   5.760   3.254 -1.7080 -0.9640 -1.9490
   18MOL   H151 3245   5.846   5.724   3.493 -0.7243  0.6384 -0.1134
   18MOL   H152 3246   5.852   5.533   3.339  0.8136 -2.0724 -0.2437
   18MOL   H153 3247   6.022   5.515   3.364  0.5599  0.7121  0.7286
   18MOL   H154 3248   5.924   5.506   3.504  1.4672  0.2205  0.4860
   18MOL   C155 3249   6.057   5.737   3.527  0.8117  0.0366  0.3939
   18MOL   C156 3250   6.046   5.689   3.675  0.4496 -0.0109 -0.8671
   18MOL   C157 3251   6.174   5.731   3.749  0.3817  0.6540  0.0381
   18MOL   H158 3252   6.149   5.692   3.490  0.4420  0.0553 -0.5434
   18MOL   H159 3253   6.076   5.844   3.535 -1.2953  0.5836 -1.3437
   18MOL   H160 3254   6.045   5.580   3.679  1.3759  0.0115  0.1341
   18MOL   H161 3255   6.161   5.834   3.784 -0.0981  0.0519  1.6503
   18MOL   H162 3256   6.198   5.671   3.836 -0.7981  0.6465  0.3590
   18MOL   H163 3257   6.263   5.738   3.686 -0.9219 -0.2487 -1.9436
   18MOL   C164 3258   5.918   5.733   3.744 -0.2087 -0.1253  0.4898
   18MOL   C165 3259   5.822   5.611   3.782 -1.1937  0.1561 -0.3704
   18MOL   C166 3260   5.867   5.548   3.915  0.2995 -0.6246  0.2002
   18MOL   H167 3261   5.949   5.792   3.830 -0.0530 -0.1420  0.4438
   18MOL   H168 3262   5.856   5.804   3.689  0.6465  0.4081  0.2095
   18MOL   H169 3263   5.829   5.536   3.703 -1.3661 -0.2972  0.0388
   18MOL   H170 3264   5.818   5.457   3.947 -0.1695  0.0731  1.4941
   18MOL   H171 3265   5.972   5.521   3.906  0.0385 -1.1184 -1.7503
   18MOL   H172 3266   5.852   5.623   3.992 -0.1577 -0.0453 -0.4384
   18MOL   C173 3267   5.671   5.639   3.798  0.2902  0.8080  0.1335
   18MOL   C174 3268   5.593   5.658   3.667 -0.0226  0.0467 -0.0856
   18MOL   C175 3269   5.436   5.650   3.680 -0.0096  0.1915 -0.5064
   18MOL   H176 3270   5.618   5.557   3.846  0.5513  0.2193 -0.5804
   18MOL   H177 3271   5.643   5.717   3.869 -2.2861  1.6269 -1.6990
   18MOL   H178 3272   5.630   5.571   3.614  2.0059  1.1579 -0.5489
   18MOL   H179 3273   5.382   5.615   3.592 -1.0974  0.4535  0.0477
   18MOL   H180 3274   5.406   5.588   3.765  0.9363 -1.3622 -1.2985
   18MOL   H181 3275   5.396   5.751   3.688 -2.7670 -0.9518  0.7114
   18MOL   H182 3276   5.627   5.752   3.623 -3.5091  1.8279  0.8218
   19MOL     C1 3277   1.896   6.631   4.058  0.2768  0.0351 -0.5181
   19MOL     C2 3278   1.849   6.615   3.915 -0.0068  0.1802  0.2573
   19MOL     C3 3279   1.909   6.489   3.849 -0.6122 -0.4262  0.6508
   19MOL     H4 3280   1.855   6.548   4.115  0.6829 -0.3612 -0.7948
   19MOL     H5 3281   1.858   6.724   4.100 -2.2208 -0.4392 -1.6793
   19MOL     H6 3282   1.886   6.701   3.860 -1.4708  0.8651  0.3297
   19MOL     H7 3283   1.870   6.405   3.906  0.6900 -1.1196  0.5522
   19MOL     H8 3284   1.881   6.466   3.746 -1.2218 -3.6560  1.4894
   19MOL     H9 3285   2.018   6.479   3.847 -0.6391 -0.6111 -0.1281
   19MOL    H10 3286   2.004   6.643   4.064  1.0993 -6.0424  0.1321
   19MOL    C11 3287   1.698   6.610   3.912 -0.0128 -0.8598 -0.3011
   19MOL    C12 3288   1.637   6.752   3.902 -0.6545 -0.1764 -0.1243
   19MOL    C13 3289   1.622   6.773   3.747  0.2443 -0.0672  0.3024
   19MOL    H14 3290   1.652   6.540   3.842  1.1827 -0.1585 -1.8313
   19MOL    H15 3291   1.663   6.577   4.010  2.3319 -1.4328  0.3780
   19MOL    H16 3292   1.714   6.818   3.942 -0.7978 -1.3063  2.1209
   19MOL    H17 3293   1.576   6.870   3.728  2.2403  0.6734 -0.9242
   19MOL    H18 3294   1.719   6.771   3.698  0.3785  1.1451  0.4899
   19MOL    H19 3295   1.547   6.706   3.704 -1.4296  1.3767  0.8912
   19MOL    C20 3296   1.504   6.774   3.975 -0.1887 -0.4747  0.5392
   19MOL    C21 3297   1.510   6.848   4.108  0.4591  0.5797  0.1468
   19MOL    C22 3298   1.555   6.995   4.092 -0.6226  0.1908  0.0049
   19MOL    H23 3299   1.429   6.823   3.913  0.8560 -0.5873 -0.8371
   19MOL    H24 3300   1.468   6.672   3.990  2.5894 -1.4663  0.6645
   19MOL    H25 3301   1.575   6.792   4.176 -2.1056 -0.3130  1.9650
   19MOL    H26 3302   1.652   7.001   4.041 -0.0722 -2.0193  0.7275
   19MOL    H27 3303   1.476   7.051   4.043 -1.5648  0.3694  1.7123
   19MOL    H28 3304   1.550   7.052   4.184  3.3552  2.2326 -0.8970
   19MOL    C29 3305   1.375   6.831   4.174 -0.4808  0.1432 -0.7160
   19MOL    C30 3306   1.353   6.701   4.260  0.4335  0.5197 -0.0853
   19MOL    C31 3307   1.397   6.722   4.399  0.7308  0.1453 -0.6002
   19MOL    H32 3308   1.342   6.916   4.235 -0.1598 -0.9234  0.9688
   19MOL    H33 3309   1.294   6.837   4.101 -2.4411  0.0650  1.3869
   19MOL    H34 3310   1.411   6.620   4.216 -0.0033  0.3470 -0.3448
   19MOL    H35 3311   1.403   6.620   4.435  1.1018  1.0116  1.8420
   19MOL    H36 3312   1.496   6.766   4.405  0.6600  0.1442  0.7523
   19MOL    H37 3313   1.320   6.772   4.458  0.7580 -2.1579  1.4610
   19MOL    C38 3314   1.205   6.644   4.236  0.2597  0.1383  0.2359
   19MOL    C39 3315   1.179   6.497   4.281 -0.3633  0.2144 -0.0918
   19MOL    C40 3316   1.135   6.479   4.429 -0.0492  0.4466  0.0462
   19MOL    H41 3317   1.125   6.706   4.275  2.0801  1.7058  1.5949
   19MOL    H42 3318   1.188   6.655   4.129 -0.4032 -0.7609  0.2457
   19MOL    H43 3319   1.276   6.452   4.259  0.0061  1.1287 -0.3714
   19MOL    H44 3320   1.031   6.509   4.438  0.0943  0.0239  3.4876
   19MOL    H45 3321   1.152   6.377   4.465  0.4211  0.6056  0.2701
   19MOL    H46 3322   1.185   6.541   4.503  0.4808  0.8029 -0.5995
   19MOL    C47 3323   1.064   6.438   4.191  0.1080 -0.7216 -0.3785
   19MOL    C48 3324   1.105   6.405   4.048 -0.3074 -0.4060  0.6469
   19MOL    C49 3325   1.124   6.247   4.041 -0.1320 -0.4441  0.4827
   19MOL    H50 3326   1.021   6.350   4.239 -1.1217 -0.8868 -1.7451
   19MOL    H51 3327   0.975   6.499   4.202  1.3237  1.2511 -1.2069
   19MOL    H52 3328   1.201   6.448   4.022 -0.3505  0.8057  2.4045
   19MOL    H53 3329   1.117   6.213   3.938 -0.6625  1.2555 -0.0545
   19MOL    H54 3330   1.217   6.209   4.085 -1.9847 -2.8747  2.4835
   19MOL    H55 3331   1.034   6.201   4.082 -2.2316  2.1721 -1.0053
   19MOL    C56 3332   1.010   6.455   3.932 -0.4665 -0.0130  0.7263
   19MOL    C57 3333   0.995   6.609   3.919  0.1560  0.3351  0.0504
   19MOL    C58 3334   1.111   6.678   3.856 -0.2513 -0.3598  0.0894
   19MOL    H59 3335   1.048   6.425   3.835  1.5088 -1.3795  1.8797
   19MOL    H60 3336   0.915   6.407   3.955 -2.3013  3.0229 -0.2016
   19MOL    H61 3337   0.978   6.653   4.018  1.4349 -0.9593  0.8681
   19MOL    H62 3338   1.125   6.651   3.752  0.2128 -0.9113  0.2935
   19MOL    H63 3339   1.110   6.786   3.870 -1.3878 -0.2126 -1.1020
   19MOL    H64 3340   1.205   6.641   3.897  1.2509 -1.0508 -3.7984
   19MOL    C65 3341   0.854   6.661   3.862 -0.1351 -0.6277 -0.0798
   19MOL    C66 3342   0.802   6.615   3.719  0.1345 -0.4125  0.3074
   19MOL    C67 3343   0.754   6.472   3.724  0.5379  0.1341 -1.4728
   19MOL    H68 3344   0.773   6.637   3.930  2.5720 -1.0707  3.0944
   19MOL    H69 3345   0.846   6.770   3.859 -1.6329 -0.7516 -1.3205
   19MOL    H70 3346   0.884   6.599   3.649 -1.7912  0.5935 -2.2743
   19MOL    H71 3347   0.838   6.403   3.727  1.7258  1.5963 -0.7457
   19MOL    H72 3348   0.692   6.465   3.813  1.3450 -1.3454 -1.0141
   19MOL    H73 3349   0.701   6.450   3.631  0.0564 -0.7237 -1.0012
   19MOL    C74 3350   0.691   6.717   3.668  0.7096  0.4821 -0.4059
   19MOL    C75 3351   0.675   6.722   3.519  0.3298 -0.2277  0.4184
   19MOL    C76 3352   0.537   6.780   3.479  0.9071 -0.3172 -0.1007
   19MOL    H77 3353   0.594   6.681   3.702  1.1133  1.0824  1.4533
   19MOL    H78 3354   0.702   6.817   3.709  0.2331 -0.1891  1.4249
   19MOL    H79 3355   0.674   6.618   3.487  0.6393  0.5675 -2.2230
   19MOL    H80 3356   0.455   6.724   3.524 -0.7341  2.2059  0.1784
   19MOL    H81 3357   0.527   6.887   3.500  0.5607 -0.4054  0.1880
   19MOL    H82 3358   0.521   6.783   3.372  0.6167 -0.0917 -0.0525
   19MOL    C83 3359   0.787   6.805   3.451  0.0452  0.5097 -0.1287
   19MOL    C84 3360   0.807   6.771   3.303 -0.0124 -0.0361  0.1339
   19MOL    C85 3361   0.896   6.883   3.252 -0.2355 -0.2826  0.1164
   19MOL    H86 3362   0.769   6.912   3.465 -1.0516  0.3169 -0.0618
   19MOL    H87 3363   0.880   6.784   3.504  1.4211 -0.1474 -2.7124
   19MOL    H88 3364   0.707   6.768   3.260 -0.0079 -3.2114  0.2052
   19MOL    H89 3365   0.847   6.979   3.266  0.6059  0.4357 -1.6844
   19MOL    H90 3366   0.999   6.888   3.287 -0.1573  3.8774 -0.4156
   19MOL    H91 3367   0.917   6.874   3.145 -1.2364 -0.3056 -0.0819
   19MOL    C92 3368   0.878   6.629   3.288  0.1716 -0.3545  0.1337
   19MOL    C93 3369   0.865   6.579   3.142  0.6550  0.3371 -0.0039
   19MOL    C94 3370   0.995   6.512   3.094  0.0318  0.1737  0.4193
   19MOL    H95 3371   0.980   6.634   3.324  0.0667 -4.1080  1.1903
   19MOL    H96 3372   0.837   6.550   3.351 -0.3716 -2.0430 -2.2681
   19MOL    H97 3373   0.848   6.669   3.083  1.4560  0.5936  0.1427
   19MOL    H98 3374   0.987   6.469   2.994  1.1630  0.6753  0.1031
   19MOL    H99 3375   1.075   6.585   3.100  1.3097 -1.1336 -0.4222
   19MOL   H100 3376   1.017   6.421   3.148  2.2758  1.8055  2.3426
   19MOL   C101 3377   0.742   6.482   3.124 -0.3746  0.3915 -0.5609
   19MOL   C102 3378   0.673   6.461   2.985  1.0666  0.0446 -0.6316
   19MOL   C103 3379   0.637   6.597   2.929 -0.7701  0.7813 -0.5389
   19MOL   H104 3380   0.770   6.386   3.168 -0.6549  1.7089  2.6061
   19MOL   H105 3381   0.670   6.521   3.196 -1.0010 -0.7686 -0.5505
   19MOL   H106 3382   0.577   6.410   2.994  1.7457 -1.1733 -0.1747
   19MOL   H107 3383   0.564   6.595   2.849 -0.9833  0.5357 -0.3402
   19MOL   H108 3384   0.598   6.666   3.004 -1.7219  0.8832 -1.1235
   19MOL   H109 3385   0.732   6.636   2.891 -0.5313 -0.7338 -1.5542
   19MOL   C110 3386   0.745   6.382   2.876 -0.5246 -0.3152  0.7717
   19MOL   C111 3387   0.789   6.239   2.911  0.5722  0.7331  0.2260
   19MOL   C112 3388   0.664   6.152   2.954 -0.6278 -0.5895  0.5477
   19MOL   H113 3389   0.690   6.374   2.782  1.6843  0.6029 -0.6229
   19MOL   H114 3390   0.831   6.438   2.840 -0.6086 -1.8094 -1.8809
   19MOL   H115 3391   0.856   6.242   2.996 -0.2415  0.8298  0.8709
   19MOL   H116 3392   0.624   6.179   3.052  1.9305 -1.5840  1.9180
   19MOL   H117 3393   0.585   6.142   2.879  1.7229  0.1365 -2.1193
   19MOL   H118 3394   0.705   6.051   2.963 -1.4134 -1.0829 -1.1279
   19MOL   C119 3395   0.864   6.164   2.796 -0.4411 -0.0681 -0.3172
   19MOL   C120 3396   1.015   6.199   2.793 -0.7069 -0.0762 -0.3501
   19MOL   C121 3397   1.099   6.136   2.907  0.0434  0.3367  0.6494
   19MOL   H122 3398   0.857   6.057   2.813  0.8866 -0.3529 -1.4608
   19MOL   H123 3399   0.816   6.186   2.700  2.0211 -0.7564 -1.7378
   19MOL   H124 3400   1.040   6.304   2.808  2.0301 -0.9497  1.7094
   19MOL   H125 3401   1.057   6.140   3.007  0.4029  1.3372  0.7593
   19MOL   H126 3402   1.136   6.035   2.889 -0.1463  0.2885  0.5330
   19MOL   H127 3403   1.198   6.181   2.911  0.4218 -0.3518 -0.4499
   19MOL   C128 3404   1.072   6.179   2.647 -0.4808 -0.8998  0.0103
   19MOL   C129 3405   1.228   6.162   2.626 -0.0438 -0.1726  0.1351
   19MOL   C130 3406   1.258   6.121   2.477 -0.1296 -0.5687 -0.0048
   19MOL   H131 3407   1.026   6.089   2.607  0.3051 -1.1656 -0.3228
   19MOL   H132 3408   1.034   6.263   2.589  2.5888 -0.0634 -0.9289
   19MOL   H133 3409   1.270   6.083   2.689  1.3453  1.3226  1.0909
   19MOL   H134 3410   1.360   6.083   2.472 -0.2531 -0.7111 -1.5821
   19MOL   H135 3411   1.205   6.032   2.445 -0.2098 -0.6488  0.3536
   19MOL   H136 3412   1.250   6.199   2.401  0.3657  0.0195  0.5323
   19MOL   C137 3413   1.292   6.293   2.660 -0.9617  0.5189  0.4868
   19MOL   C138 3414   1.450   6.300   2.655  0.2327 -0.5706  0.1771
   19MOL   C139 3415   1.504   6.441   2.674 -0.2811  0.0752  0.3447
   19MOL   H140 3416   1.263   6.373   2.592 -0.1678  0.2975 -0.1162
   19MOL   H141 3417   1.270   6.325   2.762 -1.3886  2.0059 -0.0512
   19MOL   H142 3418   1.483   6.261   2.558  0.9127  0.7049 -0.1118
   19MOL   H143 3419   1.488   6.482   2.774 -1.5424 -2.2175  1.1171
   19MOL   H144 3420   1.610   6.446   2.649 -0.1469 -3.5446 -0.0614
   19MOL   H145 3421   1.456   6.509   2.604  0.0082 -1.5852 -1.5134
   19MOL   C146 3422   1.516   6.205   2.754 -0.0501  0.6057 -0.1821
   19MOL   C147 3423   1.656   6.154   2.726 -0.5876  0.4274 -0.4643
   19MOL   C148 3424   1.739   6.132   2.849 -0.0981 -0.1440 -0.4632
   19MOL   H149 3425   1.519   6.257   2.849  1.0001 -1.3611  0.8981
   19MOL   H150 3426   1.453   6.120   2.781 -0.4826  0.7193 -0.8252
   19MOL   H151 3427   1.704   6.232   2.667 -0.3468 -0.0550 -0.9146
   19MOL   H152 3428   1.837   6.120   2.803  0.1904  0.0350  0.0973
   19MOL   H153 3429   1.732   6.220   2.913 -1.5548  0.0872 -0.9213
   19MOL   H154 3430   1.718   6.043   2.909 -0.3238 -0.5372 -1.1247
   19MOL   C155 3431   1.649   6.017   2.646 -0.3238 -0.0566 -1.3170
   19MOL   C156 3432   1.786   5.943   2.618  0.0404  0.1763  0.0175
   19MOL   C157 3433   1.752   5.798   2.600  0.3805 -0.3144  0.3474
   19MOL   H158 3434   1.584   5.952   2.705  1.5908  0.4596  1.4378
   19MOL   H159 3435   1.591   6.024   2.555 -0.2894  0.1512 -1.3215
   19MOL   H160 3436   1.853   5.937   2.704 -0.5480  0.4440  0.4983
   19MOL   H161 3437   1.748   5.760   2.702  0.0599 -0.6541  0.2070
   19MOL   H162 3438   1.661   5.786   2.542  1.3493  1.3875 -1.6121
   19MOL   H163 3439   1.827   5.731   2.559 -0.2484 -0.4864 -0.5470
   19MOL   C164 3440   1.870   6.014   2.515 -0.3539 -0.4991 -0.5371
   19MOL   C165 3441   2.017   5.960   2.500  0.1846  0.2062  0.0233
   19MOL   C166 3442   2.063   5.944   2.353  0.2997  0.1676 -0.4656
   19MOL   H167 3443   1.812   5.994   2.425 -0.1308 -2.8900 -0.1767
   19MOL   H168 3444   1.864   6.123   2.523 -1.0395 -0.6754  1.5790
   19MOL   H169 3445   2.014   5.859   2.542 -0.5534  0.0454 -0.3910
   19MOL   H170 3446   2.042   6.038   2.302 -2.8290 -0.2808 -0.0679
   19MOL   H171 3447   2.166   5.914   2.333  0.4009 -0.3529  0.8032
   19MOL   H172 3448   2.004   5.861   2.315  1.5273 -1.3579  0.8556
   19MOL   C173 3449   2.112   6.045   2.577  0.2136 -0.6481  0.4453
   19MOL   C174 3450   2.253   5.988   2.584 -0.5270  0.3723  0.3614
   19MOL   C175 3451   2.325   6.075   2.684  0.6961  0.0856  0.6200
   19MOL   H176 3452   2.109   6.142   2.528 -0.2013 -0.2333  1.2790
   19MOL   H177 3453   2.072   6.055   2.678  0.9862 -1.9114  0.8817
   19MOL   H178 3454   2.307   5.979   2.489  0.0050  0.4906  0.6521
   19MOL   H179 3455   2.332   6.173   2.637  0.6146 -0.3989 -0.4075
   19MOL   H180 3456   2.295   6.071   2.789 -1.8945  0.2217 -0.0788
   19MOL   H181 3457   2.428   6.044   2.703  0.3481 -1.7325 -0.3984
   19MOL   H182 3458   2.242   5.885   2.616 -0.9117  0.5691  0.8640
   20MOL     C1 3459   5.614   2.939   3.521 -0.3799 -0.0083  0.4139
   20MOL     C2 3460   5.607   3.062   3.614  0.4210 -0.2361 -1.0277
   20MOL     C3 3461   5.495   3.148   3.564 -0.3751  0.2121 -0.4914
   20MOL     H4 3462   5.617   2.963   3.414 -0.6550  3.0256  1.0516
   20MOL     H5 3463   5.532   2.867   3.530 -1.0251  0.9943  2.9520
   20MOL     H6 3464   5.701   3.117   3.608 -1.1557  2.8082  0.9352
   20MOL     H7 3465   5.527   3.197   3.472 -1.0179 -1.4059 -1.6051
   20MOL     H8 3466   5.402   3.095   3.544  0.0712 -0.0450 -1.9628
   20MOL     H9 3467   5.472   3.230   3.632 -0.4481  0.4311 -0.7817
   20MOL    H10 3468   5.702   2.876   3.524 -0.6072 -0.2941  1.1930
   20MOL    C11 3469   5.566   3.003   3.754 -0.2053 -0.5959  0.8240
   20MOL    C12 3470   5.666   2.896   3.819 -0.3118 -0.6183 -0.3552
   20MOL    C13 3471   5.807   2.942   3.825 -0.5535 -0.7286 -0.0492
   20MOL    H14 3472   5.528   3.081   3.820  0.4655 -0.4574  1.0496
   20MOL    H15 3473   5.474   2.946   3.743 -0.6349  0.1205  0.6879
   20MOL    H16 3474   5.670   2.813   3.749  0.9398 -2.5451  1.9490
   20MOL    H17 3475   5.845   2.992   3.736  0.2985 -0.2062  0.6012
   20MOL    H18 3476   5.815   3.022   3.899  2.0616 -1.0867  0.0914
   20MOL    H19 3477   5.876   2.860   3.847 -1.7912 -1.9438 -0.5805
   20MOL    C20 3478   5.621   2.864   3.960 -0.0935  0.3872 -0.5783
   20MOL    C21 3479   5.682   2.754   4.043  0.1095 -0.3080  0.0692
   20MOL    C22 3480   5.638   2.767   4.190  0.0210 -0.3171 -0.5642
   20MOL    H23 3481   5.633   2.958   4.015 -0.9755 -0.2540  0.7425
   20MOL    H24 3482   5.514   2.854   3.941  0.5663 -0.1452 -4.2666
   20MOL    H25 3483   5.791   2.758   4.037  0.3013 -3.8097  0.2133
   20MOL    H26 3484   5.665   2.681   4.251  0.4425  0.9653  1.0791
   20MOL    H27 3485   5.688   2.855   4.228  0.9883  0.1732 -2.9011
   20MOL    H28 3486   5.530   2.776   4.202 -0.0980 -0.4385 -1.4760
   20MOL    C29 3487   5.657   2.610   3.991 -0.1593  0.2311  0.0771
   20MOL    C30 3488   5.733   2.488   4.062 -0.7871 -0.4545 -0.1946
   20MOL    C31 3489   5.684   2.358   3.999 -0.5405 -0.0154 -0.3453
   20MOL    H32 3490   5.548   2.600   3.992 -0.1972  0.7732  1.4404
   20MOL    H33 3491   5.679   2.603   3.884 -1.4058  0.0401 -0.1825
   20MOL    H34 3492   5.710   2.483   4.169  0.2594  0.3902  0.0778
   20MOL    H35 3493   5.722   2.353   3.897  0.1159  0.3345 -0.1196
   20MOL    H36 3494   5.725   2.277   4.059 -0.9029 -0.0301 -0.1183
   20MOL    H37 3495   5.576   2.356   3.983 -0.5785 -1.7089  0.0027
   20MOL    C38 3496   5.894   2.485   4.048  0.6640  0.0098  0.0666
   20MOL    C39 3497   5.964   2.426   4.173 -0.3087  0.8264  0.1948
   20MOL    C40 3498   6.094   2.353   4.129 -0.2310  0.5748  0.0405
   20MOL    H41 3499   5.922   2.437   3.955 -0.3971  0.2821 -0.4016
   20MOL    H42 3500   5.935   2.583   4.022  0.5213  0.4321  1.3717
   20MOL    H43 3501   5.893   2.358   4.219 -0.6512  0.8781 -0.2497
   20MOL    H44 3502   6.055   2.260   4.086 -1.1430  1.3764 -0.8904
   20MOL    H45 3503   6.144   2.420   4.059 -1.3059  1.3662  0.0159
   20MOL    H46 3504   6.151   2.328   4.218 -1.0670 -3.2668 -0.3766
   20MOL    C47 3505   5.976   2.548   4.270 -0.3748 -0.1735 -0.1456
   20MOL    C48 3506   6.024   2.516   4.416  0.1660  0.3900 -0.3356
   20MOL    C49 3507   6.113   2.632   4.473  0.8027  0.3295 -0.0605
   20MOL    H50 3508   6.035   2.621   4.214 -1.1681  0.9224  0.4328
   20MOL    H51 3509   5.880   2.598   4.259 -0.8439 -1.1474 -0.4999
   20MOL    H52 3510   6.088   2.429   4.426 -0.1311  0.1598 -0.4479
   20MOL    H53 3511   6.053   2.721   4.490 -0.0867  0.0520 -1.6441
   20MOL    H54 3512   6.150   2.613   4.574 -1.8743 -0.6049  0.8195
   20MOL    H55 3513   6.200   2.655   4.413  0.8709  1.9173  0.6323
   20MOL    C56 3514   5.900   2.487   4.508  0.3570 -0.0116  0.0745
   20MOL    C57 3515   5.929   2.464   4.660 -0.6229  0.2171  0.0146
   20MOL    C58 3516   5.802   2.489   4.745  0.3492  0.0938  0.5144
   20MOL    H59 3517   5.846   2.582   4.514  0.5735  0.1579 -0.5935
   20MOL    H60 3518   5.843   2.405   4.465  1.0859  0.2923 -1.5078
   20MOL    H61 3519   6.014   2.522   4.696 -1.0084  0.0488  1.2507
   20MOL    H62 3520   5.756   2.578   4.704 -2.9084 -1.6469  0.2263
   20MOL    H63 3521   5.722   2.419   4.720  0.7427  0.0953 -0.7690
   20MOL    H64 3522   5.822   2.487   4.852 -0.2840  1.8140  0.6673
   20MOL    C65 3523   5.981   2.318   4.676  0.0716 -0.2238 -0.9111
   20MOL    C66 3524   6.054   2.289   4.813 -0.3825 -0.0641  0.1192
   20MOL    C67 3525   5.977   2.209   4.925  0.2849 -0.1211  0.3356
   20MOL    H68 3526   5.896   2.250   4.682  0.8406 -1.1814 -0.7193
   20MOL    H69 3527   6.042   2.285   4.592  0.1375 -2.6189  0.0438
   20MOL    H70 3528   6.083   2.379   4.867 -0.4438 -0.7318  1.2884
   20MOL    H71 3529   5.903   2.140   4.885  0.0172  0.5872 -0.3987
   20MOL    H72 3530   6.031   2.156   5.004 -0.9009  1.3393  2.1847
   20MOL    H73 3531   5.915   2.280   4.980  1.0917  0.6327  0.3039
   20MOL    C74 3532   6.189   2.233   4.792 -0.5150 -0.1085 -0.2341
   20MOL    C75 3533   6.285   2.329   4.717  1.2374 -0.7940 -0.3547
   20MOL    C76 3534   6.357   2.415   4.820 -0.1099 -0.4774 -0.0854
   20MOL    H77 3535   6.232   2.202   4.887  0.4174 -0.2977 -0.7069
   20MOL    H78 3536   6.185   2.137   4.740  0.5757 -0.9291  1.1545
   20MOL    H79 3537   6.227   2.399   4.657  0.0619 -0.4357  1.1753
   20MOL    H80 3538   6.298   2.476   4.888 -0.2434 -0.6705 -0.0299
   20MOL    H81 3539   6.422   2.358   4.885 -1.3217 -0.2674  1.3280
   20MOL    H82 3540   6.420   2.487   4.768  1.7537 -2.0057  0.0245
   20MOL    C83 3541   6.378   2.253   4.624  0.0461  0.2188 -0.3117
   20MOL    C84 3542   6.483   2.329   4.544 -0.0105 -0.4096  0.4983
   20MOL    C85 3543   6.545   2.223   4.456  1.0891 -0.6683 -0.1887
   20MOL    H86 3544   6.434   2.176   4.676  1.3121  1.8982  0.8406
   20MOL    H87 3545   6.309   2.207   4.552  0.7317  1.7710 -2.0006
   20MOL    H88 3546   6.557   2.383   4.603  1.2229 -0.6659 -0.7922
   20MOL    H89 3547   6.470   2.172   4.396  0.6603  0.8921 -1.0040
   20MOL    H90 3548   6.619   2.268   4.389  1.5671 -1.2495 -0.0628
   20MOL    H91 3549   6.595   2.150   4.520 -1.9112 -1.3196  1.4758
   20MOL    C92 3550   6.416   2.440   4.455  0.4565  0.2271  0.7104
   20MOL    C93 3551   6.507   2.513   4.353 -0.6027  0.1933  0.2528
   20MOL    C94 3552   6.420   2.624   4.284 -0.3210  0.4392  0.3307
   20MOL    H95 3553   6.322   2.399   4.418  0.9857  0.0398 -0.4680
   20MOL    H96 3554   6.383   2.516   4.525  1.2350 -0.5190  1.9020
   20MOL    H97 3555   6.541   2.441   4.278  0.9332  1.1626  0.0012
   20MOL    H98 3556   6.396   2.703   4.354  0.3309  0.1613  0.8824
   20MOL    H99 3557   6.463   2.689   4.208 -0.4430  1.1528  0.8628
   20MOL   H100 3558   6.326   2.580   4.250  0.8988 -1.4970 -0.6228
   20MOL   C101 3559   6.640   2.559   4.418 -0.4919 -0.1067 -0.2496
   20MOL   C102 3560   6.641   2.694   4.489 -0.0882  0.0663 -0.5631
   20MOL   C103 3561   6.546   2.691   4.607 -0.4174  0.1869 -0.1830
   20MOL   H104 3562   6.695   2.479   4.467 -2.3658 -2.2643 -1.5673
   20MOL   H105 3563   6.702   2.577   4.331 -0.5300  1.4548  0.0363
   20MOL   H106 3564   6.600   2.767   4.419  0.1593 -0.2751 -1.0728
   20MOL   H107 3565   6.568   2.778   4.670  3.2548 -0.6640 -0.2206
   20MOL   H108 3566   6.445   2.713   4.572 -0.8523  0.4678  1.1969
   20MOL   H109 3567   6.557   2.601   4.667  0.7473  1.1393  1.0682
   20MOL   C110 3568   6.785   2.749   4.532  0.2805  0.3857 -0.5383
   20MOL   C111 3569   6.880   2.773   4.412 -0.0326 -0.3194 -0.4756
   20MOL   C112 3570   6.819   2.875   4.316 -0.0722  0.9672  0.3785
   20MOL   H113 3571   6.767   2.835   4.597  1.4033  0.3343 -0.1414
   20MOL   H114 3572   6.819   2.668   4.597 -0.4285  1.0093  0.6211
   20MOL   H115 3573   6.892   2.686   4.348  0.3721  0.3166 -1.2861
   20MOL   H116 3574   6.733   2.831   4.264 -0.0132  3.3052 -1.8083
   20MOL   H117 3575   6.786   2.967   4.364 -0.3572  1.0656  0.0005
   20MOL   H118 3576   6.886   2.901   4.234 -0.6351 -1.1317 -0.7933
   20MOL   C119 3577   7.016   2.823   4.468  0.4843  0.0908 -0.2848
   20MOL   C120 3578   7.152   2.756   4.418 -0.2573  0.3312  0.1548
   20MOL   C121 3579   7.174   2.621   4.482 -0.0438 -0.6381  0.0818
   20MOL   H122 3580   7.027   2.931   4.462  0.8997  0.1917  2.0572
   20MOL   H123 3581   7.008   2.816   4.576  1.0244  0.1966 -0.2371
   20MOL   H124 3582   7.230   2.822   4.453 -1.1597  1.6421 -0.2492
   20MOL   H125 3583   7.272   2.586   4.448  0.0480  0.4855 -0.8467
   20MOL   H126 3584   7.174   2.629   4.591 -0.9868  2.0697 -0.0805
   20MOL   H127 3585   7.099   2.554   4.440  0.3043 -0.6821 -0.4695
   20MOL   C128 3586   7.162   2.754   4.261  0.4715  0.2865  0.2979
   20MOL   C129 3587   7.297   2.714   4.193 -0.4562 -0.4217  0.4727
   20MOL   C130 3588   7.400   2.806   4.248  0.1471 -0.7704  0.2357
   20MOL   H131 3589   7.083   2.683   4.235  0.7140  0.2097 -0.2221
   20MOL   H132 3590   7.122   2.848   4.224 -0.9449 -0.9637 -1.4593
   20MOL   H133 3591   7.272   2.750   4.093 -0.2738 -0.4543  0.4147
   20MOL   H134 3592   7.486   2.813   4.182  0.1224  0.1107  0.2984
   20MOL   H135 3593   7.357   2.904   4.267  0.0527 -0.8789  0.5961
   20MOL   H136 3594   7.435   2.779   4.348  0.9781  1.1849  0.4868
   20MOL   C137 3595   7.342   2.568   4.185 -0.2042 -0.1169 -0.3038
   20MOL   C138 3596   7.401   2.531   4.046 -0.2316  0.1998 -0.1545
   20MOL   C139 3597   7.472   2.393   4.054  0.6051  0.5823 -0.3736
   20MOL   H140 3598   7.407   2.532   4.264  0.5759 -4.1494 -2.6416
   20MOL   H141 3599   7.252   2.509   4.202 -0.3978  0.5387  0.9690
   20MOL   H142 3600   7.477   2.607   4.031 -1.2149  0.9489 -1.4168
   20MOL   H143 3601   7.511   2.371   4.153 -1.8971  0.3417  0.5913
   20MOL   H144 3602   7.399   2.312   4.059 -1.0905  2.1237  0.5943
   20MOL   H145 3603   7.539   2.374   3.970  1.7659  4.1655 -0.3281
   20MOL   C146 3604   7.282   2.513   3.942  0.2926  0.0985  0.5789
   20MOL   C147 3605   7.320   2.490   3.795 -0.1847  0.1487  0.3032
   20MOL   C148 3606   7.184   2.450   3.731 -0.0222 -0.1474  0.7042
   20MOL   H149 3607   7.229   2.424   3.974 -2.0027  1.0588 -0.4903
   20MOL   H150 3608   7.210   2.594   3.951  0.0600 -0.1083  0.5927
   20MOL   H151 3609   7.391   2.407   3.797 -0.0594  0.2674  0.9817
   20MOL   H152 3610   7.110   2.530   3.735  0.3086  0.1111  1.7991
   20MOL   H153 3611   7.201   2.422   3.627 -1.5517  1.8341 -0.1180
   20MOL   H154 3612   7.145   2.361   3.780  0.1126 -0.5280  0.1288
   20MOL   C155 3613   7.378   2.616   3.719  0.4990  0.3324 -0.1607
   20MOL   C156 3614   7.401   2.594   3.565  0.5480 -0.1936  0.2919
   20MOL   C157 3615   7.489   2.716   3.519  0.4621  0.2844 -0.3022
   20MOL   H158 3616   7.311   2.702   3.730  0.3486  0.1091  0.6858
   20MOL   H159 3617   7.463   2.663   3.767 -0.4869  1.0978  0.8597
   20MOL   H160 3618   7.300   2.602   3.525  0.8063 -1.8425 -0.7302
   20MOL   H161 3619   7.449   2.804   3.570 -2.0309 -1.5015  0.9454
   20MOL   H162 3620   7.588   2.705   3.563 -0.4115 -3.3843  0.9684
   20MOL   H163 3621   7.493   2.737   3.413 -1.6859  0.4751 -0.3679
   20MOL   C164 3622   7.474   2.458   3.540  0.1980 -0.1588  0.1402
   20MOL   C165 3623   7.491   2.407   3.391  0.1936 -0.2819 -0.6548
   20MOL   C166 3624   7.524   2.254   3.389 -0.3068  0.1494 -0.8823
   20MOL   H167 3625   7.571   2.453   3.589 -0.9596 -1.8831  2.3577
   20MOL   H168 3626   7.421   2.374   3.585 -0.6043  0.4871  0.4053
   20MOL   H169 3627   7.580   2.454   3.351  0.3825 -1.5093 -1.7101
   20MOL   H170 3628   7.579   2.224   3.478 -2.5002  1.2752  0.9011
   20MOL   H171 3629   7.435   2.191   3.389 -0.7541  0.7674 -1.3556
   20MOL   H172 3630   7.592   2.232   3.306  1.1568  1.5826 -0.0940
   20MOL   C173 3631   7.369   2.434   3.303  0.6118 -0.1717  0.2675
   20MOL   C174 3632   7.393   2.415   3.153  0.2515 -0.4048 -0.2911
   20MOL   C175 3633   7.266   2.438   3.071 -0.8668 -0.1651  0.2309
   20MOL   H176 3634   7.295   2.362   3.336  1.0120 -0.2474  1.0215
   20MOL   H177 3635   7.326   2.534   3.308 -0.3907 -0.4365 -2.4387
   20MOL   H178 3636   7.435   2.319   3.123  1.3251  0.2639 -0.9560
   20MOL   H179 3637   7.284   2.407   2.968  2.8859 -2.1004  1.3921
   20MOL   H180 3638   7.196   2.366   3.114 -0.0358 -2.3769 -2.0207
   20MOL   H181 3639   7.220   2.536   3.086  1.1647  0.7360  0.6228
   20MOL   H182 3640   7.475   2.480   3.124  1.1543 -0.7784  1.3415
   21MOL     C1 3641   3.522   5.015   1.683  0.1877 -0.0569 -0.0268
   21MOL     C2 3642   3.497   5.016   1.837 -0.2710  0.4270  0.5362
   21MOL     C3 3643   3.352   5.035   1.866 -0.2571 -0.4721 -0.1436
   21MOL     H4 3644   3.468   5.098   1.637 -0.5024 -0.2154  0.4949
   21MOL     H5 3645   3.484   4.927   1.631  1.4787 -0.4882 -0.2757
   21MOL     H6 3646   3.533   5.112   1.873 -0.7707  1.3768 -1.4130
   21MOL     H7 3647   3.326   5.137   1.839  2.3492 -0.0377 -1.1730
   21MOL     H8 3648   3.282   4.962   1.824 -0.3620  1.0548 -2.7626
   21MOL     H9 3649   3.347   5.027   1.974  0.8321 -0.3007 -0.0793
   21MOL    H10 3650   3.628   5.025   1.660  0.4745 -0.7679  0.9615
   21MOL    C11 3651   3.573   4.901   1.897  0.0755 -0.4647  0.1427
   21MOL    C12 3652   3.520   4.763   1.875 -0.3476  0.7876  0.4264
   21MOL    C13 3653   3.632   4.661   1.834  0.0595  0.5253 -0.1581
   21MOL    H14 3654   3.673   4.919   1.857 -0.4365  2.4077  0.0204
   21MOL    H15 3655   3.590   4.931   2.000  0.5243  1.8953 -0.5883
   21MOL    H16 3656   3.446   4.773   1.795 -0.5748 -0.8327  0.4174
   21MOL    H17 3657   3.596   4.558   1.824  1.3929  0.0753 -0.3311
   21MOL    H18 3658   3.671   4.693   1.737  0.8608  1.1934  0.3858
   21MOL    H19 3659   3.722   4.669   1.894 -0.4096  0.2121  0.6047
   21MOL    C20 3660   3.450   4.715   2.007  0.9286  0.0385  0.6687
   21MOL    C21 3661   3.368   4.584   2.002  0.4532 -0.2790  0.2942
   21MOL    C22 3662   3.368   4.512   2.138  0.1697 -0.6244 -0.8878
   21MOL    H23 3663   3.526   4.698   2.082  0.3482  2.4209  1.8408
   21MOL    H24 3664   3.389   4.797   2.046 -2.0864 -2.5070  1.4802
   21MOL    H25 3665   3.412   4.526   1.922 -1.9797 -3.4422  1.1386
   21MOL    H26 3666   3.327   4.580   2.213 -1.3465 -0.9833 -1.3985
   21MOL    H27 3667   3.324   4.413   2.147 -1.3339  0.2694  2.3978
   21MOL    H28 3668   3.473   4.490   2.161  0.0287 -0.9897 -0.5827
   21MOL    C29 3669   3.221   4.616   1.975  0.1067 -0.5074 -0.2695
   21MOL    C30 3670   3.152   4.491   1.925  0.2478  0.2184 -0.2097
   21MOL    C31 3671   3.013   4.484   1.986  0.2288  0.7898  0.5945
   21MOL    H32 3672   3.172   4.658   2.063 -2.9897 -0.3455 -1.9912
   21MOL    H33 3673   3.229   4.687   1.893  2.7226  0.4050  0.7403
   21MOL    H34 3674   3.200   4.406   1.974 -0.4619  0.3672  0.7554
   21MOL    H35 3675   2.944   4.541   1.924 -0.6064 -0.9977 -0.1437
   21MOL    H36 3676   2.981   4.380   1.995 -1.1172  1.1835  0.4566
   21MOL    H37 3677   3.018   4.512   2.091  3.3419  3.1176 -0.0935
   21MOL    C38 3678   3.151   4.474   1.772 -0.3444 -0.4354  0.2244
   21MOL    C39 3679   3.280   4.453   1.683  0.2219  0.1087 -1.2449
   21MOL    C40 3680   3.366   4.337   1.730 -0.1757 -0.2941  0.2122
   21MOL    H41 3681   3.096   4.382   1.755  1.2668 -1.9591  2.9836
   21MOL    H42 3682   3.100   4.563   1.734 -0.0408  0.2261  1.3561
   21MOL    H43 3683   3.341   4.543   1.685  0.8125 -0.3179  1.1576
   21MOL    H44 3684   3.373   4.319   1.837 -0.9273 -2.3525 -0.0629
   21MOL    H45 3685   3.335   4.247   1.678  0.5500 -0.4486  0.0346
   21MOL    H46 3686   3.472   4.355   1.711  0.4134 -1.0399  2.6093
   21MOL    C47 3687   3.244   4.444   1.536 -0.2890 -0.0290 -0.3406
   21MOL    C48 3688   3.201   4.578   1.465  0.6169  0.5433  0.2217
   21MOL    C49 3689   3.321   4.676   1.474  0.1385 -0.2836 -0.0217
   21MOL    H50 3690   3.331   4.403   1.485 -1.4916 -0.8795 -1.7375
   21MOL    H51 3691   3.163   4.374   1.513  0.2152 -0.4630 -0.8173
   21MOL    H52 3692   3.114   4.612   1.522  2.5411 -0.2690  3.8194
   21MOL    H53 3693   3.417   4.625   1.473  2.6111  4.1275  0.9813
   21MOL    H54 3694   3.319   4.758   1.402  0.2950 -0.7931 -0.6083
   21MOL    H55 3695   3.311   4.725   1.570  1.7033 -1.9977  1.0370
   21MOL    C56 3696   3.168   4.557   1.322 -0.2626 -0.0335 -0.2230
   21MOL    C57 3697   3.090   4.665   1.247  0.0185  0.2178 -0.4541
   21MOL    C58 3698   3.068   4.637   1.096 -0.0536 -0.3613 -0.4166
   21MOL    H59 3699   3.262   4.551   1.267 -0.4770 -0.1216 -0.5781
   21MOL    H60 3700   3.113   4.464   1.307 -0.1262 -0.0710 -0.4891
   21MOL    H61 3701   3.164   4.743   1.230  0.9685 -0.1003  2.0300
   21MOL    H62 3702   3.145   4.581   1.043  1.4620  0.5591  0.7880
   21MOL    H63 3703   2.970   4.589   1.096 -0.5742  0.6802 -0.7119
   21MOL    H64 3704   3.054   4.727   1.036 -0.7152 -1.5155 -2.0514
   21MOL    C65 3705   2.961   4.721   1.316 -0.2726  0.1035  0.6404
   21MOL    C66 3706   2.965   4.849   1.394 -0.0258 -0.5684  0.1673
   21MOL    C67 3707   3.034   4.966   1.325  0.0566  0.6328  0.1818
   21MOL    H68 3708   2.891   4.743   1.235  1.8026  2.0301 -0.6997
   21MOL    H69 3709   2.911   4.640   1.368 -1.7155 -0.3273 -1.3589
   21MOL    H70 3710   3.023   4.832   1.485 -0.7317  2.3580  1.2178
   21MOL    H71 3711   3.131   4.930   1.289 -0.7747 -2.2333  0.6872
   21MOL    H72 3712   2.977   5.021   1.250  1.5250 -0.3240 -1.6722
   21MOL    H73 3713   3.063   5.046   1.393 -0.8061  0.3505  0.8857
   21MOL    C74 3714   2.831   4.887   1.455 -0.0194 -0.0283 -0.5565
   21MOL    C75 3715   2.840   4.969   1.585  0.6324 -0.0457  0.8732
   21MOL    C76 3716   2.701   5.014   1.620 -0.1147 -0.2402 -0.2662
   21MOL    H77 3717   2.782   4.935   1.371  0.5461  0.2495 -0.7296
   21MOL    H78 3718   2.782   4.793   1.482  0.0059  0.1198 -0.0026
   21MOL    H79 3719   2.883   5.063   1.548  0.3889 -0.0098  0.6773
   21MOL    H80 3720   2.651   4.929   1.667 -0.1430 -0.3064 -0.4124
   21MOL    H81 3721   2.701   5.096   1.691  2.0993 -0.5843  0.1511
   21MOL    H82 3722   2.639   5.056   1.540 -0.4905  1.1683  0.7556
   21MOL    C83 3723   2.921   4.904   1.702  0.2319  0.4653  0.3653
   21MOL    C84 3724   2.919   4.979   1.833 -0.6526 -0.5024  0.6146
   21MOL    C85 3725   2.964   4.891   1.950  0.1811 -0.0489 -0.9604
   21MOL    H86 3726   2.876   4.806   1.720 -0.8123  1.1826  1.7611
   21MOL    H87 3727   3.029   4.906   1.689  0.0901 -1.3060 -1.3796
   21MOL    H88 3728   2.810   4.989   1.835 -0.8148 -2.1656  1.0787
   21MOL    H89 3729   2.968   4.946   2.044  1.7984 -2.3473  0.3645
   21MOL    H90 3730   2.914   4.797   1.971  1.2709 -0.2944  0.6675
   21MOL    H91 3731   3.068   4.861   1.932  0.5174 -0.4357  1.5331
   21MOL    C92 3732   2.990   5.119   1.830 -0.2206  0.2459  0.0805
   21MOL    C93 3733   2.987   5.202   1.951  0.9121  0.6100 -0.2259
   21MOL    C94 3734   3.060   5.334   1.921  0.2867  0.2932  0.3751
   21MOL    H95 3735   3.094   5.100   1.803 -0.3276 -0.9498  0.4768
   21MOL    H96 3736   2.946   5.174   1.746  1.5076 -1.9991 -2.3843
   21MOL    H97 3737   3.042   5.149   2.029 -1.3740 -1.0703  0.2969
   21MOL    H98 3738   3.022   5.380   1.830  1.0814  0.0594 -0.0799
   21MOL    H99 3739   3.065   5.409   2.001  0.2852 -0.6028  1.2187
   21MOL   H100 3740   3.160   5.301   1.893 -0.5950 -0.7736 -1.5374
   21MOL   C101 3741   2.845   5.221   2.005 -0.2386  0.2268  0.1673
   21MOL   C102 3742   2.835   5.308   2.139 -0.0381 -0.1374 -0.1258
   21MOL   C103 3743   2.691   5.345   2.169 -0.2143  0.2132  0.1304
   21MOL   H104 3744   2.795   5.273   1.923  0.5227 -0.3196 -0.6544
   21MOL   H105 3745   2.775   5.138   2.014 -1.1105  0.7583 -1.5361
   21MOL   H106 3746   2.880   5.407   2.127  0.7415 -0.2703  1.5594
   21MOL   H107 3747   2.682   5.424   2.243 -2.9900  1.2778 -1.2967
   21MOL   H108 3748   2.650   5.385   2.076  0.2275 -1.7739 -0.9522
   21MOL   H109 3749   2.625   5.264   2.200  0.6572 -1.0134 -1.1099
   21MOL   C110 3750   2.895   5.230   2.264  0.0936 -0.1612 -0.2648
   21MOL   C111 3751   2.890   5.290   2.403 -0.1179  0.1018 -0.5162
   21MOL   C112 3752   2.923   5.184   2.507 -0.2764 -0.1305  0.5204
   21MOL   H113 3753   2.860   5.127   2.272  0.6207 -0.6350 -3.2521
   21MOL   H114 3754   3.001   5.218   2.242  0.4508  3.1333 -0.6011
   21MOL   H115 3755   2.790   5.331   2.419 -0.1713 -0.6983  1.3071
   21MOL   H116 3756   2.931   5.229   2.606  0.2473  2.4930 -0.6481
   21MOL   H117 3757   2.843   5.111   2.513 -0.8685  0.6225  2.1601
   21MOL   H118 3758   3.016   5.135   2.476 -0.1043  0.2941  0.3600
   21MOL   C119 3759   2.982   5.415   2.392  0.1226  0.1262 -0.4103
   21MOL   C120 3760   3.011   5.495   2.513  0.1587  0.2560 -0.1636
   21MOL   C121 3761   3.134   5.451   2.593 -0.0200 -0.1486 -0.3296
   21MOL   H122 3762   3.081   5.407   2.348  0.6406 -0.6799  0.8662
   21MOL   H123 3763   2.932   5.472   2.313  0.0076 -0.4103 -0.7282
   21MOL   H124 3764   2.916   5.495   2.566  0.6100 -0.3200  0.6467
   21MOL   H125 3765   3.101   5.357   2.638  1.7154 -0.3522  0.5196
   21MOL   H126 3766   3.231   5.450   2.545 -0.0956 -0.8881 -0.4793
   21MOL   H127 3767   3.141   5.516   2.680  1.2698  0.7387 -1.0958
   21MOL   C128 3768   3.052   5.634   2.469 -0.2805  0.4769 -0.3933
   21MOL   C129 3769   2.947   5.733   2.403 -0.4734 -0.0185 -0.2675
   21MOL   C130 3770   2.876   5.792   2.519  0.2126  0.2674 -0.6218
   21MOL   H131 3771   3.093   5.685   2.555  1.3381 -0.1972 -0.7536
   21MOL   H132 3772   3.139   5.622   2.404  0.7628 -0.6619  1.1827
   21MOL   H133 3773   2.881   5.675   2.339 -1.0582 -0.2134  0.4991
   21MOL   H134 3774   2.954   5.843   2.576  0.5363  1.6994 -2.3071
   21MOL   H135 3775   2.801   5.866   2.493  0.9822  1.4980  0.6028
   21MOL   H136 3776   2.836   5.721   2.592  1.0193 -0.9441 -1.3499
   21MOL   C137 3777   3.015   5.836   2.301 -0.8191 -0.4928 -0.2657
   21MOL   C138 3778   3.070   5.787   2.167 -0.3098 -0.2890  0.0038
   21MOL   C139 3779   2.964   5.729   2.067  0.3618  0.3480  0.1120
   21MOL   H140 3780   2.946   5.914   2.271  0.2253  1.1552  1.5232
   21MOL   H141 3781   3.098   5.876   2.359 -1.5494  0.0179  0.4273
   21MOL   H142 3782   3.145   5.711   2.189 -0.1275  0.2113  1.1519
   21MOL   H143 3783   3.002   5.692   1.972 -0.6932 -2.3346  0.7007
   21MOL   H144 3784   2.891   5.660   2.111  0.0515 -1.1067 -2.6078
   21MOL   H145 3785   2.893   5.804   2.032  1.0129 -0.2142 -2.5188
   21MOL   C146 3786   3.161   5.898   2.107 -0.1569  0.6813  0.4158
   21MOL   C147 3787   3.222   5.865   1.964  0.2380  0.1441  0.5247
   21MOL   C148 3788   3.291   5.998   1.919  0.6543  0.1669 -0.2193
   21MOL   H149 3789   3.101   5.987   2.093  0.4195  0.8358 -1.2966
   21MOL   H150 3790   3.222   5.930   2.191 -1.2023 -1.6771  2.1196
   21MOL   H151 3791   3.132   5.853   1.904  0.9480 -3.1501  0.0341
   21MOL   H152 3792   3.321   5.999   1.814 -1.1732 -2.3825 -0.8149
   21MOL   H153 3793   3.237   6.091   1.935 -0.5486 -0.7024  0.8682
   21MOL   H154 3794   3.380   6.008   1.982 -0.2832 -2.0454  1.5425
   21MOL   C155 3795   3.321   5.754   1.958 -0.4065  0.1190  0.3166
   21MOL   C156 3796   3.404   5.718   1.833 -0.0708  0.5080 -0.1286
   21MOL   C157 3797   3.526   5.625   1.878 -0.0121 -0.1247  0.1848
   21MOL   H158 3798   3.389   5.767   2.043 -0.1325  1.6305 -0.1072
   21MOL   H159 3799   3.270   5.665   1.994 -2.1042  0.9538 -0.0021
   21MOL   H160 3800   3.447   5.803   1.781  0.3489 -0.0970 -0.7787
   21MOL   H161 3801   3.496   5.528   1.917  0.3793  0.1090  1.0806
   21MOL   H162 3802   3.593   5.612   1.794 -1.4722 -0.8177 -0.8813
   21MOL   H163 3803   3.595   5.662   1.954 -1.1859 -0.4614  1.4326
   21MOL   C164 3804   3.297   5.663   1.734  0.2543 -0.3127 -0.0320
   21MOL   C165 3805   3.354   5.604   1.608 -0.2893  0.1682  0.9875
   21MOL   C166 3806   3.418   5.462   1.629 -0.0401  0.2078 -0.6480
   21MOL   H167 3807   3.229   5.596   1.787 -1.2285  0.5264 -0.8663
   21MOL   H168 3808   3.232   5.744   1.701  1.8701  1.3471  0.7523
   21MOL   H169 3809   3.434   5.670   1.575 -0.0180 -1.5336 -1.9475
   21MOL   H170 3810   3.347   5.397   1.578 -1.6726  1.2208  0.2523
   21MOL   H171 3811   3.513   5.467   1.577 -0.8190  0.0388 -2.1057
   21MOL   H172 3812   3.428   5.442   1.736  0.2281 -0.1649 -0.7428
   21MOL   C173 3813   3.239   5.592   1.498 -0.1554 -0.0494  0.7059
   21MOL   C174 3814   3.294   5.572   1.353  0.2867 -0.4554 -0.2833
   21MOL   C175 3815   3.211   5.614   1.241  0.3305  0.4528 -0.2754
   21MOL   H176 3816   3.172   5.507   1.514 -2.7874  2.1092  1.5299
   21MOL   H177 3817   3.181   5.685   1.498 -0.0837 -0.0066  0.0523
   21MOL   H178 3818   3.307   5.465   1.336  0.4731 -0.6604  1.0973
   21MOL   H179 3819   3.186   5.720   1.252 -0.4899  0.0118  2.2782
   21MOL   H180 3820   3.267   5.604   1.148  1.0438 -1.3835  0.3427
   21MOL   H181 3821   3.112   5.573   1.219  0.2343  1.0375 -0.9797
   21MOL   H182 3822   3.391   5.619   1.335  1.0823 -0.9133  2.5054
   22MOL     C1 3823   6.680   7.311   7.437 -0.5464 -0.3863  0.7061
   22MOL     C2 3824   6.733   7.341   7.576  1.2921 -0.2099  0.4774
   22MOL     C3 3825   6.723   7.226   7.677 -0.5314 -1.1987  0.4374
   22MOL     H4 3826   6.673   7.401   7.375 -0.4008 -1.1665 -0.4671
   22MOL     H5 3827   6.589   7.250   7.436 -0.4863 -0.4720  0.4040
   22MOL     H6 3828   6.671   7.419   7.621 -0.1387 -0.2723 -1.3654
   22MOL     H7 3829   6.623   7.182   7.671 -1.0795  0.3773 -4.3922
   22MOL     H8 3830   6.791   7.148   7.644 -1.6275 -1.1892 -1.9247
   22MOL     H9 3831   6.745   7.249   0.084 -0.4123 -1.5371  0.4866
   22MOL    H10 3832   6.748   7.234   7.400 -1.7554 -0.6332 -1.0768
   22MOL    C11 3833   6.878   7.387   7.582  0.9819 -0.1047 -0.5292
   22MOL    C12 3834   6.908   7.528   7.529 -0.3763  0.0796  0.7085
   22MOL    C13 3835   6.858   7.629   7.635  0.2723 -0.2617 -0.2595
   22MOL    H14 3836   6.911   7.376   7.685 -2.2314 -0.3962  0.5314
   22MOL    H15 3837   6.944   7.311   7.540 -0.0899 -1.1706 -0.3032
   22MOL    H16 3838   6.856   7.552   7.436  0.5639  0.7836  0.3545
   22MOL    H17 3839   6.749   7.634   7.642  0.2218 -1.6624  0.1288
   22MOL    H18 3840   6.891   7.615   0.041 -0.1102  0.7246  0.0064
   22MOL    H19 3841   6.878   0.036   7.610 -1.9967 -0.0050 -1.1325
   22MOL    C20 3842   7.060   7.550   7.501 -0.3570 -0.5322 -0.1574
   22MOL    C21 3843   7.102   7.505   7.358  0.2664  0.5807 -0.1450
   22MOL    C22 3844   7.026   7.600   7.252 -0.0356  0.1724  0.0326
   22MOL    H23 3845   7.087   7.656   7.511 -0.3639 -0.6230  0.9146
   22MOL    H24 3846   7.114   7.498   7.581  0.9423  2.5817  1.0815
   22MOL    H25 3847   7.086   7.399   7.339 -0.0970  0.5333  0.4133
   22MOL    H26 3848   7.075   7.596   7.154  1.2751 -1.3486  0.7299
   22MOL    H27 3849   6.920   7.579   7.238  0.6959 -3.1585 -1.2096
   22MOL    H28 3850   7.054   0.005   7.274 -2.6282  1.7244 -3.3976
   22MOL    C29 3851   7.254   7.531   7.346  0.6634  0.5791  0.1836
   22MOL    C30 3852   7.342   7.438   7.433  0.1358  0.2790 -0.1357
   22MOL    C31 3853   7.323   7.285   7.410  0.2862  0.2757  0.0268
   22MOL    H32 3854   7.289   7.529   7.243 -0.3512  3.8531 -0.2544
   22MOL    H33 3855   7.259   7.635   7.378 -0.6232  0.7938 -0.3098
   22MOL    H34 3856   7.330   7.459   7.539 -0.7147  1.5292 -0.4602
   22MOL    H35 3857   7.228   7.245   7.447  0.8663 -0.7682  0.4323
   22MOL    H36 3858   7.313   7.253   7.306 -0.2522  0.1867  0.1077
   22MOL    H37 3859   7.396   7.219   7.458  1.1999  1.6484  0.5543
   22MOL    C38 3860   7.492   7.470   7.415 -0.9610 -0.0213  0.7217
   22MOL    C39 3861   7.545   7.616   7.428  0.2554  0.1402  1.0533
   22MOL    C40 3862   7.520   7.662   7.576 -0.5300  0.2662  0.7326
   22MOL    H41 3863   7.542   7.409   7.490  0.6670  1.1583  0.6200
   22MOL    H42 3864   7.526   7.429   7.320  0.1001  2.5144 -0.0443
   22MOL    H43 3865   7.477   7.675   7.367 -1.3472 -0.0335  2.6385
   22MOL    H44 3866   7.545   0.069   7.590 -0.3655 -0.0754  3.2305
   22MOL    H45 3867   7.412   7.662   7.587 -0.9298 -1.2800 -2.4657
   22MOL    H46 3868   7.560   7.590   7.648 -1.3757  0.2052  1.1464
   22MOL    C47 3869   7.693   7.638   7.388  0.3803 -0.5272 -0.3241
   22MOL    C48 3870   0.016   0.028   7.268  0.1984  0.3669 -0.0833
   22MOL    C49 3871   0.129   0.129   7.285  0.1995 -0.2937  0.0596
   22MOL    H50 3872   0.057   7.682   7.467 -0.3227  0.8584 -0.5374
   22MOL    H51 3873   0.038   7.541   7.366  0.7173 -0.7259  1.1140
   22MOL    H52 3874   7.633   0.102   7.266 -0.9285 -0.7543  2.3449
   22MOL    H53 3875   0.128   0.184   7.378 -0.6852  0.8400 -0.6156
   22MOL    H54 3876   0.227   0.082   7.268  0.0663 -0.2003 -0.9986
   22MOL    H55 3877   0.130   0.209   7.211 -3.2562 -0.1183  0.1499
   22MOL    C56 3878   0.027   7.639   7.143 -0.2340  0.5136  0.1970
   22MOL    C57 3879   7.662   0.010   7.018 -0.0327  0.0265  0.2942
   22MOL    C58 3880   0.011   7.632   6.894  0.3443  0.1846  0.5083
   22MOL    H59 3881   0.130   7.611   7.119 -1.0741 -0.4766 -2.4097
   22MOL    H60 3882   7.674   7.543   7.145  0.1259  0.2466 -2.0901
   22MOL    H61 3883   0.009   0.109   7.004 -1.4363  0.4881 -0.9819
   22MOL    H62 3884   0.119   7.644   6.887  0.5604 -0.7182  2.1448
   22MOL    H63 3885   7.687   7.526   6.904  0.3936 -0.1992 -2.8492
   22MOL    H64 3886   7.659   7.673   6.806  0.3853 -0.3601  0.2293
   22MOL    C65 3887   7.500   0.019   7.027 -0.7249  0.5568  0.3814
   22MOL    C66 3888   7.456   0.164   7.025  0.2127 -0.2064  0.5595
   22MOL    C67 3889   7.460   0.215   6.884  0.3471 -0.0770 -0.2006
   22MOL    H68 3890   7.463   7.662   6.940  0.6505 -0.6774  0.5435
   22MOL    H69 3891   7.464   7.665   7.116 -0.2204  1.0014  0.8448
   22MOL    H70 3892   7.525   0.222   7.087  1.5223  0.9184 -1.9022
   22MOL    H71 3893   7.383   0.163   6.825 -0.0171  0.5523 -0.2821
   22MOL    H72 3894   7.435   0.321   6.883  0.2752 -0.0946 -0.2504
   22MOL    H73 3895   7.554   0.201   6.831 -0.2808 -0.0185 -1.3336
   22MOL    C74 3896   7.326   0.190   7.101  0.5895  0.6295  0.0341
   22MOL    C75 3897   7.291   0.338   7.149 -0.7300  0.7382  0.0603
   22MOL    C76 3898   7.144   0.375   7.162 -0.5716 -0.1152  0.2162
   22MOL    H77 3899   7.251   0.162   7.027  1.6780  1.0674 -1.2554
   22MOL    H78 3900   7.319   0.120   7.184  1.3463 -0.3754 -0.7296
   22MOL    H79 3901   7.325   0.398   7.064  0.8090 -0.0811  0.0991
   22MOL    H80 3902   7.142   0.482   7.185  2.6213  0.3052 -1.2001
   22MOL    H81 3903   7.082   0.362   7.073 -1.2786  2.6482  0.2534
   22MOL    H82 3904   7.096   0.324   7.245 -0.7790 -0.3249 -0.0315
   22MOL    C83 3905   7.377   0.365   7.273 -0.0118 -0.0442 -0.1989
   22MOL    C84 3906   7.453   0.496   7.252  0.2781 -0.6521 -0.0452
   22MOL    C85 3907   7.367   0.621   7.265 -0.8115  0.1047  0.5083
   22MOL    H86 3908   7.312   0.370   7.360 -1.4825 -0.8352 -1.2460
   22MOL    H87 3909   7.446   0.285   7.300 -0.8203 -0.7308 -0.1654
   22MOL    H88 3910   7.487   0.510   7.149  0.0205  2.8127  0.2817
   22MOL    H89 3911   7.304   0.640   7.178  2.6449  2.7072 -1.5552
   22MOL    H90 3912   7.307   0.625   7.356 -0.4699  2.8220  0.6558
   22MOL    H91 3913   7.429   0.710   7.272  1.4786 -1.3861 -0.5106
   22MOL    C92 3914   7.576   0.511   7.345  0.4176 -0.2540  0.4875
   22MOL    C93 3915   7.562   0.532   7.497 -0.2511  0.2708 -0.2017
   22MOL    C94 3916   7.522   0.401   7.568 -0.7793  0.5211 -0.3022
   22MOL    H95 3917   7.645   0.431   7.319 -0.2109 -1.5582  2.7178
   22MOL    H96 3918   7.648   0.582   7.303  0.2200 -0.0363  0.5156
   22MOL    H97 3919   7.462   0.575   7.509 -0.7499 -1.0307  0.4481
   22MOL    H98 3920   7.602   0.328   7.555 -0.6684  0.5497  0.2035
   22MOL    H99 3921   7.496   0.419   7.673  1.9391 -1.3281  0.7474
   22MOL   H100 3922   7.446   0.340   7.520 -0.5091 -0.9004  1.0164
   22MOL   C101 3923   7.674   0.608   7.567  0.1626  0.0705 -0.0387
   22MOL   C102 3924   7.697   0.758   7.532 -0.5841  0.6994  0.0702
   22MOL   C103 3925   7.573   0.839   7.545 -0.3414  0.4235 -1.0939
   22MOL   H104 3926   7.655   0.610   7.675 -0.9308 -0.6964 -0.2089
   22MOL   H105 3927   0.063   0.543   7.553 -0.1409 -1.0014  2.6024
   22MOL   H106 3928   0.025   0.758   7.426 -1.8119  0.4109 -0.2263
   22MOL   H107 3929   7.488   0.818   7.479  1.6550  1.4245 -4.1076
   22MOL   H108 3930   7.534   0.816   7.644  0.2066  1.9391 -0.5107
   22MOL   H109 3931   7.597   0.945   7.548  1.3440  0.0540 -1.2027
   22MOL   C110 3932   0.109   0.821   7.621  0.7574 -0.0516 -0.4476
   22MOL   C111 3933   0.170   0.954   7.557 -0.5239 -0.9006  0.5611
   22MOL   C112 3934   0.184   1.059   7.668 -0.4881 -0.3042 -0.4703
   22MOL   H113 3935   0.060   0.834   0.021  1.3255 -2.0475  0.1208
   22MOL   H114 3936   0.191   0.752   7.640 -0.3101 -1.6678 -1.6326
   22MOL   H115 3937   0.107   0.994   7.477  4.1643 -1.0847 -3.4810
   22MOL   H116 3938   0.234   1.146   7.626  0.2719 -1.0238 -1.0684
   22MOL   H117 3939   0.089   1.094   0.010  0.2198  0.4145  0.6222
   22MOL   H118 3940   0.242   1.016   0.052  0.3216 -0.9832 -1.3997
   22MOL   C119 3941   0.315   0.930   7.502 -0.2118  1.2299  0.5440
   22MOL   C120 3942   0.331   0.817   7.396 -0.2457 -0.0976  0.3337
   22MOL   C121 3943   0.253   0.857   7.270 -0.4915  0.8506 -0.9313
   22MOL   H122 3944   0.360   1.020   7.460 -0.8887  0.8021 -1.1470
   22MOL   H123 3945   0.376   0.900   7.587  1.1970  1.1312 -0.4745
   22MOL   H124 3946   0.280   0.723   7.420 -1.7599  0.5595 -0.2103
   22MOL   H125 3947   0.156   0.905   7.282 -0.9675 -0.4195  0.5519
   22MOL   H126 3948   0.315   0.927   7.216  1.2909  0.6903  0.8537
   22MOL   H127 3949   0.239   0.774   7.200 -1.0420 -0.1267  0.3166
   22MOL   C128 3950   0.477   0.780   7.360  0.4885 -0.7958  0.4823
   22MOL   C129 3951   0.570   0.711   7.461 -0.2558  0.2030 -0.6601
   22MOL   C130 3952   0.505   0.581   7.517 -0.1583 -0.2100  0.2866
   22MOL   H131 3953   0.478   0.711   7.276  0.6677  1.2105 -1.2019
   22MOL   H132 3954   0.532   0.868   7.327  1.6460 -1.0112  1.8126
   22MOL   H133 3955   0.576   0.788   7.538 -2.0728  1.2679 -1.5488
   22MOL   H134 3956   0.571   0.529   7.586 -0.0012 -1.3653 -0.6924
   22MOL   H135 3957   0.427   0.614   7.586 -2.1361 -0.2548 -1.8500
   22MOL   H136 3958   0.463   0.512   7.443 -1.4783  1.2904 -0.4049
   22MOL   C137 3959   0.707   0.672   7.393 -0.0295 -0.1513 -0.3070
   22MOL   C138 3960   0.812   0.780   7.384  0.4675 -0.0570  0.1356
   22MOL   C139 3961   0.875   0.820   7.517 -0.8851  0.1403 -0.1481
   22MOL   H140 3962   0.756   0.594   7.451 -2.0344 -0.9316  0.3777
   22MOL   H141 3963   0.687   0.618   7.301 -2.0659 -0.0216  0.0368
   22MOL   H142 3964   0.753   0.864   7.349 -3.6217 -1.2064  3.7735
   22MOL   H143 3965   0.943   0.744   7.557  0.2220  0.5371 -1.2317
   22MOL   H144 3966   0.931   0.913   7.511 -0.3444 -0.1669  0.0862
   22MOL   H145 3967   0.803   0.828   7.597  0.1155 -0.7985  0.8580
   22MOL   C146 3968   0.919   0.737   7.283 -0.1557 -0.1038  0.0256
   22MOL   C147 3969   0.886   0.698   7.136  0.2979 -0.3078 -0.0086
   22MOL   C148 3970   0.798   0.809   7.081  0.0146 -0.6103  0.1447
   22MOL   H149 3971   0.987   0.822   7.283  0.8335 -0.8941 -0.9508
   22MOL   H150 3972   0.984   0.664   7.331  0.5245  0.0071 -0.7222
   22MOL   H151 3973   0.827   0.606   7.141 -1.1514  0.6413  0.4432
   22MOL   H152 3974   0.781   0.798   6.974 -0.2144  0.3798  0.0693
   22MOL   H153 3975   0.701   0.819   7.130  0.1348  0.1289  0.2323
   22MOL   H154 3976   0.847   0.906   7.083 -1.1617  0.0138 -0.3106
   22MOL   C155 3977   1.020   0.664   7.063  0.4014  0.0422  0.0159
   22MOL   C156 3978   1.028   0.647   6.908  0.1297  0.4963  0.1630
   22MOL   C157 3979   1.169   0.686   6.850  0.0107 -0.2365  0.1888
   22MOL   H158 3980   1.095   0.737   7.095 -0.6347  1.2551 -0.3046
   22MOL   H159 3981   1.065   0.572   7.100  1.1803  0.3320 -0.1929
   22MOL   H160 3982   0.950   0.713   6.872 -1.1515 -1.0511  0.0343
   22MOL   H161 3983   1.184   0.793   6.861 -0.6781  0.1118 -1.9752
   22MOL   H162 3984   1.246   0.624   6.897 -1.5833 -1.4496  1.2462
   22MOL   H163 3985   1.183   0.679   6.742  0.4093  0.5464  0.1877
   22MOL   C164 3986   0.984   0.499   6.874 -0.0510  0.3148 -0.1763
   22MOL   C165 3987   0.945   0.465   6.728  0.1791  0.3857  0.0566
   22MOL   C166 3988   0.935   0.319   6.710  0.5155  0.0904 -0.8709
   22MOL   H167 3989   1.067   0.433   6.899  1.3515  2.2468  0.4301
   22MOL   H168 3990   0.901   0.462   6.934 -0.6601 -0.8325 -1.7080
   22MOL   H169 3991   1.019   0.513   6.664  0.3496 -0.4799 -0.3973
   22MOL   H170 3992   1.035   0.277   6.724  0.3554 -0.6638 -1.9070
   22MOL   H171 3993   0.871   0.258   6.773 -0.4337 -0.5796 -2.4547
   22MOL   H172 3994   0.909   0.293   6.607  0.9565 -1.9674 -0.4878
   22MOL   C173 3995   0.807   0.525   6.695  0.2139 -0.7665  0.0284
   22MOL   C174 3996   0.765   0.523   6.551  0.0144 -0.6280 -0.2421
   22MOL   C175 3997   0.616   0.571   6.532  0.5618  0.3012 -0.2139
   22MOL   H176 3998   0.736   0.490   6.770 -0.5188 -1.3394 -0.9061
   22MOL   H177 3999   0.804   0.631   6.718 -0.7997 -1.0067  1.0762
   22MOL   H178 4000   0.763   0.426   6.501  2.6681 -1.3414  0.9505
   22MOL   H179 4001   0.542   0.516   6.591  1.2332 -1.4638 -0.9844
   22MOL   H180 4002   0.609   0.672   6.572  1.2188  1.2572 -2.4525
   22MOL   H181 4003   0.576   0.593   6.433  0.9661 -1.1913 -0.7214
   22MOL   H182 4004   0.827   0.591   6.493 -1.2264  1.3467  0.7026
   23MOL     C1 4005   0.871   5.500   0.176 -0.6023 -0.2028 -0.3665
   23MOL     C2 4006   0.898   5.401   0.297  0.3649 -0.2506  0.7017
   23MOL     C3 4007   0.807   5.276   0.293  0.5579  0.3537  0.3573
   23MOL     H4 4008   0.881   5.449   0.080 -1.1192  0.7000 -0.9092
   23MOL     H5 4009   0.936   5.587   0.176 -2.0441  0.8965  0.8863
   23MOL     H6 4010   0.867   5.451   0.388 -1.1349 -1.2271  0.7507
   23MOL     H7 4011   0.824   5.206   0.374  1.3034  0.0306 -0.0755
   23MOL     H8 4012   0.702   5.305   0.303  0.2564 -1.6345  4.0708
   23MOL     H9 4013   0.825   5.213   0.206  1.7301  0.3351  0.6047
   23MOL    H10 4014   0.770   5.540   0.165 -1.2501 -1.7525 -0.2444
   23MOL    C11 4015   1.047   5.357   0.322 -0.0853  0.0955  0.1088
   23MOL    C12 4016   1.160   5.464   0.308 -0.2937  0.8448 -0.3951
   23MOL    C13 4017   1.151   5.554   0.426 -0.6991 -0.0177 -0.4518
   23MOL    H14 4018   1.042   5.304   0.417 -0.2646  0.8783  0.5333
   23MOL    H15 4019   1.062   5.277   0.249  0.0122 -0.2476  0.5043
   23MOL    H16 4020   1.149   5.518   0.214  1.6334  0.8109 -0.6601
   23MOL    H17 4021   1.066   5.622   0.418 -1.1042 -0.4732 -0.0683
   23MOL    H18 4022   1.130   5.500   0.518  1.1835 -1.6985 -0.9702
   23MOL    H19 4023   1.238   5.618   0.440  0.0585 -0.7549 -1.7256
   23MOL    C20 4024   1.294   5.398   0.298 -0.4558 -0.1935 -0.3709
   23MOL    C21 4025   1.415   5.476   0.262 -0.2863 -0.7605 -0.2450
   23MOL    C22 4026   1.536   5.382   0.259  0.0294 -0.6245  0.1678
   23MOL    H23 4027   1.318   5.343   0.389 -0.4716  0.2218 -0.1098
   23MOL    H24 4028   1.283   5.320   0.223 -0.8668 -1.5399  1.0534
   23MOL    H25 4029   1.446   5.543   0.342 -1.2733 -0.0364 -0.4722
   23MOL    H26 4030   1.544   5.350   0.363 -1.8885  0.7308  0.7673
   23MOL    H27 4031   1.520   5.304   0.184  1.8518  0.5535 -1.4873
   23MOL    H28 4032   1.638   5.419   0.249  0.6427 -2.1989  0.4187
   23MOL    C29 4033   1.400   5.567   0.138 -0.3808  0.3434 -0.3937
   23MOL    C30 4034   1.510   5.678   0.114  0.8655 -0.3756 -0.2571
   23MOL    C31 4035   1.500   5.782   0.229 -0.6325  0.2734 -0.0344
   23MOL    H32 4036   1.386   5.517   0.043 -2.3337 -0.7438  0.4345
   23MOL    H33 4037   1.305   5.619   0.155 -0.0926  1.1939 -1.3746
   23MOL    H34 4038   1.471   5.737   0.031 -0.9353  0.8734  1.4386
   23MOL    H35 4039   1.517   5.733   0.326 -4.1914 -1.5992 -0.2736
   23MOL    H36 4040   1.570   5.866   0.230  0.9485 -1.0107  0.5745
   23MOL    H37 4041   1.400   5.824   0.233  0.4701  2.9460  0.0325
   23MOL    C38 4042   1.644   5.637   0.083 -0.1710 -0.5425  0.0895
   23MOL    C39 4043   1.676   5.546   7.648  0.7089  0.6741  0.2031
   23MOL    C40 4044   1.627   5.610   7.521  0.1605 -0.0352  0.6335
   23MOL    H41 4045   1.684   5.736   0.058  1.5030 -1.1117  0.4761
   23MOL    H42 4046   1.703   5.618   0.172 -0.1400  3.4902  1.0433
   23MOL    H43 4047   1.630   5.447   7.647 -0.7841  1.3727 -1.1316
   23MOL    H44 4048   1.522   5.641   7.520  0.6247  1.9548 -4.7099
   23MOL    H45 4049   1.682   5.704   7.509  1.8005 -0.5535  3.6860
   23MOL    H46 4050   1.641   5.544   7.435 -0.7838  2.4957 -1.5402
   23MOL    C47 4051   1.829   5.509   7.635 -0.2043 -0.2820  0.1019
   23MOL    C48 4052   1.867   5.382   7.544  0.1395 -0.0394 -0.0501
   23MOL    C49 4053   1.948   5.422   7.425  0.5466 -0.0072  1.3556
   23MOL    H50 4054   1.882   5.596   7.596  0.4691 -0.4982  0.5219
   23MOL    H51 4055   1.867   5.496   0.039  1.1551 -0.6643 -0.4402
   23MOL    H52 4056   1.776   5.339   7.500  1.0394 -2.3481  0.2629
   23MOL    H53 4057   2.052   5.436   7.454  1.4881  0.1718 -1.8667
   23MOL    H54 4058   1.948   5.348   7.345  2.2985  1.5020 -0.0881
   23MOL    H55 4059   1.917   5.514   7.376 -1.9051 -2.1070 -1.2800
   23MOL    C56 4060   1.932   5.264   7.624 -0.0317 -0.7065  0.7242
   23MOL    C57 4061   1.857   5.188   0.040  0.6269 -0.4032 -0.4514
   23MOL    C58 4062   1.758   5.080   7.684 -0.1412  0.0536  0.2217
   23MOL    H59 4063   1.959   5.187   7.551 -3.2141 -1.4893  0.2904
   23MOL    H60 4064   2.030   5.296   7.660  0.3470 -0.0496 -0.8354
   23MOL    H61 4065   1.798   5.250   0.107 -1.2204 -0.3851 -2.0585
   23MOL    H62 4066   1.684   5.137   7.629  0.2233 -0.4522 -0.8078
   23MOL    H63 4067   1.816   5.013   7.620  1.5775 -0.5072  2.2912
   23MOL    H64 4068   1.713   5.026   0.070 -0.0748  0.0094  0.2290
   23MOL    C65 4069   1.963   5.129   0.137 -0.1102 -0.2020 -0.1455
   23MOL    C66 4070   2.030   5.224   0.244  0.2468  0.3095 -0.2190
   23MOL    C67 4071   1.931   5.246   0.358 -0.5794 -0.3497  0.0263
   23MOL    H68 4072   1.910   5.045   0.182  0.0933 -0.2092  0.0835
   23MOL    H69 4073   2.030   5.077   0.068 -0.3797  1.1345 -1.4443
   23MOL    H70 4074   2.044   5.322   0.198  1.1776  0.4410  0.3335
   23MOL    H71 4075   1.981   5.292   0.443 -0.7757 -0.9380  0.4648
   23MOL    H72 4076   1.839   5.297   0.331 -0.4939  0.5477  1.4150
   23MOL    H73 4077   1.908   5.148   0.402  0.2706  0.0647  1.4366
   23MOL    C74 4078   2.154   5.165   0.301  0.1786  0.8820 -0.1469
   23MOL    C75 4079   2.272   5.154   0.199  0.2945  0.3946 -0.8448
   23MOL    C76 4080   2.307   5.282   0.128  0.0623  0.2341  0.1170
   23MOL    H77 4081   2.191   5.206   0.395 -0.5802 -0.7449  0.8919
   23MOL    H78 4082   2.116   5.066   0.328  1.2362  0.6075  0.3489
   23MOL    H79 4083   2.250   5.084   0.118  1.1771 -3.3446  2.0110
   23MOL    H80 4084   2.340   5.364   0.191 -1.9088  1.1174  0.0102
   23MOL    H81 4085   2.400   5.263   0.074 -0.8716 -2.2016 -0.7447
   23MOL    H82 4086   2.248   5.307   0.040  0.7153  0.4029 -0.2763
   23MOL    C83 4087   2.393   5.084   0.264 -0.3232  0.3817 -0.2113
   23MOL    C84 4088   2.386   4.934   0.287  0.2796  0.0909 -0.2313
   23MOL    C85 4089   2.371   4.860   0.151  0.2680 -0.7568 -0.1568
   23MOL    H86 4090   2.473   5.091   0.190  1.0332 -4.0354  0.6616
   23MOL    H87 4091   2.409   5.145   0.353 -2.2064 -0.5309  0.7692
   23MOL    H88 4092   2.296   4.905   0.341  1.4753  1.1747  2.4441
   23MOL    H89 4093   2.278   4.881   0.098  1.4572 -4.1508 -3.8406
   23MOL    H90 4094   2.464   4.876   0.096  1.1515  3.4742  2.3017
   23MOL    H91 4095   2.358   4.755   0.178 -0.8923 -0.8599 -1.0593
   23MOL    C92 4096   2.494   4.875   0.369 -0.2901 -1.0598 -0.5910
   23MOL    C93 4097   2.470   4.878   0.528  0.4828  0.6630 -0.1929
   23MOL    C94 4098   2.510   4.748   0.600 -0.2611  0.4352  0.0841
   23MOL    H95 4099   2.507   4.773   0.335 -1.4224 -1.0088 -1.1906
   23MOL    H96 4100   2.591   4.927   0.362 -1.2090  1.0842  1.8077
   23MOL    H97 4101   2.362   4.891   0.541  0.3668 -1.6799  1.2670
   23MOL    H98 4102   2.512   4.759   0.708  0.8075  0.0375  0.1162
   23MOL    H99 4103   2.444   4.663   0.583 -1.0966  1.5846 -2.6648
   23MOL   H100 4104   2.614   4.720   0.583 -0.4852 -1.2293  1.2760
   23MOL   C101 4105   2.528   4.999   0.599 -1.0186  0.5273  0.9554
   23MOL   C102 4106   2.442   5.056   0.715  0.8808 -0.7270  0.0961
   23MOL   C103 4107   2.528   5.128   0.822 -0.2133 -0.5229  0.1059
   23MOL   H104 4108   2.631   4.981   0.630 -1.0227 -3.1186 -0.8231
   23MOL   H105 4109   2.551   5.087   0.539 -0.8482  0.9797  1.6811
   23MOL   H106 4110   2.401   4.965   0.760  0.9175 -0.8757 -0.1679
   23MOL   H107 4111   2.563   5.227   0.791  0.9993 -1.3045 -1.0672
   23MOL   H108 4112   2.476   5.157   0.913  0.7454 -0.7873  0.7447
   23MOL   H109 4113   2.610   5.067   0.859  0.6449 -1.3304 -3.0145
   23MOL   C110 4114   2.316   5.142   0.672 -0.9444  0.7308  0.2880
   23MOL   C111 4115   2.225   5.194   0.785 -0.1210 -0.0286 -0.0621
   23MOL   C112 4116   2.127   5.291   0.712  0.0833  0.2386  0.5173
   23MOL   H113 4117   2.363   5.223   0.617 -0.2642  0.7678  0.9065
   23MOL   H114 4118   2.256   5.081   0.605 -0.1075 -0.0175  0.2026
   23MOL   H115 4119   2.282   5.258   0.854  0.1283  1.8749 -1.9873
   23MOL   H116 4120   2.175   5.353   0.636 -1.4337  0.8721  0.0340
   23MOL   H117 4121   2.040   5.235   0.677 -0.3315  1.4166 -0.3593
   23MOL   H118 4122   2.086   5.365   0.781 -1.7746 -0.6732  0.4467
   23MOL   C119 4123   2.147   5.088   0.868 -0.5419  0.7616 -0.0797
   23MOL   C120 4124   2.063   5.143   0.984 -0.5241  0.9936 -0.0076
   23MOL   C121 4125   1.975   5.033   1.050 -0.0225  0.4060 -0.3257
   23MOL   H122 4126   2.078   5.052   0.791 -0.2267  1.9941 -0.9547
   23MOL   H123 4127   2.219   5.011   0.895 -0.4255  0.6808 -0.6211
   23MOL   H124 4128   1.994   5.225   0.963 -1.3347  0.3586  0.1401
   23MOL   H125 4129   2.037   4.950   1.083 -0.4500  0.5750  0.9268
   23MOL   H126 4130   1.920   5.075   1.134  0.6890  0.3367  0.1719
   23MOL   H127 4131   1.894   5.004   0.983 -0.7791  1.4549  0.1238
   23MOL   C128 4132   2.161   5.195   1.100  0.1465 -0.3312  0.2070
   23MOL   C129 4133   2.124   5.328   1.166  0.6192 -0.5767  0.0205
   23MOL   C130 4134   2.101   5.437   1.058 -0.7163  0.1379  0.3430
   23MOL   H131 4135   2.176   5.125   1.182 -0.5825 -2.2561 -1.2633
   23MOL   H132 4136   2.256   5.209   1.049 -0.3162  2.8930  0.0923
   23MOL   H133 4137   2.216   5.356   1.216  1.4000 -0.3275 -1.5167
   23MOL   H134 4138   2.186   5.432   0.989 -0.5737 -2.3042  0.6600
   23MOL   H135 4139   2.007   5.434   1.003  1.1074  0.9164 -2.9552
   23MOL   H136 4140   2.098   5.538   1.098 -0.7307 -0.3127  1.5041
   23MOL   C137 4141   1.996   5.319   1.256 -0.5433  0.5988 -0.0538
   23MOL   C138 4142   2.012   5.400   1.388  0.2946  0.5899  0.1682
   23MOL   C139 4143   2.058   5.543   1.382 -0.4133 -0.6780  0.2214
   23MOL   H140 4144   1.901   5.341   1.206 -1.0720 -2.5753 -0.5592
   23MOL   H141 4145   1.981   5.213   1.279 -0.1011  0.0609 -2.1037
   23MOL   H142 4146   2.085   5.344   1.446 -0.0515 -1.8937 -1.6886
   23MOL   H143 4147   2.090   5.578   1.481 -1.5116  1.0103 -0.0060
   23MOL   H144 4148   2.154   5.559   1.333 -1.5477 -0.5149 -1.9885
   23MOL   H145 4149   1.978   5.606   1.342 -0.1992 -0.4067  0.2141
   23MOL   C146 4150   1.884   5.408   1.461 -0.1084 -0.2011  0.2469
   23MOL   C147 4151   1.801   5.285   1.503  0.1742 -0.0654  1.1547
   23MOL   C148 4152   1.897   5.203   1.588 -0.7314 -0.3515 -0.4957
   23MOL   H149 4153   1.906   5.466   1.551  1.6192  0.6094 -0.6752
   23MOL   H150 4154   1.821   5.466   1.393 -2.1329 -2.2565  0.2975
   23MOL   H151 4155   1.784   5.227   1.412  0.1871  1.0513  0.4223
   23MOL   H152 4156   1.919   5.256   1.680  0.4263 -0.0395 -0.9445
   23MOL   H153 4157   1.844   5.114   1.623  0.9414 -2.0615 -2.1519
   23MOL   H154 4158   1.984   5.161   1.538 -1.3760 -0.9095 -1.1668
   23MOL   C155 4159   1.672   5.319   1.577  0.7488 -0.4681 -0.3334
   23MOL   C156 4160   1.569   5.375   1.487  0.1359 -0.1583 -0.1520
   23MOL   C157 4161   1.490   5.274   1.404 -0.0313  0.1089  0.2414
   23MOL   H158 4162   1.640   5.226   1.626 -2.2085 -0.1831 -1.6070
   23MOL   H159 4163   1.702   5.394   1.650 -0.7131  1.1225 -1.3318
   23MOL   H160 4164   1.609   5.448   1.417 -1.8820  0.3867 -0.7533
   23MOL   H161 4165   1.410   5.326   1.351 -0.1387  1.4027  1.6575
   23MOL   H162 4166   1.552   5.222   1.331  1.0221  0.3787  0.9279
   23MOL   H163 4167   1.451   5.200   1.474 -1.6769 -0.6858 -1.4638
   23MOL   C164 4168   1.468   5.465   1.575 -0.2992 -0.0559 -0.2830
   23MOL   C165 4169   1.386   5.378   1.682  0.7191 -0.5200 -0.0193
   23MOL   C166 4170   1.448   5.371   1.826 -0.1369  0.0679 -0.6750
   23MOL   H167 4171   1.532   5.544   1.615  0.2153 -0.2214 -0.7804
   23MOL   H168 4172   1.403   5.518   1.504 -1.7149  1.1239  1.8182
   23MOL   H169 4173   1.386   5.272   1.659 -0.5763 -0.7152  0.8433
   23MOL   H170 4174   1.398   5.298   1.889 -1.2427  0.4152 -1.1479
   23MOL   H171 4175   1.555   5.351   1.813 -0.1107 -1.5352  1.6196
   23MOL   H172 4176   1.437   5.471   1.869 -1.8390 -0.1590 -0.5429
   23MOL   C173 4177   1.235   5.432   1.706 -0.3203  0.1403  0.9970
   23MOL   C174 4178   1.145   5.384   1.593 -0.0191  0.0098 -0.4769
   23MOL   C175 4179   1.000   5.356   1.631  0.7264  0.3600 -0.1101
   23MOL   H176 4180   1.196   5.380   1.793  0.3913 -0.2714  1.0768
   23MOL   H177 4181   1.224   5.539   1.723  0.4770 -0.0579  2.8354
   23MOL   H178 4182   1.194   5.291   1.566 -1.1490 -0.5403 -0.6564
   23MOL   H179 4183   0.942   5.322   1.546 -1.0741 -1.1261  1.6629
   23MOL   H180 4184   0.998   5.277   1.706  1.0995  2.3354  2.0642
   23MOL   H181 4185   0.958   5.444   1.680  0.0432 -0.1267  0.1679
   23MOL   H182 4186   1.159   5.470   1.527 -0.0996  0.3588 -0.0447
   24MOL     C1 4187   6.417   0.434   4.685  0.1226 -0.0155 -0.4522
   24MOL     C2 4188   6.490   0.354   4.794  0.3927 -0.2602 -0.3141
   24MOL     C3 4189   6.626   0.419   4.807 -0.6251 -0.0852  0.0082
   24MOL     H4 4190   6.312   0.406   4.674  0.7950 -2.2011 -1.7071
   24MOL     H5 4191   6.464   0.427   4.587 -0.6876  0.5170 -0.8775
   24MOL     H6 4192   6.498   0.252   4.759  3.5223 -0.2526  0.2956
   24MOL     H7 4193   6.666   0.417   4.705  1.3646 -0.3470  0.7649
   24MOL     H8 4194   6.611   0.525   4.826 -2.2593 -0.2944 -0.0877
   24MOL     H9 4195   6.688   0.374   4.885 -1.4318 -0.9676  0.1407
   24MOL    H10 4196   6.418   0.542   4.697 -0.0667  0.1456 -1.8096
   24MOL    C11 4197   6.408   0.368   4.930 -0.4248  0.3084 -0.3668
   24MOL    C12 4198   6.286   0.275   4.939 -0.6037  0.2676  0.3991
   24MOL    C13 4199   6.335   0.127   4.965  0.0896 -0.1476 -0.2837
   24MOL    H14 4200   6.474   0.349   5.015 -1.8869 -4.0661 -0.0602
   24MOL    H15 4201   6.380   0.473   4.932 -1.0450  0.1189  0.9002
   24MOL    H16 4202   6.257   0.291   4.836 -1.9619 -0.7250  0.6262
   24MOL    H17 4203   6.390   0.088   4.880 -1.5281 -0.3620 -1.2582
   24MOL    H18 4204   6.394   0.107   5.054 -3.1724 -1.4208  1.6871
   24MOL    H19 4205   6.247   0.065   4.985 -0.3323  0.8158  0.9067
   24MOL    C20 4206   6.179   0.323   5.037 -0.3157 -0.1629 -0.0454
   24MOL    C21 4207   6.044   0.253   5.026 -0.1711  0.7388 -0.2956
   24MOL    C22 4208   5.948   0.326   5.123  0.0652  0.4630 -0.3883
   24MOL    H23 4209   6.221   0.316   5.137 -0.1786  0.8869 -0.0191
   24MOL    H24 4210   6.167   0.430   5.018  1.8207 -0.3197 -2.5858
   24MOL    H25 4211   6.051   0.151   5.065  0.8351  0.9612  0.1301
   24MOL    H26 4212   5.949   0.434   5.108  2.0899  0.2767 -1.7177
   24MOL    H27 4213   5.845   0.293   5.108 -0.2509  0.7074  1.1670
   24MOL    H28 4214   5.965   0.311   5.229  2.4085  0.0594 -0.7932
   24MOL    C29 4215   5.998   0.255   4.877 -0.2418 -0.5893  0.3299
   24MOL    C30 4216   5.858   0.202   4.836 -0.2905 -1.0333  0.0017
   24MOL    C31 4217   5.837   0.210   4.685  0.6562 -0.1497 -0.9062
   24MOL    H32 4218   6.018   0.353   4.833  0.6372 -0.5202  0.8571
   24MOL    H33 4219   6.063   0.185   4.824  0.4307  0.0180  0.3468
   24MOL    H34 4220   5.792   0.270   4.890  1.0381 -0.3750  0.8187
   24MOL    H35 4221   5.858   0.307   4.639 -0.7656 -1.6560 -5.0137
   24MOL    H36 4222   5.910   0.145   4.637  2.0216  0.3481  0.4811
   24MOL    H37 4223   5.732   0.189   4.662  0.2183  0.0314  0.8690
   24MOL    C38 4224   5.838   0.053   4.886  0.3149 -0.0834  0.8474
   24MOL    C39 4225   5.698   7.679   4.879 -0.2225  0.1256  0.9290
   24MOL    C40 4226   5.708   7.528   4.928  0.1036 -0.5293 -0.9508
   24MOL    H41 4227   5.910   7.682   4.842  0.0075  0.8202 -1.1246
   24MOL    H42 4228   5.857   0.060   4.993  1.8726  0.7921  0.5259
   24MOL    H43 4229   5.663   7.675   4.776 -0.5376 -0.0779  1.0441
   24MOL    H44 4230   5.694   7.519   5.035  2.3447 -0.1112 -0.5889
   24MOL    H45 4231   5.651   7.457   4.868 -1.5632 -0.5150  0.6118
   24MOL    H46 4232   5.809   7.489   4.915 -0.9990 -3.4027 -1.1531
   24MOL    C47 4233   5.581   0.062   4.939  1.2873  0.5997 -0.0895
   24MOL    C48 4234   5.440   0.008   4.902  0.1730  0.0020  0.3470
   24MOL    C49 4235   5.396   7.588   4.996  0.3219  0.3859  0.3304
   24MOL    H50 4236   5.590   0.071   5.047 -3.2670  2.0192  0.2967
   24MOL    H51 4237   5.599   0.162   4.901 -1.4762  0.8564 -0.8716
   24MOL    H52 4238   5.458   7.661   4.805 -0.3733  2.8830 -1.1337
   24MOL    H53 4239   5.490   7.540   5.023  1.6124  2.2282 -0.7681
   24MOL    H54 4240   5.348   7.616   5.089 -0.2999 -1.1343  0.4892
   24MOL    H55 4241   5.328   7.516   4.950  0.8796 -1.8160  2.8513
   24MOL    C56 4242   5.334   0.118   4.896 -0.6020 -0.0088  0.1110
   24MOL    C57 4243   5.334   0.217   4.775 -0.0321 -0.1007  0.9182
   24MOL    C58 4244   5.421   0.343   4.801 -0.1580 -0.2196  0.7962
   24MOL    H59 4245   5.237   0.068   4.900 -0.3994 -0.4887 -0.8644
   24MOL    H60 4246   5.324   0.184   4.982  1.5707  1.9786 -1.0748
   24MOL    H61 4247   5.233   0.256   4.765  0.1378  0.4419  1.2732
   24MOL    H62 4248   5.525   0.328   4.774 -0.2307 -2.1528  1.5256
   24MOL    H63 4249   5.364   0.420   4.748 -1.1372 -2.0332 -0.8528
   24MOL    H64 4250   5.415   0.365   4.907  2.1526  0.1619  0.8657
   24MOL    C65 4251   5.367   0.152   4.639  0.0243 -0.5481 -0.0792
   24MOL    C66 4252   5.347   0.232   4.511 -0.0205 -0.6746  0.2941
   24MOL    C67 4253   5.443   0.177   4.406 -0.1939  0.0220  0.3783
   24MOL    H68 4254   5.467   0.108   4.635  0.2242 -0.0671 -0.4186
   24MOL    H69 4255   5.298   0.067   4.636  0.0129 -0.5063 -1.6742
   24MOL    H70 4256   5.383   0.333   4.530  0.3438 -0.3222 -2.1223
   24MOL    H71 4257   5.426   0.070   4.391 -2.2025  0.4392 -0.5127
   24MOL    H72 4258   5.427   0.210   4.304 -2.9574 -0.8086  0.4982
   24MOL    H73 4259   5.545   0.194   4.440 -0.3368 -2.6218  2.3160
   24MOL    C74 4260   5.195   0.244   4.483  0.1810  0.4058 -0.1380
   24MOL    C75 4261   5.145   0.311   4.360  0.1620 -0.3308  0.7320
   24MOL    C76 4262   5.000   0.276   4.340  0.2615 -0.5310 -0.4116
   24MOL    H77 4263   5.162   0.140   4.484 -0.0731  0.4862  0.0032
   24MOL    H78 4264   5.146   0.288   4.570  1.2997  2.0145 -0.3102
   24MOL    H79 4265   5.198   0.281   4.271 -1.2375  1.1447 -0.6372
   24MOL    H80 4266   4.980   0.171   4.359  0.6527 -0.5229  0.0569
   24MOL    H81 4267   4.928   0.342   4.388  1.2996 -0.2438  0.7854
   24MOL    H82 4268   4.972   0.284   4.235  0.8881  2.0759 -0.4306
   24MOL    C83 4269   5.167   0.461   4.379  0.5218 -0.1169  0.0955
   24MOL    C84 4270   5.111   0.538   4.255  0.7746  0.0559  0.3261
   24MOL    C85 4271   5.131   0.686   4.294 -0.5129  0.0149 -0.3618
   24MOL    H86 4272   5.120   0.500   4.469 -0.5012  0.8470 -0.8426
   24MOL    H87 4273   5.271   0.490   4.394  0.0159  1.7592  0.0559
   24MOL    H88 4274   5.006   0.513   4.240  0.8015 -0.6965  1.3304
   24MOL    H89 4275   5.099   0.755   4.216 -1.2200 -0.3889 -0.4342
   24MOL    H90 4276   5.063   0.704   4.377 -2.0553 -4.0082 -0.6183
   24MOL    H91 4277   5.232   0.720   4.317 -0.9808  1.1971 -0.0248
   24MOL    C92 4278   5.181   0.508   4.119 -0.2936  0.1626  0.4437
   24MOL    C93 4279   5.112   0.557   3.994 -0.3363 -0.2329  0.0712
   24MOL    C94 4280   5.222   0.574   3.883 -0.2702  0.5302  0.0469
   24MOL    H95 4281   5.281   0.551   4.123  0.0591 -0.6361  0.4284
   24MOL    H96 4282   5.200   0.404   4.091  1.1427 -0.2069  2.6257
   24MOL    H97 4283   5.086   0.661   4.014  1.4338 -0.0077  1.3857
   24MOL    H98 4284   5.284   0.662   3.898  1.6637 -0.5984 -1.1690
   24MOL    H99 4285   5.284   0.484   3.882 -1.2852 -0.1921  0.3611
   24MOL   H100 4286   5.181   0.569   3.782  1.2580  1.2315 -0.6160
   24MOL   C101 4287   4.996   0.459   3.952 -0.0117 -1.2164  0.0545
   24MOL   C102 4288   4.864   0.536   3.926  0.5665  0.3247  0.3888
   24MOL   C103 4289   4.873   0.635   3.802 -0.1048 -0.2595 -0.3575
   24MOL   H104 4290   5.035   0.415   3.860 -1.1432 -0.1653 -0.9362
   24MOL   H105 4291   4.986   0.390   4.036 -1.3802  1.1546  1.8776
   24MOL   H106 4292   4.849   0.604   4.010 -1.1478 -0.4052  0.7082
   24MOL   H107 4293   4.961   0.699   3.811  0.2513 -0.5556 -1.5934
   24MOL   H108 4294   4.897   0.585   3.708  0.0326  0.7664 -0.8765
   24MOL   H109 4295   4.783   0.694   3.789 -0.7994 -0.9002  1.3543
   24MOL   C110 4296   4.743   0.438   3.911  0.3363  0.6843  0.1219
   24MOL   C111 4297   4.698   0.353   4.040 -0.2386 -1.2048  0.1998
   24MOL   C112 4298   4.664   0.445   4.154 -0.1344 -0.8615 -0.8147
   24MOL   H113 4299   4.652   0.495   3.889  1.2294  1.6970 -1.0165
   24MOL   H114 4300   4.762   0.381   3.820  1.2272  0.8974  0.1769
   24MOL   H115 4301   4.791   0.311   4.076  0.6386  1.7224  1.4639
   24MOL   H116 4302   4.646   0.383   4.242 -0.3212 -0.7111 -0.7494
   24MOL   H117 4303   4.747   0.505   4.193  0.9576 -1.8866 -1.5219
   24MOL   H118 4304   4.565   0.490   4.149 -1.0161 -2.7226 -0.3628
   24MOL   C119 4305   4.605   0.235   4.022  0.3640 -0.8448  0.0477
   24MOL   C120 4306   4.668   0.095   4.022 -0.7742 -0.1251 -0.0453
   24MOL   C121 4307   4.567   7.684   4.040  0.2576 -0.3124  0.1739
   24MOL   H122 4308   4.545   0.238   4.113 -1.0173 -3.5630 -0.7270
   24MOL   H123 4309   4.529   0.248   3.945 -0.7970 -1.6916  1.0235
   24MOL   H124 4310   4.741   0.074   4.099  0.3548  0.3279 -0.9729
   24MOL   H125 4311   4.493   0.003   3.961  0.4583  0.1959  0.0877
   24MOL   H126 4312   4.602   7.582   4.030 -1.5309 -1.0849  1.5069
   24MOL   H127 4313   4.534   7.695   4.143 -0.2913 -0.0448 -0.0249
   24MOL   C128 4314   4.736   0.078   3.880 -0.7340 -0.0506  0.1516
   24MOL   C129 4315   4.865   0.003   3.880  0.1050 -0.6597 -0.2514
   24MOL   C130 4316   4.892   7.645   3.738 -0.2590 -0.4600  0.3236
   24MOL   H131 4317   4.669   0.029   3.809 -0.5078  0.9660 -0.7732
   24MOL   H132 4318   4.749   0.174   3.830  1.5751 -0.1134  0.6079
   24MOL   H133 4319   4.854   7.624   3.957  2.6336 -0.3054  0.5283
   24MOL   H134 4320   4.895   0.025   3.661 -0.9858 -0.7910 -0.0394
   24MOL   H135 4321   4.988   7.593   3.738  0.6996  1.2674  0.9213
   24MOL   H136 4322   4.827   7.562   3.711 -1.0914 -0.0415  1.0132
   24MOL   C137 4323   4.977   0.105   3.923  0.0486 -0.0786 -0.1761
   24MOL   C138 4324   5.110   0.033   3.957 -0.3334 -1.2543 -0.0712
   24MOL   C139 4325   5.234   0.131   3.954 -0.3223 -0.4584  0.3796
   24MOL   H140 4326   5.001   0.194   3.866  0.0226 -0.3052 -0.5420
   24MOL   H141 4327   4.939   0.168   4.003 -1.0537  0.3924 -1.0503
   24MOL   H142 4328   5.134   7.658   3.880 -0.0989 -0.5086 -0.7114
   24MOL   H143 4329   5.229   0.200   3.870 -5.1896 -1.0849  0.0412
   24MOL   H144 4330   5.217   0.203   4.035 -0.7449  0.1909 -0.2783
   24MOL   H145 4331   5.329   0.077   3.962 -0.6216 -1.0508 -0.0507
   24MOL   C146 4332   5.097   7.667   4.093 -0.4074  0.9268 -0.5925
   24MOL   C147 4333   5.190   7.547   4.126  0.1812 -0.9071 -0.5962
   24MOL   C148 4334   5.183   7.524   4.277 -0.1344 -0.0480 -0.5102
   24MOL   H149 4335   5.119   0.046   4.168  2.5572  1.4855 -1.9640
   24MOL   H150 4336   4.996   7.628   4.106 -1.0450  2.2259 -1.4951
   24MOL   H151 4337   5.290   7.589   4.113 -1.3191  3.1059  0.0637
   24MOL   H152 4338   5.274   7.466   4.295 -0.2134  0.0158  0.1052
   24MOL   H153 4339   5.191   7.615   4.336  0.0998 -0.3950 -0.0004
   24MOL   H154 4340   5.100   7.480   4.332  1.3744 -0.7064  1.3304
   24MOL   C155 4341   5.151   7.417   4.036 -0.8294 -0.1660 -1.0537
   24MOL   C156 4342   5.271   7.329   3.996  1.1085 -0.1841  0.6081
   24MOL   C157 4343   5.323   7.249   4.117  0.3527  0.0520  0.1246
   24MOL   H158 4344   5.088   7.351   4.095 -0.3470  0.8939  0.6951
   24MOL   H159 4345   5.087   7.446   3.953 -1.6149  1.7187  0.1669
   24MOL   H160 4346   5.350   7.389   3.951  1.7270 -0.8964  0.7323
   24MOL   H161 4347   5.241   7.219   4.182  0.1254  0.1632 -0.1106
   24MOL   H162 4348   5.378   7.156   4.099  1.8968  0.9962 -0.1274
   24MOL   H163 4349   5.384   7.308   4.185  0.0101  0.2980  0.2201
   24MOL   C164 4350   5.230   7.222   3.892  0.4041  0.3412 -0.0772
   24MOL   C165 4351   5.360   7.175   3.823  0.5745 -0.0585  0.5795
   24MOL   C166 4352   5.349   7.019   3.795 -0.3165 -0.3162 -0.3753
   24MOL   H167 4353   5.176   7.138   3.934  0.2554  1.1958  1.4610
   24MOL   H168 4354   5.173   7.271   3.813  0.6340  0.0423 -0.4291
   24MOL   H169 4355   5.447   7.202   3.884  0.8890 -0.4030  0.2853
   24MOL   H170 4356   5.438   6.980   3.744  0.3723  0.2273  0.3919
   24MOL   H171 4357   5.343   6.975   3.895 -1.9074 -0.4413 -0.5123
   24MOL   H172 4358   5.259   6.980   3.748 -0.7483 -2.0397  1.7871
   24MOL   C173 4359   5.388   7.252   3.689 -1.3912 -0.2510  0.2027
   24MOL   C174 4360   5.517   7.202   3.610 -0.2406 -0.0418  0.4170
   24MOL   C175 4361   5.533   7.274   3.475 -0.2452  0.2134 -0.2888
   24MOL   H176 4362   5.312   7.236   3.612  0.2921 -1.2942 -1.3034
   24MOL   H177 4363   5.391   7.358   3.713  1.6389 -0.3341  0.4323
   24MOL   H178 4364   5.524   7.097   3.580  1.2251  0.6269 -1.6852
   24MOL   H179 4365   5.446   7.257   3.411  1.1290 -0.4494 -2.0135
   24MOL   H180 4366   5.537   7.382   3.490 -1.7084  0.2012  0.2090
   24MOL   H181 4367   5.620   7.241   3.419  0.4863 -0.5868  1.2853
   24MOL   H182 4368   5.597   7.220   3.682 -0.2659  0.5055  0.3085
   25MOL     C1 4369   4.687   7.322   7.103  0.4054  0.1536  0.0852
   25MOL     C2 4370   4.706   7.306   7.260 -0.2253  0.0711  0.8069
   25MOL     C3 4371   4.712   7.436   7.339 -0.4459 -0.2204 -0.5866
   25MOL     H4 4372   4.686   7.229   7.045  2.5114 -0.4732  1.0031
   25MOL     H5 4373   4.774   7.370   7.060  0.3641 -0.3042 -0.5153
   25MOL     H6 4374   4.802   7.256   7.275 -0.0265  0.4315  0.7439
   25MOL     H7 4375   4.648   7.512   7.295 -1.7982 -1.1958 -0.3228
   25MOL     H8 4376   4.690   7.425   7.445  1.6495 -1.0365 -0.2181
   25MOL     H9 4377   4.810   7.483   7.329  0.6674 -2.4843 -0.4382
   25MOL    H10 4378   4.601   7.380   7.070  0.4413  0.9127  1.2879
   25MOL    C11 4379   4.599   7.208   7.322 -0.0186  0.5651  0.4034
   25MOL    C12 4380   4.627   7.134   7.451  0.5313  0.5328  0.0791
   25MOL    C13 4381   4.509   7.092   7.541  0.6325  0.1990  0.9381
   25MOL    H14 4382   4.505   7.265   7.327 -0.3590  0.0799 -0.4998
   25MOL    H15 4383   4.581   7.130   7.249 -1.4644  0.2943  1.0181
   25MOL    H16 4384   4.660   7.222   7.507 -1.2022  0.9836  0.4201
   25MOL    H17 4385   4.530   7.054   7.641  0.8810 -1.8823  0.1183
   25MOL    H18 4386   4.450   7.183   7.556  0.9346  0.9242 -1.9745
   25MOL    H19 4387   4.440   7.029   7.485  0.4478  1.4994 -0.3115
   25MOL    C20 4388   4.736   7.019   7.430 -0.1006 -0.2122 -0.8947
   25MOL    C21 4389   4.795   6.959   7.559  0.3630 -0.3526 -0.5172
   25MOL    C22 4390   4.878   6.832   7.528  0.1630 -0.6080  0.5996
   25MOL    H23 4391   4.682   6.932   7.392  0.7089 -1.3414  0.4919
   25MOL    H24 4392   4.818   7.046   7.363  0.2874  0.5676 -0.1066
   25MOL    H25 4393   4.722   6.918   7.629  2.4169 -2.7817  0.2854
   25MOL    H26 4394   4.952   6.848   7.449 -0.2749  1.7873  0.6288
   25MOL    H27 4395   4.938   6.808   7.616 -0.0376  1.7315  1.4075
   25MOL    H28 4396   4.816   6.743   7.528  0.1971 -0.6561  2.1693
   25MOL    C29 4397   4.866   7.066   7.641  0.0934  1.0281 -0.0490
   25MOL    C30 4398   4.799   7.109   0.085 -0.6442  0.2102  0.0160
   25MOL    C31 4399   4.813   6.998   0.187 -0.9560 -0.3287  0.4941
   25MOL    H32 4400   4.969   7.042   7.665 -0.2621 -0.0182  0.4512
   25MOL    H33 4401   4.886   7.152   7.577 -0.6057  0.7267 -0.6762
   25MOL    H34 4402   4.693   7.117   0.063 -0.2123  1.4745 -1.8228
   25MOL    H35 4403   4.917   6.970   0.202 -0.7081  0.5029  0.3433
   25MOL    H36 4404   4.770   7.029   0.283 -0.2729 -0.4899  0.8575
   25MOL    H37 4405   4.760   6.906   0.160 -1.6777 -1.0288  4.0109
   25MOL    C38 4406   4.854   7.241   0.134 -0.1694  0.6187 -0.4000
   25MOL    C39 4407   4.814   7.369   0.045  0.2043  0.4667 -0.7004
   25MOL    C40 4408   4.660   7.411   0.061 -0.4073 -0.0383 -0.2268
   25MOL    H41 4409   4.827   7.270   0.236  2.7118 -1.3082  0.9636
   25MOL    H42 4410   4.963   7.239   0.138 -0.1686  2.2362  0.9185
   25MOL    H43 4411   4.812   7.336   7.639  1.7511 -2.0306  0.0274
   25MOL    H44 4412   4.599   7.334   0.014 -0.4168 -0.5023  0.5398
   25MOL    H45 4413   4.649   7.433   0.167 -2.0348 -0.0138 -0.3873
   25MOL    H46 4414   4.651   7.506   0.008  1.7293 -0.2105 -0.9551
   25MOL    C47 4415   4.905   7.495   0.068  0.3431  0.7965  0.6610
   25MOL    C48 4416   4.968   7.576   7.653  0.4963  0.3114 -0.1295
   25MOL    C49 4417   5.038   7.479   7.553 -0.1213  0.0492  0.0242
   25MOL    H50 4418   4.841   7.566   0.120  0.0910  0.7933  0.3562
   25MOL    H51 4419   4.983   7.465   0.138 -1.0341 -2.9821  0.6572
   25MOL    H52 4420   5.051   7.636   7.690  0.9396 -0.1467 -0.3771
   25MOL    H53 4421   5.105   7.414   7.609  2.7030  1.9877 -0.9638
   25MOL    H54 4422   4.966   7.420   7.497 -0.0794  0.3709 -0.3704
   25MOL    H55 4423   5.090   7.544   7.483 -0.4767 -0.9091 -1.1450
   25MOL    C56 4424   4.872   7.671   7.578  0.2989 -0.0199 -0.4551
   25MOL    C57 4425   4.802   0.084   7.665 -0.7157 -0.5152 -0.5723
   25MOL    C58 4426   4.909   0.180   0.019  0.3135 -0.1988  0.2267
   25MOL    H59 4427   4.919   0.023   7.492 -0.2861  2.3196  0.5410
   25MOL    H60 4428   4.790   7.613   7.536  0.7224  0.5688 -2.1654
   25MOL    H61 4429   4.748   0.038   0.051  0.7413 -0.0248  0.6693
   25MOL    H62 4430   4.860   0.247   0.090 -1.4900 -0.9916 -0.2554
   25MOL    H63 4431   4.992   0.135   0.074 -1.4882 -2.4443  1.1636
   25MOL    H64 4432   4.964   0.235   7.640 -1.6471  2.5431  0.7354
   25MOL    C65 4433   4.697   0.160   7.581  0.2417  0.1214  0.4353
   25MOL    C66 4434   4.622   0.269   7.649  0.4778 -0.4478  0.4404
   25MOL    C67 4435   4.549   0.361   7.549  0.2859 -0.0472 -0.8325
   25MOL    H68 4436   4.739   0.192   7.485 -0.2308  2.2629  0.9305
   25MOL    H69 4437   4.620   0.089   7.550  1.9398 -0.3096 -3.1167
   25MOL    H70 4438   4.703   0.333   7.681  1.1134  0.5450 -2.9618
   25MOL    H71 4439   4.598   0.384   7.455 -0.2028 -1.2735 -1.4109
   25MOL    H72 4440   4.449   0.323   7.523  0.7138 -1.4346 -0.4981
   25MOL    H73 4441   4.509   0.447   7.602  0.6580 -0.3174 -0.0990
   25MOL    C74 4442   4.534   0.226   0.073 -0.2868 -0.7593  0.0125
   25MOL    C75 4443   4.494   0.349   0.164 -0.2456  0.2470  0.4186
   25MOL    C76 4444   4.383   0.299   0.257  0.1733 -0.8600  0.5294
   25MOL    H77 4445   4.445   0.197   0.016  0.3202 -1.3372 -0.6601
   25MOL    H78 4446   4.585   0.149   0.130  1.0694 -0.2096 -0.4488
   25MOL    H79 4447   4.450   0.430   0.106 -1.2626 -2.2398 -2.4802
   25MOL    H80 4448   4.426   0.260   0.349  0.6843 -2.0510 -0.2045
   25MOL    H81 4449   4.324   0.384   0.290 -1.2268 -1.3769 -0.5700
   25MOL    H82 4450   4.319   0.216   0.226 -2.1808  0.8821  0.6041
   25MOL    C83 4451   4.611   0.413   0.243  0.2861 -0.4960 -0.0760
   25MOL    C84 4452   4.579   0.552   0.320 -0.1406 -0.1511  0.1832
   25MOL    C85 4453   4.518   0.528   0.462 -1.1900 -0.3032  0.6319
   25MOL    H86 4454   4.664   0.341   0.304  0.2208 -0.0527  0.5059
   25MOL    H87 4455   4.689   0.435   0.169 -0.5712 -0.2982 -0.9256
   25MOL    H88 4456   4.499   0.600   0.264 -0.6488 -0.2635  0.8115
   25MOL    H89 4457   4.488   0.628   0.492  0.3929  0.6725 -0.9680
   25MOL    H90 4458   4.427   0.470   0.450 -0.9953 -1.0930  2.7687
   25MOL    H91 4459   4.578   0.465   0.529  2.2611 -1.6307 -3.4859
   25MOL    C92 4460   4.707   0.632   0.343  0.5109 -0.2055  0.0166
   25MOL    C93 4461   4.755   0.717   0.223  0.1595  0.2234 -0.2177
   25MOL    C94 4462   4.645   0.813   0.172 -0.4459  0.2909  0.4614
   25MOL    H95 4463   4.688   0.698   0.428  2.2934  0.5425 -0.1479
   25MOL    H96 4464   4.789   0.574   0.384  0.2558  0.7779  1.9687
   25MOL    H97 4465   4.779   0.647   0.142 -1.8306 -0.9182  0.1596
   25MOL    H98 4466   4.614   0.884   0.248 -0.5037  1.5915 -0.7608
   25MOL    H99 4467   4.692   0.872   0.093 -0.6619 -1.8430 -1.3043
   25MOL   H100 4468   4.564   0.748   0.140 -0.0525 -0.1033  0.2648
   25MOL   C101 4469   4.882   0.806   0.260 -0.5161  0.0594  0.2017
   25MOL   C102 4470   5.014   0.723   0.281  0.5769 -0.4753  0.0965
   25MOL   C103 4471   5.076   0.668   0.146 -0.0890  0.5677  0.6277
   25MOL   H104 4472   4.913   0.873   0.180 -0.7522  1.1431  1.0005
   25MOL   H105 4473   4.872   0.877   0.342 -0.5842  0.1052  0.1539
   25MOL   H106 4474   5.002   0.642   0.353 -1.8624 -0.1424  0.1133
   25MOL   H107 4475   5.091   0.749   0.075 -1.2011  1.5008  1.4224
   25MOL   H108 4476   5.177   0.631   0.162 -0.1823  0.0841  0.0989
   25MOL   H109 4477   5.031   0.585   0.091  1.4551  0.5742 -0.6756
   25MOL   C110 4478   5.124   0.816   0.345  0.4383 -1.0105 -0.5243
   25MOL   C111 4479   5.111   0.854   0.493 -0.5305  0.3277 -0.2792
   25MOL   C112 4480   5.065   0.745   0.584  0.9148 -0.7439 -0.0659
   25MOL   H113 4481   5.221   0.766   0.333  0.7497 -0.6793  0.5889
   25MOL   H114 4482   5.132   0.914   0.298  1.7505 -0.3210  1.0559
   25MOL   H115 4483   5.026   0.921   0.502 -1.4201 -1.1615  2.9128
   25MOL   H116 4484   5.139   0.666   0.589 -0.2164 -2.0797 -2.8131
   25MOL   H117 4485   5.056   0.784   0.685 -1.9535 -0.2190 -0.4793
   25MOL   H118 4486   4.976   0.687   0.560 -0.0452  1.1085 -1.1797
   25MOL   C119 4487   5.225   0.940   0.559  0.2653  0.0567  0.2559
   25MOL   C120 4488   5.214   1.098   0.541  0.2431 -1.5593 -0.3059
   25MOL   C121 4489   5.086   1.158   0.589  0.6823  0.3165 -0.2749
   25MOL   H122 4490   5.239   0.918   0.665  0.8278  2.1546  0.6331
   25MOL   H123 4491   5.319   0.901   0.520  0.6990  0.3504  0.9894
   25MOL   H124 4492   5.225   1.118   0.434 -0.8696  0.0271 -0.1440
   25MOL   H125 4493   5.047   1.105   0.675 -0.1335  1.2548 -0.0641
   25MOL   H126 4494   5.083   1.266   0.608  1.0484  0.6567 -2.0345
   25MOL   H127 4495   5.009   1.154   0.512  1.2971  1.8551 -1.0043
   25MOL   C128 4496   5.329   1.172   0.613 -0.0634  0.1983  0.0883
   25MOL   C129 4497   5.474   1.155   0.562 -0.2040  0.5104 -0.0768
   25MOL   C130 4498   5.486   1.251   0.446 -0.0164 -0.5155  0.0468
   25MOL   H131 4499   5.307   1.278   0.630  1.2624  0.4721  0.1320
   25MOL   H132 4500   5.329   1.130   0.714 -1.9237  1.7336  0.7553
   25MOL   H133 4501   5.490   1.050   0.535 -0.0304  0.6680 -0.5976
   25MOL   H134 4502   5.456   1.355   0.463 -2.4284 -1.4046  1.5644
   25MOL   H135 4503   5.591   1.250   0.417  0.6843 -0.3668  2.4232
   25MOL   H136 4504   5.419   1.215   0.368 -0.6006  2.2346 -0.7570
   25MOL   C137 4505   5.566   1.192   0.681  0.4606 -0.1729 -0.3772
   25MOL   C138 4506   5.721   1.214   0.662 -0.0381 -0.0766  0.4804
   25MOL   C139 4507   5.801   1.252   0.791 -0.2333  0.5974  0.2853
   25MOL   H140 4508   5.525   1.278   0.734  0.1250 -0.7030  0.2285
   25MOL   H141 4509   5.555   1.104   0.744  0.0751 -0.5995 -1.0298
   25MOL   H142 4510   5.735   1.295   0.591  0.3731  0.5473  1.2710
   25MOL   H143 4511   5.765   1.346   0.833  2.2539  1.4407  0.5810
   25MOL   H144 4512   5.793   1.177   0.870  0.9780  1.5566  1.3341
   25MOL   H145 4513   5.905   1.270   0.766 -0.4573 -0.0046 -1.0974
   25MOL   C146 4514   5.789   1.096   0.587 -0.5037  0.5045 -0.0937
   25MOL   C147 4515   5.874   1.134   0.464 -0.0157  0.2979  0.8705
   25MOL   C148 4516   5.995   1.230   0.497 -0.3023 -0.2021  0.2450
   25MOL   H149 4517   5.843   1.033   0.657 -1.9395  0.1640  0.7288
   25MOL   H150 4518   5.716   1.028   0.543  0.3847 -0.8760  0.5290
   25MOL   H151 4519   5.816   1.178   0.383 -2.2020  0.9900  2.7529
   25MOL   H152 4520   6.027   1.284   0.407 -0.6607  0.5042  0.5403
   25MOL   H153 4521   5.960   1.315   0.556 -2.2588  0.6929 -2.0669
   25MOL   H154 4522   6.076   1.191   0.557  1.3939  2.8502  0.0232
   25MOL   C155 4523   5.932   1.007   0.401 -0.0133 -0.1235  0.6214
   25MOL   C156 4524   5.844   0.931   0.300 -0.1748  0.2191 -0.3660
   25MOL   C157 4525   5.850   1.007   0.163  0.4131  0.0206  0.8934
   25MOL   H158 4526   6.021   1.032   0.343 -0.6426  1.0454  0.1375
   25MOL   H159 4527   5.960   0.945   0.485 -1.7744 -0.2490  1.1452
   25MOL   H160 4528   5.740   0.934   0.333  0.1162 -1.8219  0.7789
   25MOL   H161 4529   5.950   1.034   0.130 -0.0822  1.0963  0.2415
   25MOL   H162 4530   5.808   0.935   0.092 -1.7002  0.6609  1.4575
   25MOL   H163 4531   5.779   1.089   0.157  0.2041 -0.2443 -0.3212
   25MOL   C164 4532   5.891   0.786   0.287 -0.4290 -0.2066  0.0071
   25MOL   C165 4533   5.810   0.682   0.216 -0.3086  0.1670  0.3318
   25MOL   C166 4534   5.895   0.556   0.183  0.3353 -0.6581  0.1169
   25MOL   H167 4535   5.989   0.788   0.239  0.2273 -0.6001  1.3241
   25MOL   H168 4536   5.914   0.749   0.386  0.4256 -1.3637 -0.6064
   25MOL   H169 4537   5.771   0.712   0.119 -2.5019 -4.1569 -0.2104
   25MOL   H170 4538   5.934   0.503   0.270 -1.7387  0.9476  2.1250
   25MOL   H171 4539   5.828   0.483   0.139  0.1512 -0.7220  0.4963
   25MOL   H172 4540   5.973   0.575   0.109 -0.0495 -0.9786 -0.3712
   25MOL   C173 4541   5.688   0.649   0.303  0.5389 -0.5805 -0.3055
   25MOL   C174 4542   5.564   0.569   0.238 -0.0656 -0.1707  0.6468
   25MOL   C175 4543   5.448   0.572   0.336 -0.2289 -0.2534 -0.2242
   25MOL   H176 4544   5.716   0.601   0.396  0.0798  0.7207  0.5208
   25MOL   H177 4545   5.652   0.741   0.349 -0.8383 -0.2067 -2.0536
   25MOL   H178 4546   5.581   0.466   0.206 -0.5861 -0.6504  1.9157
   25MOL   H179 4547   5.440   0.669   0.387  1.6184 -0.2055  0.0202
   25MOL   H180 4548   5.361   0.551   0.274 -0.2689  1.4951 -0.8138
   25MOL   H181 4549   5.457   0.485   0.401 -1.6595  0.5262  1.0542
   25MOL   H182 4550   5.522   0.616   0.149 -1.2487  0.5937  1.5988
   26MOL     C1 4551   3.764   5.736   1.221  0.2925 -0.3637 -0.6868
   26MOL     C2 4552   3.826   5.746   1.357 -0.8015  0.2528  0.7072
   26MOL     C3 4553   3.977   5.736   1.339 -1.0077  0.2773 -0.1867
   26MOL     H4 4554   3.655   5.737   1.225  0.2422  2.1511 -1.5455
   26MOL     H5 4555   3.784   5.650   1.156 -1.0003  1.0441 -3.0430
   26MOL     H6 4556   3.804   5.648   1.400  0.5630 -0.4350 -0.1278
   26MOL     H7 4557   4.013   5.650   1.282  1.7679  0.7808  0.7383
   26MOL     H8 4558   4.009   5.825   1.285  0.4430 -0.3405 -0.3471
   26MOL     H9 4559   4.015   5.740   1.441  0.2232 -1.3308 -0.5605
   26MOL    H10 4560   3.784   5.827   1.164  0.2145  0.9041  1.2835
   26MOL    C11 4561   3.773   5.868   1.436  0.5960  0.1467 -0.3303
   26MOL    C12 4562   3.841   5.899   1.567 -0.7724  0.3827  0.4410
   26MOL    C13 4563   3.786   6.032   1.626 -0.0703 -0.2484 -1.0833
   26MOL    H14 4564   3.778   5.959   1.377  1.8941  0.0006 -0.4736
   26MOL    H15 4565   3.667   5.852   1.455  0.5064  0.1535 -0.8198
   26MOL    H16 4566   3.945   5.911   1.539 -1.3232 -1.2522 -2.5726
   26MOL    H17 4567   3.684   6.025   1.662 -1.5176  1.2292 -4.6241
   26MOL    H18 4568   3.845   6.071   1.709 -1.3044 -2.1177  0.6985
   26MOL    H19 4569   3.795   6.104   1.544  2.8954  0.4283 -0.2255
   26MOL    C20 4570   3.832   5.779   1.666 -0.1037  0.1369 -0.1263
   26MOL    C21 4571   3.969   5.741   1.729 -0.5264 -0.4430 -0.4136
   26MOL    C22 4572   4.018   5.836   1.843  0.4127  0.0241 -0.0342
   26MOL    H23 4573   3.755   5.801   1.740 -0.0515 -0.3637  0.0748
   26MOL    H24 4574   3.801   5.690   1.612 -0.1015  0.0860 -0.0418
   26MOL    H25 4575   4.057   5.751   1.665 -0.8456  1.4948 -0.5597
   26MOL    H26 4576   3.954   5.850   1.930  0.3679  1.1544 -0.2399
   26MOL    H27 4577   4.111   5.797   1.886  1.2060 -0.3847 -2.0644
   26MOL    H28 4578   4.048   5.934   1.805 -2.2889 -0.0053 -2.3632
   26MOL    C29 4579   3.980   5.595   1.780 -0.2654  0.2968 -0.2865
   26MOL    C30 4580   4.009   5.492   1.672 -0.8429  0.6872  0.4255
   26MOL    C31 4581   4.148   5.519   1.612 -0.0856  0.1630  0.5414
   26MOL    H32 4582   4.049   5.587   1.863 -0.6271  2.4035  0.2322
   26MOL    H33 4583   3.883   5.572   1.825 -0.6388  0.4871 -0.9732
   26MOL    H34 4584   3.931   5.505   1.597 -2.1969 -0.2396  1.6410
   26MOL    H35 4585   4.153   5.605   1.545 -0.0245  0.3519  0.7853
   26MOL    H36 4586   4.215   5.531   1.697  2.1601 -1.0603 -1.0299
   26MOL    H37 4587   4.177   5.431   1.556 -0.6057  1.6695 -2.1741
   26MOL    C38 4588   4.006   5.341   1.729 -0.4971 -0.2402  0.8660
   26MOL    C39 4589   3.868   5.288   1.769 -0.1815  0.3906  0.0169
   26MOL    C40 4590   3.774   5.291   1.644  0.5154  0.0601  0.5286
   26MOL    H41 4591   4.039   5.286   1.642 -1.7331  0.7826 -0.2800
   26MOL    H42 4592   4.088   5.323   1.798 -1.6366 -0.7438  2.1072
   26MOL    H43 4593   3.823   5.354   1.843  0.6741 -1.1862  2.0206
   26MOL    H44 4594   3.765   5.389   1.598  1.9118 -0.3211 -0.5893
   26MOL    H45 4595   3.819   5.237   1.561 -1.7905  2.1505 -2.1666
   26MOL    H46 4596   3.669   5.262   1.658 -0.3075  2.5729 -0.1844
   26MOL    C47 4597   3.873   5.148   1.838 -0.7154 -0.1523 -0.0174
   26MOL    C48 4598   3.930   5.152   1.981 -0.5314  0.4448 -0.1196
   26MOL    C49 4599   3.825   5.179   2.091  0.0972  0.0118  0.5269
   26MOL    H50 4600   3.771   5.108   1.839 -0.4519 -0.8406  2.1561
   26MOL    H51 4601   3.926   5.069   1.785 -0.9372 -1.2847  1.4045
   26MOL    H52 4602   4.012   5.223   1.985  1.3960 -1.6827 -0.8574
   26MOL    H53 4603   3.769   5.272   2.081  0.5695  0.2447 -0.0554
   26MOL    H54 4604   3.739   5.114   2.084 -0.7481  1.0805  0.9161
   26MOL    H55 4605   3.867   5.177   2.191  1.6532  2.2123 -0.0243
   26MOL    C56 4606   4.005   5.018   2.022  0.4409  0.5088  0.1300
   26MOL    C57 4607   4.140   4.984   1.956  0.6060 -0.2960 -0.3913
   26MOL    C58 4608   4.255   5.057   2.022 -0.2093  0.7944 -0.2174
   26MOL    H59 4609   4.020   5.013   2.130  1.8203  1.2524 -0.0132
   26MOL    H60 4610   3.936   4.937   1.998 -0.6370  1.7120 -0.8994
   26MOL    H61 4611   4.136   5.028   1.856 -1.1132  2.0878  0.6873
   26MOL    H62 4612   4.252   5.164   2.000  0.6276  0.4053 -2.3303
   26MOL    H63 4613   4.245   5.037   2.129  0.9031  0.3982 -0.1814
   26MOL    H64 4614   4.352   5.029   1.981  1.0929 -0.1803  3.3188
   26MOL    C65 4615   4.168   4.833   1.951 -0.5727 -0.7816 -0.2587
   26MOL    C66 4616   4.074   4.757   1.847 -0.0248 -0.2274 -0.5306
   26MOL    C67 4617   4.086   4.808   1.701 -0.1357  0.6475  0.4061
   26MOL    H68 4618   4.271   4.829   1.918 -0.5259  1.9967 -0.4989
   26MOL    H69 4619   4.153   4.789   2.050 -1.0395 -0.6299 -0.2572
   26MOL    H70 4620   3.970   4.761   1.879  0.3576  0.2884  0.7015
   26MOL    H71 4621   4.027   4.741   1.640 -0.8326  1.5941  0.0417
   26MOL    H72 4622   4.047   4.909   1.697 -0.0541  0.6412 -0.5695
   26MOL    H73 4623   4.189   4.819   1.666  0.1421 -1.1048  0.6374
   26MOL    C74 4624   4.116   4.611   1.833  0.2271 -0.2350 -0.2336
   26MOL    C75 4625   4.115   4.523   1.955 -0.0385 -0.0197  0.6322
   26MOL    C76 4626   3.988   4.527   2.038 -0.1769 -0.2833 -0.0942
   26MOL    H77 4627   4.050   4.566   1.759  1.0555  0.5925 -1.5016
   26MOL    H78 4628   4.218   4.607   1.794 -0.4340 -0.9794 -1.9168
   26MOL    H79 4629   4.193   4.553   2.024 -0.3975  0.0176  1.0260
   26MOL    H80 4630   3.910   4.476   1.981  0.7223 -1.6936 -0.0973
   26MOL    H81 4631   4.007   4.474   2.131 -0.4386  0.6175  0.4781
   26MOL    H82 4632   3.975   4.633   2.058 -0.1646 -0.5043  1.1248
   26MOL    C83 4633   4.128   4.374   1.913 -0.0376  0.1367 -0.2069
   26MOL    C84 4634   4.167   4.280   2.028  0.0088  0.2825  0.3383
   26MOL    C85 4635   4.073   4.158   2.033  0.2582 -0.0468  0.1068
   26MOL    H86 4636   4.040   4.340   1.859  1.2338 -1.3100 -1.4140
   26MOL    H87 4637   4.196   4.361   1.829 -0.5150  1.7974 -0.8715
   26MOL    H88 4638   4.156   4.326   2.126  0.0625  0.3690  0.3027
   26MOL    H89 4639   3.979   4.189   2.079 -0.3161 -1.1895 -0.2517
   26MOL    H90 4640   4.045   4.111   1.939  1.2312 -1.7944  0.6593
   26MOL    H91 4641   4.113   4.082   2.101 -0.7982 -1.9163 -1.2968
   26MOL    C92 4642   4.311   4.221   2.008  0.2426 -0.7483 -0.3375
   26MOL    C93 4643   4.422   4.326   2.048 -0.2665 -0.3798  0.1717
   26MOL    C94 4644   4.442   4.331   2.193 -0.2888 -0.2280  0.3926
   26MOL    H95 4645   4.325   4.124   2.055 -1.6327 -0.8926 -0.0287
   26MOL    H96 4646   4.323   4.195   1.903  0.1945  2.5157 -1.2216
   26MOL    H97 4647   4.389   4.422   2.011  0.0934  0.5073  2.0564
   26MOL    H98 4648   4.522   4.401   2.215 -0.3733 -0.2064  0.6340
   26MOL    H99 4649   4.349   4.367   2.238 -1.3375 -2.7579  0.3686
   26MOL   H100 4650   4.477   4.232   2.225  0.4062  0.4166  1.6588
   26MOL   C101 4651   4.558   4.287   1.983  0.3994  0.4832  0.5017
   26MOL   C102 4652   4.564   4.309   1.830  0.4342 -0.5956  0.0258
   26MOL   C103 4653   4.538   4.451   1.787  0.1688 -0.6238  0.2749
   26MOL   H104 4654   4.635   4.347   2.032  0.9972 -0.1638  0.3637
   26MOL   H105 4655   4.572   4.181   2.002  1.0579  0.4839  0.0386
   26MOL   H106 4656   4.483   4.251   1.787 -0.2579  1.6202 -1.7323
   26MOL   H107 4657   4.451   4.497   1.833  1.0797  0.7630  0.6470
   26MOL   H108 4658   4.623   4.520   1.794 -0.0835  0.1236 -3.3651
   26MOL   H109 4659   4.524   4.455   1.679 -0.3250  1.5884  0.4050
   26MOL   C110 4660   4.692   4.257   1.758 -0.6534  0.4385 -0.0330
   26MOL   C111 4661   4.700   4.100   1.756 -0.0328  0.0245  0.3095
   26MOL   C112 4662   4.613   4.029   1.655 -0.7400  0.1025 -0.3704
   26MOL   H113 4663   4.707   4.303   1.660  1.9256  2.9342  1.4295
   26MOL   H114 4664   4.778   4.300   1.811  1.2313 -1.5150 -1.4148
   26MOL   H115 4665   4.669   4.058   1.852  0.2012 -0.1666  0.3006
   26MOL   H116 4666   4.631   4.065   1.554 -3.0903  0.6122 -0.6374
   26MOL   H117 4667   4.633   3.922   1.650 -1.2068  0.0518 -1.2284
   26MOL   H118 4668   4.507   4.048   1.673 -0.6168 -0.3301  0.8683
   26MOL   C119 4669   4.850   4.050   1.730  0.5665 -0.9674  0.4388
   26MOL   C120 4670   4.964   4.071   1.826  0.3116 -0.3741 -0.2269
   26MOL   C121 4671   4.926   4.027   1.964 -0.2771  0.1648 -0.3281
   26MOL   H122 4672   4.845   3.942   1.717 -1.8660 -0.4998 -3.2060
   26MOL   H123 4673   4.876   4.091   1.632  2.7786  1.3771  1.9599
   26MOL   H124 4674   4.985   4.178   1.823 -1.4411 -0.0318 -2.0717
   26MOL   H125 4675   4.839   4.080   2.004 -0.4400 -0.6800  0.4715
   26MOL   H126 4676   4.906   3.920   1.962 -2.7620  0.6064 -0.7613
   26MOL   H127 4677   5.001   4.047   2.041 -0.0750 -1.5010 -0.0819
   26MOL   C128 4678   5.090   3.994   1.785 -0.3072  0.4175  0.0922
   26MOL   C129 4679   5.161   4.044   1.659  0.4942 -0.2295  0.2585
   26MOL   C130 4680   5.203   4.194   1.662  0.2006  1.1891  0.0132
   26MOL   H131 4681   5.161   3.994   1.867 -0.2739  1.1997  0.0685
   26MOL   H132 4682   5.066   3.888   1.784 -1.4456  0.6088  3.3786
   26MOL   H133 4683   5.093   4.049   1.574  0.4152 -0.7494  0.2874
   26MOL   H134 4684   5.252   4.217   1.757  1.4022 -4.1053  0.8162
   26MOL   H135 4685   5.274   4.229   1.586 -0.9517  1.7696 -0.8095
   26MOL   H136 4686   5.113   4.255   1.650  0.2220  0.7620 -2.5286
   26MOL   C137 4687   5.270   3.946   1.618 -0.0933  0.3163 -0.0869
   26MOL   C138 4688   5.216   3.813   1.554 -0.7325  0.0711 -0.0709
   26MOL   C139 4689   5.243   3.826   1.406  0.0705  0.4745 -0.2356
   26MOL   H140 4690   5.345   3.996   1.557 -0.7609  2.0399  0.4820
   26MOL   H141 4691   5.327   3.905   1.702 -0.5816 -1.0936 -0.4160
   26MOL   H142 4692   5.111   3.789   1.571 -0.6362 -1.0844 -1.0256
   26MOL   H143 4693   5.348   3.847   1.383  0.5029 -2.1609 -0.7962
   26MOL   H144 4694   5.213   3.742   1.343  0.5667 -1.1550  1.6517
   26MOL   H145 4695   5.181   3.905   1.364  1.4314  1.2375 -0.8557
   26MOL   C146 4696   5.293   3.689   1.601  0.1228  0.2462 -0.1824
   26MOL   C147 4697   5.264   3.636   1.740  0.3340 -0.1444  0.3562
   26MOL   C148 4698   5.137   3.549   1.745 -0.7229 -0.5181 -0.3915
   26MOL   H149 4699   5.295   3.607   1.530  1.1243  0.4357 -0.3917
   26MOL   H150 4700   5.400   3.711   1.598  0.1726  0.5006  2.5277
   26MOL   H151 4701   5.243   3.717   1.811  2.0068 -0.1821  0.9159
   26MOL   H152 4702   5.140   3.459   1.683 -1.0923  0.7487 -2.2947
   26MOL   H153 4703   5.126   3.495   1.839  2.8558  0.4541  0.6826
   26MOL   H154 4704   5.041   3.597   1.727 -1.1316 -1.0439  0.3561
   26MOL   C155 4705   5.390   3.556   1.798 -0.1258 -0.1095 -0.0027
   26MOL   C156 4706   5.376   3.495   1.945 -0.3246  0.1373  0.1933
   26MOL   C157 4707   5.495   3.411   1.965 -0.1028  1.2155  0.0515
   26MOL   H158 4708   5.418   3.481   1.724 -0.0671 -1.3582  1.2764
   26MOL   H159 4709   5.469   3.631   1.801 -0.8613  0.6927 -0.4051
   26MOL   H160 4710   5.289   3.430   1.956 -0.6144  0.7519  1.7528
   26MOL   H161 4711   5.522   3.352   1.877  1.5407  0.9584  0.6888
   26MOL   H162 4712   5.589   3.461   1.988  0.6687 -0.9354  1.8549
   26MOL   H163 4713   5.476   3.338   2.044  0.0576  1.8068  0.6382
   26MOL   C164 4714   5.380   3.606   2.051 -0.4512 -0.0182 -0.0475
   26MOL   C165 4715   5.370   3.564   2.199  0.1408  0.8440 -0.3375
   26MOL   C166 4716   5.404   3.675   2.304 -0.4935  0.3703 -1.1030
   26MOL   H167 4717   5.463   3.676   2.046 -1.2092  0.9179  0.2507
   26MOL   H168 4718   5.289   3.667   2.048 -1.1432 -0.8691  2.3257
   26MOL   H169 4719   5.441   3.483   2.213 -4.3488 -3.0827  1.2596
   26MOL   H170 4720   5.394   3.635   2.405  0.2874  4.9597  0.9187
   26MOL   H171 4721   5.509   3.700   2.288  0.0726  0.8741  2.9011
   26MOL   H172 4722   5.351   3.768   2.285  0.4884  1.2008  0.1944
   26MOL   C173 4723   5.242   3.485   2.237  0.3174  1.0657 -0.1043
   26MOL   C174 4724   5.105   3.551   2.215  0.5865  0.2151 -0.4416
   26MOL   C175 4725   4.986   3.452   2.247 -0.2468 -0.1917 -0.6664
   26MOL   H176 4726   5.243   3.390   2.182 -0.9814  0.1436  1.4055
   26MOL   H177 4727   5.255   3.453   2.340 -2.6520 -1.1278 -0.3251
   26MOL   H178 4728   5.099   3.597   2.116 -1.9847  2.6194  0.7624
   26MOL   H179 4729   4.892   3.506   2.237 -0.5736 -0.6211  0.0277
   26MOL   H180 4730   4.987   3.371   2.175  0.6395  0.7006 -1.6834
   26MOL   H181 4731   4.991   3.422   2.352 -1.0220 -0.1623 -0.6173
   26MOL   H182 4732   5.102   3.637   2.282 -0.9454 -0.5108  0.4425
   27MOL     C1 4733   0.154   4.036   5.159 -0.7767 -0.2024  0.3227
   27MOL     C2 4734   0.080   4.145   5.083 -0.1880  0.6593 -0.0605
   27MOL     C3 4735   0.122   4.283   5.141  0.6911 -0.6507 -0.6739
   27MOL     H4 4736   0.261   4.053   5.167 -0.3845 -2.2287 -0.3205
   27MOL     H5 4737   0.136   3.936   5.120  2.6168 -1.2255  1.1756
   27MOL     H6 4738   7.672   4.133   5.109 -0.5406 -0.6944 -1.9914
   27MOL     H7 4739   0.091   4.368   5.079 -1.1380 -1.0539 -0.3435
   27MOL     H8 4740   0.072   4.305   5.236  1.3565 -0.7860 -0.2942
   27MOL     H9 4741   0.228   4.284   5.165  0.1552  0.2073  1.8511
   27MOL    H10 4742   0.121   4.032   5.263  0.2313  0.8455  0.6964
   27MOL    C11 4743   0.088   4.145   4.931  0.1711  0.0636  0.3755
   27MOL    C12 4744   0.020   4.026   4.868 -0.6194  0.3994 -0.1262
   27MOL    C13 4745   7.567   4.008   4.913  0.0914 -0.5042  0.0000
   27MOL    H14 4746   0.043   4.237   4.893 -1.1416 -1.4627 -1.9021
   27MOL    H15 4747   0.191   4.154   4.896  0.7641 -2.5749  1.3401
   27MOL    H16 4748   0.075   3.940   4.906 -0.3990 -0.2234 -1.7939
   27MOL    H17 4749   7.511   4.102   4.908  1.3763  0.2063 -1.7730
   27MOL    H18 4750   7.507   3.935   4.858  0.4871 -1.5955  1.0207
   27MOL    H19 4751   7.559   3.971   5.015 -0.7975 -0.3986 -0.0307
   27MOL    C20 4752   0.034   4.030   4.716 -0.0856  0.5663  0.6387
   27MOL    C21 4753   7.675   3.910   4.634  0.0740  0.1745  0.0459
   27MOL    C22 4754   7.624   3.955   4.496  0.2224 -0.1217 -0.4033
   27MOL    H23 4755   7.674   4.118   4.690 -0.5826  0.0965  0.1369
   27MOL    H24 4756   0.137   4.044   4.684  0.3405 -2.5572  0.4255
   27MOL    H25 4757   7.585   3.876   4.686 -0.6298 -2.1771 -2.5694
   27MOL    H26 4758   0.023   3.963   4.445  0.6506 -1.7161  0.1183
   27MOL    H27 4759   7.557   3.882   4.449 -1.9048  0.7004  1.2681
   27MOL    H28 4760   7.570   4.049   4.496  0.8017  0.2196 -1.7652
   27MOL    C29 4761   0.073   3.789   4.641  0.0681 -0.9225 -0.3767
   27MOL    C30 4762   0.030   3.662   4.578  0.4960 -0.1866  0.4703
   27MOL    C31 4763   0.155   3.577   4.518 -0.9400  0.0595 -1.2501
   27MOL    H32 4764   0.165   3.822   4.593  0.9936 -0.6084  1.5763
   27MOL    H33 4765   0.101   3.763   4.743  1.7023  1.8093 -0.0895
   27MOL    H34 4766   7.648   3.674   4.504  2.0007 -1.2757 -1.3541
   27MOL    H35 4767   0.116   3.480   4.488 -0.2427 -1.0721  1.3785
   27MOL    H36 4768   0.196   3.625   4.429 -1.2409 -0.5193 -1.7003
   27MOL    H37 4769   0.234   3.560   4.591 -1.6768 -0.5888 -0.5948
   27MOL    C38 4770   7.656   3.567   4.679  0.3594  0.4491 -0.2454
   27MOL    C39 4771   7.536   3.609   4.763 -0.1772  0.0119 -1.1906
   27MOL    C40 4772   7.410   3.659   4.689  0.0538  0.8138 -0.8058
   27MOL    H41 4773   7.606   3.484   4.629 -1.3655  0.6719  1.0887
   27MOL    H42 4774   0.042   3.532   4.739 -0.3692 -1.1066 -0.1074
   27MOL    H43 4775   7.567   3.692   4.827 -1.4646 -1.7421  1.8111
   27MOL    H44 4776   7.356   3.724   4.758  0.7087 -0.4335  0.8865
   27MOL    H45 4777   7.433   3.725   4.605 -1.0849 -1.3386 -2.8930
   27MOL    H46 4778   7.344   3.576   4.662 -0.0903  0.7536 -0.2605
   27MOL    C47 4779   7.492   3.490   4.854 -0.3987  0.2448  0.0551
   27MOL    C48 4780   7.382   3.529   4.958  0.4190  0.1725 -0.4805
   27MOL    C49 4781   7.304   3.399   5.016 -0.1001  0.4817 -0.6171
   27MOL    H50 4782   7.464   3.409   4.787  1.7593  0.2279 -0.8749
   27MOL    H51 4783   7.577   3.457   4.913 -0.4902  2.3669  1.4390
   27MOL    H52 4784   7.306   3.581   4.900 -2.7223 -2.6852  0.8732
   27MOL    H53 4785   7.363   3.333   5.080  0.2081 -0.0864 -1.4796
   27MOL    H54 4786   7.212   3.425   5.069  0.2876  1.4055 -0.4054
   27MOL    H55 4787   7.259   3.344   4.933 -1.5339 -3.1198  2.3940
   27MOL    C56 4788   7.437   3.610   5.076 -0.3648  0.3793  0.9889
   27MOL    C57 4789   7.329   3.680   5.158  0.2497  0.1705  0.3728
   27MOL    C58 4790   7.385   3.726   5.295 -0.2163 -0.4139 -0.3981
   27MOL    H59 4791   7.495   3.547   5.144 -2.2542 -1.2946  1.0866
   27MOL    H60 4792   7.506   3.688   5.042  0.4199 -0.0009  1.6837
   27MOL    H61 4793   7.253   3.607   5.185  1.2127 -0.1806  2.2183
   27MOL    H62 4794   7.490   3.753   5.288 -0.4413  0.8472  0.7844
   27MOL    H63 4795   7.325   3.806   5.339  0.4790 -1.3827  2.3985
   27MOL    H64 4796   7.396   3.641   5.362 -0.8294 -1.4164 -1.5435
   27MOL    C65 4797   7.265   3.793   5.068  0.1790 -0.1598 -0.0030
   27MOL    C66 4798   7.130   3.853   5.104  0.2496 -0.3442  0.5408
   27MOL    C67 4799   7.102   3.982   5.020 -0.3223  0.1536  0.7789
   27MOL    H68 4800   7.337   3.875   5.073 -1.2239  0.9555  2.8968
   27MOL    H69 4801   7.264   3.771   4.961 -2.2624 -1.8119  0.3252
   27MOL    H70 4802   7.131   3.896   5.204 -0.0547  0.4869  0.1922
   27MOL    H71 4803   7.140   3.956   4.921 -0.4445  1.2313  0.4395
   27MOL    H72 4804   6.997   4.002   4.997 -0.5646 -4.2404 -2.4182
   27MOL    H73 4805   7.155   4.070   5.056 -1.0286  1.1546 -0.5719
   27MOL    C74 4806   7.015   3.748   5.116 -0.1784 -0.7599 -0.5101
   27MOL    C75 4807   6.992   3.653   4.999 -0.4660 -0.3872  0.4646
   27MOL    C76 4808   6.870   3.575   5.036 -0.1933 -0.7368 -0.5989
   27MOL    H77 4809   7.032   3.681   5.199  0.6119  1.1136  0.8795
   27MOL    H78 4810   6.919   3.793   5.144  0.3093 -0.0700  0.0662
   27MOL    H79 4811   7.077   3.585   4.989  0.5192  0.9409 -0.3443
   27MOL    H80 4812   6.788   3.646   5.048  1.7285  1.0494  3.0129
   27MOL    H81 4813   6.848   3.509   4.952 -0.8940 -1.2454 -0.0257
   27MOL    H82 4814   6.885   3.515   5.126  0.3715  0.6697  0.2639
   27MOL    C83 4815   6.979   3.721   4.863  0.5388  0.1575  0.0532
   27MOL    C84 4816   6.942   3.631   4.734 -0.7020  0.2592  0.1440
   27MOL    C85 4817   6.950   3.709   4.596 -0.2374  0.4355 -1.5717
   27MOL    H86 4818   6.902   3.797   4.870 -1.8613 -2.1869  0.0245
   27MOL    H87 4819   7.072   3.775   4.843  1.8454 -0.6417  3.5841
   27MOL    H88 4820   6.840   3.594   4.742 -1.3481  2.1057  0.6532
   27MOL    H89 4821   7.048   3.720   4.550 -0.3775 -2.6178 -2.7003
   27MOL    H90 4822   6.888   3.653   4.526 -0.3394 -0.2430 -0.9601
   27MOL    H91 4823   6.892   3.800   4.607 -1.2589 -0.4472  0.9193
   27MOL    C92 4824   7.030   3.510   4.720  0.2105  0.1446  0.7153
   27MOL    C93 4825   6.982   3.401   4.620 -0.1775  0.9352  0.3772
   27MOL    C94 4826   7.079   3.280   4.626 -0.4559 -0.3921  0.6737
   27MOL    H95 4827   7.132   3.527   4.687 -0.9396 -0.6994 -3.4947
   27MOL    H96 4828   7.040   3.455   4.814  1.3812 -1.7875 -0.5335
   27MOL    H97 4829   6.968   3.442   4.520 -1.4786  0.2097  0.2532
   27MOL    H98 4830   7.070   3.214   4.539 -0.0727  0.7210 -0.2242
   27MOL    H99 4831   7.180   3.320   4.625 -0.8445  0.6744  2.3839
   27MOL   H100 4832   7.068   3.232   4.723 -0.5468 -0.4194  0.6499
   27MOL   C101 4833   6.838   3.345   4.648  0.1705 -0.1834 -0.4461
   27MOL   C102 4834   6.718   3.415   4.583  0.4963 -0.2483  0.0948
   27MOL   C103 4835   6.731   3.414   4.429  0.3778  0.2665  0.1346
   27MOL   H104 4836   6.841   3.239   4.622  2.2182  0.4567 -3.0729
   27MOL   H105 4837   6.817   3.351   4.755 -2.9429 -1.9017 -0.9164
   27MOL   H106 4838   6.709   3.520   4.611 -0.5304 -0.5072  0.7946
   27MOL   H107 4839   6.825   3.444   4.382 -0.2577 -0.9160 -1.9785
   27MOL   H108 4840   6.703   3.310   4.409  0.3120  0.3035  0.0317
   27MOL   H109 4841   6.657   3.478   4.380  0.8917  1.6648  1.1832
   27MOL   C110 4842   6.573   3.364   4.623 -0.0594  0.1572  0.2378
   27MOL   C111 4843   6.541   3.352   4.770  0.1812 -0.0510  0.0951
   27MOL   C112 4844   6.532   3.487   4.861  0.3553 -0.3270 -0.4687
   27MOL   H113 4845   6.497   3.421   4.569 -1.6312 -1.2301  0.9367
   27MOL   H114 4846   6.564   3.261   4.589  2.3803  0.0544 -0.1894
   27MOL   H115 4847   6.628   3.296   4.804 -0.3880 -1.3305 -0.5234
   27MOL   H116 4848   6.585   3.567   4.810  0.9798 -1.1441 -1.1126
   27MOL   H117 4849   6.426   3.505   4.878  0.6316  0.6468  0.2601
   27MOL   H118 4850   6.575   3.475   4.961 -0.8087  0.7198  0.1682
   27MOL   C119 4851   6.427   3.247   4.792 -0.1641 -0.1707 -0.2222
   27MOL   C120 4852   6.398   3.207   4.935 -0.6050  0.6006  0.0570
   27MOL   C121 4853   6.267   3.130   4.937 -0.2850 -0.6739 -0.2150
   27MOL   H122 4854   6.332   3.288   4.760 -2.0033 -3.1498  1.2218
   27MOL   H123 4855   6.445   3.155   4.736 -0.4016  0.0120 -0.6008
   27MOL   H124 4856   6.373   3.295   4.993  1.8535  1.4400 -0.0894
   27MOL   H125 4857   6.185   3.190   4.896 -1.4741 -0.8848  1.8106
   27MOL   H126 4858   6.276   3.041   4.874  0.2118 -1.1630  0.5499
   27MOL   H127 4859   6.247   3.102   5.040  0.8187  0.9873  0.4688
   27MOL   C128 4860   6.518   3.132   5.011 -0.0812  0.1771  0.0833
   27MOL   C129 4861   6.543   2.979   4.962  0.4181 -0.2390 -1.1997
   27MOL   C130 4862   6.650   2.981   4.848 -0.2780 -0.3077 -0.6360
   27MOL   H131 4863   6.604   3.199   5.001 -0.4245  0.4281 -1.3135
   27MOL   H132 4864   6.489   3.129   5.116  0.1180  0.7732  0.1574
   27MOL   H133 4865   6.458   2.937   4.907  2.2053 -3.6043 -1.5003
   27MOL   H134 4866   6.692   2.880   4.836 -2.6905 -1.3883 -0.2671
   27MOL   H135 4867   6.606   3.009   4.752 -2.3791 -1.3099 -0.0062
   27MOL   H136 4868   6.734   3.042   4.882  1.3322 -2.9977  0.3885
   27MOL   C137 4869   6.578   2.887   5.084  0.1874  0.4873 -0.6187
   27MOL   C138 4870   6.467   2.808   5.151 -0.1575 -0.3380 -0.2477
   27MOL   C139 4871   6.403   2.714   5.054 -0.6313 -0.5017 -0.3289
   27MOL   H140 4872   6.652   2.813   5.054  0.8941  1.8995 -2.4062
   27MOL   H141 4873   6.631   2.950   5.155 -0.4342  0.5753 -0.2287
   27MOL   H142 4874   6.394   2.878   5.192  1.6125  0.8797  0.8924
   27MOL   H143 4875   6.321   2.651   5.087 -1.6959  1.4010  0.7093
   27MOL   H144 4876   6.344   2.773   4.984 -0.3269 -2.5634 -2.3654
   27MOL   H145 4877   6.482   2.667   4.995  1.0225  2.4248 -0.5628
   27MOL   C146 4878   6.530   2.712   5.262 -0.6621  0.2961  0.0794
   27MOL   C147 4879   6.432   2.661   5.377 -0.4807 -0.6174 -0.0683
   27MOL   C148 4880   6.506   2.560   5.463 -0.1161  0.4362  0.3791
   27MOL   H149 4881   6.594   2.638   5.215  0.6196 -0.1793  2.4695
   27MOL   H150 4882   6.616   2.760   5.308 -1.1833  1.5619 -0.2479
   27MOL   H151 4883   6.349   2.602   5.338 -1.3131  2.3205 -2.9090
   27MOL   H152 4884   6.585   2.595   5.529  1.3154 -2.4471  0.3048
   27MOL   H153 4885   6.436   2.505   5.527 -2.5663  0.7555 -1.9451
   27MOL   H154 4886   6.549   2.483   5.400  0.5618 -0.6215  2.0859
   27MOL   C155 4887   6.389   2.781   5.467 -0.0161 -0.2422  1.0970
   27MOL   C156 4888   6.302   2.755   5.594 -0.5385  0.7686 -0.1771
   27MOL   C157 4889   6.291   2.883   5.668 -0.4400 -0.4788 -0.4790
   27MOL   H158 4890   6.484   2.822   5.499 -0.8907  0.8582  2.3392
   27MOL   H159 4891   6.342   2.855   5.403 -0.9484 -0.7409  1.1882
   27MOL   H160 4892   6.370   2.698   5.657 -0.0179  1.2313 -0.3101
   27MOL   H161 4893   6.240   2.867   5.763 -1.4207 -0.6024 -1.0113
   27MOL   H162 4894   6.387   2.929   5.690 -1.0318  1.2983 -1.4229
   27MOL   H163 4895   6.227   2.955   5.616 -1.0138 -0.7493 -0.1431
   27MOL   C164 4896   6.164   2.688   5.556 -0.1932  0.0814  0.8083
   27MOL   C165 4897   6.067   2.655   5.677 -0.4028 -0.0306 -0.0500
   27MOL   C166 4898   5.926   2.648   5.624  0.5958 -0.2377  0.3241
   27MOL   H167 4899   6.114   2.748   5.480 -0.1713 -0.5942  0.2581
   27MOL   H168 4900   6.168   2.591   5.506 -0.0829 -0.4035  1.7538
   27MOL   H169 4901   6.058   2.738   5.747 -0.4905  0.9095 -1.1500
   27MOL   H170 4902   5.856   2.665   5.705 -0.6082 -4.0218  0.1983
   27MOL   H171 4903   5.891   2.724   5.554 -0.3529 -1.5364 -0.6547
   27MOL   H172 4904   5.910   2.547   5.586  3.1314 -1.1794  1.6099
   27MOL   C173 4905   6.101   2.527   5.764 -0.0170 -0.2544 -0.1507
   27MOL   C174 4906   6.192   2.563   5.887  0.0106  0.3712 -0.0572
   27MOL   C175 4907   6.225   2.432   5.955  0.5254  0.2057  0.4908
   27MOL   H176 4908   6.017   2.477   5.811 -0.5717  0.3650 -0.4677
   27MOL   H177 4909   6.147   2.444   5.711 -0.7537 -0.9094  0.2345
   27MOL   H178 4910   6.137   2.625   5.958  0.2038 -0.6481  1.0141
   27MOL   H179 4911   6.296   2.375   5.894 -0.9761 -0.7035 -0.4228
   27MOL   H180 4912   6.252   2.439   6.061  0.3333  1.2442  0.4678
   27MOL   H181 4913   6.135   2.370   5.953 -0.2106  1.3251 -1.8937
   27MOL   H182 4914   6.271   2.630   5.855  0.0208  0.4243  0.0785
   28MOL     C1 4915   1.789   1.352   1.320 -0.0605 -0.0366 -0.3680
   28MOL     C2 4916   1.664   1.446   1.325 -0.2261 -1.2424  0.4088
   28MOL     C3 4917   1.624   1.480   1.472 -0.0831  0.2263  0.3026
   28MOL     H4 4918   1.760   1.260   1.372  0.5162  0.5509  0.9987
   28MOL     H5 4919   1.875   1.375   1.383 -1.2136 -0.9893  1.5994
   28MOL     H6 4920   1.583   1.387   1.282 -0.8962 -0.4114  0.5053
   28MOL     H7 4921   1.564   1.401   1.518 -1.3376  1.4756  0.8737
   28MOL     H8 4922   1.715   1.505   1.526  0.2758 -1.4379  0.5081
   28MOL     H9 4923   1.562   1.569   1.484  1.7613  1.6298 -0.3585
   28MOL    H10 4924   1.814   1.321   1.219 -2.3319  1.0321 -1.2896
   28MOL    C11 4925   1.692   1.567   1.230  0.8523  0.5673  0.1448
   28MOL    C12 4926   1.572   1.657   1.196  0.2718 -0.4187 -0.2320
   28MOL    C13 4927   1.619   1.771   1.108  0.4265 -0.5458 -0.1999
   28MOL    H14 4928   1.769   1.632   1.272 -0.3597  1.8927  0.3472
   28MOL    H15 4929   1.743   1.527   1.143  1.7370 -2.0867  1.8319
   28MOL    H16 4930   1.510   1.709   1.270  0.7094  1.1775 -0.9632
   28MOL    H17 4931   1.650   1.739   1.009 -1.9335 -2.4067 -0.3708
   28MOL    H18 4932   1.550   1.854   1.095 -0.1824 -0.7706  1.5347
   28MOL    H19 4933   1.707   1.811   1.160 -1.0607  0.8477  1.2982
   28MOL    C20 4934   1.463   1.579   1.117  0.1503  0.5564 -0.6937
   28MOL    C21 4935   1.339   1.545   1.200  0.3533  0.5421 -0.1851
   28MOL    C22 4936   1.244   1.661   1.206 -0.2735  0.1148  0.0425
   28MOL    H23 4937   1.448   1.613   1.015 -2.1400 -1.7549 -1.1660
   28MOL    H24 4938   1.506   1.482   1.092  0.1800  0.7592 -1.4268
   28MOL    H25 4939   1.368   1.530   1.304  0.5062  1.4178 -0.0931
   28MOL    H26 4940   1.294   1.754   1.228  1.2509 -0.3474 -1.3491
   28MOL    H27 4941   1.192   1.677   1.111 -2.7172 -1.5570  1.0396
   28MOL    H28 4942   1.166   1.643   1.280  0.2740  0.0451  0.6057
   28MOL    C29 4943   1.270   1.412   1.156  0.1443  0.6625  0.9183
   28MOL    C30 4944   1.151   1.363   1.244 -0.2351  0.0317  0.4318
   28MOL    C31 4945   1.080   1.239   1.188 -0.7902  0.5221  0.3357
   28MOL    H32 4946   1.257   1.405   1.048  1.7644  0.5717  0.7137
   28MOL    H33 4947   1.347   1.335   1.164 -0.0979  0.4384  1.0817
   28MOL    H34 4948   1.079   1.445   1.251  2.6956  2.6861  0.3416
   28MOL    H35 4949   1.065   1.258   1.082  0.0084  0.4479  0.2010
   28MOL    H36 4950   1.138   1.148   1.204 -1.4708  0.2660  1.4313
   28MOL    H37 4951   0.978   1.221   1.220 -0.6776 -0.4280  0.1814
   28MOL    C38 4952   1.189   1.356   1.397 -0.2360 -0.4648  1.1548
   28MOL    C39 4953   1.077   1.301   1.494 -0.3373 -0.4778  0.3209
   28MOL    C40 4954   1.131   1.296   1.640  0.1269 -0.2153  0.2990
   28MOL    H41 4955   1.275   1.289   1.394  0.3338  0.2845 -2.3468
   28MOL    H42 4956   1.209   1.457   1.434  0.0743 -0.2976  0.5528
   28MOL    H43 4957   1.065   1.196   1.468  0.6626 -0.4450 -0.2937
   28MOL    H44 4958   1.057   1.259   1.711 -1.2691  1.8437 -0.0369
   28MOL    H45 4959   1.232   1.256   1.648 -0.3700 -1.2666  1.5445
   28MOL    H46 4960   1.146   1.397   1.676 -1.2888  0.6721 -1.4842
   28MOL    C47 4961   0.938   1.373   1.475 -0.5023 -0.3936  0.0849
   28MOL    C48 4962   0.827   1.300   1.553 -0.4995 -0.3307 -0.1678
   28MOL    C49 4963   0.720   1.398   1.613  0.8073  0.6910  0.2844
   28MOL    H50 4964   0.957   1.474   1.512 -0.7806 -0.4594  0.4096
   28MOL    H51 4965   0.910   1.400   1.373  3.7571  0.0183 -1.0851
   28MOL    H52 4966   0.867   1.251   1.642  1.1746 -0.5181 -0.9829
   28MOL    H53 4967   0.645   1.441   1.546  0.6035  0.6813  0.5040
   28MOL    H54 4968   0.647   1.353   1.681 -1.0668  1.4022 -1.1830
   28MOL    H55 4969   0.760   1.482   1.670  0.8463 -0.2784  1.7149
   28MOL    C56 4970   0.766   1.201   1.453 -0.2105  1.0059  0.0633
   28MOL    C57 4971   0.687   1.088   1.516  0.4476 -1.1789  0.5728
   28MOL    C58 4972   0.605   1.017   1.401 -0.3030  0.7250  0.1724
   28MOL    H59 4973   0.696   1.258   1.392  0.0028  2.5179  1.2021
   28MOL    H60 4974   0.840   1.151   1.390  0.0203  1.4794 -0.0453
   28MOL    H61 4975   0.607   1.126   1.580 -1.5660  0.3759 -2.7080
   28MOL    H62 4976   0.583   0.913   1.429  1.4261  0.1197 -0.6363
   28MOL    H63 4977   0.515   1.075   1.384 -0.5885  0.8070  1.8086
   28MOL    H64 4978   0.665   1.012   1.310 -0.6031  1.4568 -0.0658
   28MOL    C65 4979   0.786   0.999   1.601  0.0823  0.3940 -0.1160
   28MOL    C66 4980   0.769   0.964   1.751 -0.3333 -0.4449 -0.0464
   28MOL    C67 4981   0.633   0.908   1.781  0.0189  0.5732 -0.3005
   28MOL    H68 4982   0.788   0.906   1.543 -0.6250  1.0714 -1.2446
   28MOL    H69 4983   0.886   1.044   1.596 -0.5417  1.6316 -1.7700
   28MOL    H70 4984   0.765   1.056   1.809  0.9943  0.5733 -1.5336
   28MOL    H71 4985   0.556   0.985   1.783 -0.6637 -0.0953 -0.3302
   28MOL    H72 4986   0.604   0.840   1.701 -1.8788  1.4513 -0.3869
   28MOL    H73 4987   0.625   0.855   1.876 -3.3816  1.1946 -0.1705
   28MOL    C74 4988   0.891   0.883   1.791 -0.2248  0.2691 -0.3920
   28MOL    C75 4989   1.008   0.964   1.848 -0.2526 -0.4291 -0.3281
   28MOL    C76 4990   0.987   1.026   1.989  0.0104 -0.1458 -0.1134
   28MOL    H77 4991   0.861   0.802   1.857 -1.9912 -1.0752 -2.7712
   28MOL    H78 4992   0.924   0.826   1.704 -0.2440  0.7774 -0.7304
   28MOL    H79 4993   1.027   1.048   1.781 -2.2539  0.6933  0.4313
   28MOL    H80 4994   1.068   1.097   2.008 -0.0055 -0.0816 -0.2858
   28MOL    H81 4995   0.890   1.076   1.996  0.7128  1.2285 -0.0117
   28MOL    H82 4996   0.986   0.943   2.060 -2.2161 -0.2621 -0.2414
   28MOL    C83 4997   1.137   0.877   1.868 -0.2101 -0.5727  0.1451
   28MOL    C84 4998   1.211   0.844   1.738  0.2048  0.0407  0.2519
   28MOL    C85 4999   1.266   0.962   1.656  0.2220 -0.1354  0.0215
   28MOL    H86 5000   1.204   0.903   1.950 -1.5650 -2.1146  1.7880
   28MOL    H87 5001   1.107   0.778   1.902  0.2644 -0.5771  0.5428
   28MOL    H88 5002   1.134   0.810   1.669 -1.2445  0.6172  1.5615
   28MOL    H89 5003   1.311   0.920   1.565  2.5178  2.4616 -0.1150
   28MOL    H90 5004   1.184   1.026   1.623  0.8497  1.2235  1.0506
   28MOL    H91 5005   1.345   1.027   1.695 -1.3226  0.3559  2.3887
   28MOL    C92 5006   1.304   0.725   1.747  0.1625  0.4794 -0.3167
   28MOL    C93 5007   1.434   0.759   1.827  0.6579 -0.0930 -0.9511
   28MOL    C94 5008   1.461   0.671   1.944 -0.5541 -0.6965  0.6213
   28MOL    H95 5009   1.261   0.636   1.792  2.6086 -1.6042 -1.9378
   28MOL    H96 5010   1.326   0.690   1.646 -0.3065 -0.7469 -0.0033
   28MOL    H97 5011   1.425   0.862   1.861  0.5126 -1.4432  3.3020
   28MOL    H98 5012   1.488   0.571   1.911  1.8595  0.1870 -0.2234
   28MOL    H99 5013   1.528   0.716   2.018 -1.7820  1.3683  0.5403
   28MOL   H100 5014   1.370   0.651   2.002 -0.9437 -2.0658 -0.4458
   28MOL   C101 5015   1.560   0.771   1.737 -0.4330 -0.7143 -0.3667
   28MOL   C102 5016   1.681   0.840   1.798  0.0886 -0.2117 -0.1953
   28MOL   C103 5017   1.819   0.790   1.752  0.2553 -0.4529  0.2579
   28MOL   H104 5018   1.583   0.667   1.713  0.8855 -0.7465  0.9490
   28MOL   H105 5019   1.519   0.816   1.647 -0.8014 -0.8728 -0.2786
   28MOL   H106 5020   1.677   0.833   1.907  0.7831 -0.1197 -0.1588
   28MOL   H107 5021   1.831   0.835   1.654 -1.1258 -2.6940 -0.9735
   28MOL   H108 5022   1.893   0.830   1.821  0.0927  1.7329 -0.8072
   28MOL   H109 5023   1.827   0.682   1.756 -2.3161 -0.7265 -1.0193
   28MOL   C110 5024   1.665   0.995   1.759 -0.3011 -0.3756 -0.0541
   28MOL   C111 5025   1.768   1.096   1.818 -0.3623  0.3709 -0.1443
   28MOL   C112 5026   1.743   1.229   1.745 -0.6247  0.5128  0.2495
   28MOL   H113 5027   1.667   0.997   1.650 -0.4607  1.1355 -0.0330
   28MOL   H114 5028   1.566   1.036   1.777 -0.8092 -1.7623  0.3557
   28MOL   H115 5029   1.872   1.063   1.811 -0.7514 -0.7776 -0.7111
   28MOL   H116 5030   1.745   1.222   1.636  0.1852  1.1671  0.2178
   28MOL   H117 5031   1.641   1.265   1.756 -1.1147 -0.7108 -0.1346
   28MOL   H118 5032   1.810   1.312   1.765 -0.6318  0.3799  0.8248
   28MOL   C119 5033   1.745   1.115   1.970 -0.6393  0.3159 -0.8126
   28MOL   C120 5034   1.826   1.223   2.049 -0.0373  0.1971  0.3648
   28MOL   C121 5035   1.774   1.258   2.190 -0.1961 -0.6400  0.0855
   28MOL   H122 5036   1.641   1.148   1.974 -0.3486  1.0001  1.6647
   28MOL   H123 5037   1.748   1.021   2.025 -1.5564  1.1973  0.7529
   28MOL   H124 5038   1.809   1.315   1.992  1.5969 -0.1796 -0.7471
   28MOL   H125 5039   1.833   1.337   2.235  1.1910 -2.1556  0.9956
   28MOL   H126 5040   1.673   1.297   2.181 -0.1925 -0.4292  0.8823
   28MOL   H127 5041   1.765   1.169   2.253  0.6805  0.3614  1.6381
   28MOL   C128 5042   1.983   1.193   2.047  0.0440 -0.2243  0.5890
   28MOL   C129 5043   2.069   1.314   2.005  0.7720  0.8498 -0.2991
   28MOL   C130 5044   2.075   1.443   2.100 -0.0657  0.0145 -0.2063
   28MOL   H131 5045   2.013   1.148   2.142 -0.4149 -2.2981 -0.2260
   28MOL   H132 5046   1.995   1.107   1.982 -0.0909 -0.9666  1.5266
   28MOL   H133 5047   2.015   1.342   1.914  0.3749 -0.3251 -0.4367
   28MOL   H134 5048   2.151   1.516   2.073  1.1400 -2.1620 -3.0455
   28MOL   H135 5049   1.977   1.488   2.111  0.0715  0.1217  0.5807
   28MOL   H136 5050   2.110   1.421   2.201  1.3897 -0.8402 -0.8740
   28MOL   C137 5051   2.212   1.271   1.963  0.2605 -0.1026 -0.0638
   28MOL   C138 5052   2.299   1.372   1.890  0.0074  0.6672  0.2141
   28MOL   C139 5053   2.413   1.427   1.981  0.7635  0.3752 -0.6329
   28MOL   H140 5054   2.255   1.227   2.054 -1.5724 -1.0054  0.3908
   28MOL   H141 5055   2.198   1.183   1.900 -1.3007  1.9118 -2.6277
   28MOL   H142 5056   2.243   1.465   1.875  1.3165  1.3420 -0.6478
   28MOL   H143 5057   2.485   1.349   2.005  1.0438  1.1650  1.1992
   28MOL   H144 5058   2.475   1.502   1.931  2.1655 -0.7523 -0.6422
   28MOL   H145 5059   2.381   1.461   2.080  1.3577  0.6153 -0.5204
   28MOL   C146 5060   2.347   1.320   1.752 -0.0120 -0.2057 -0.7096
   28MOL   C147 5061   2.234   1.308   1.642  0.6568 -0.3168  0.3344
   28MOL   C148 5062   2.184   1.445   1.591  0.3158  0.0578 -0.4189
   28MOL   H149 5063   2.430   1.381   1.715  0.2077 -0.1232 -0.0990
   28MOL   H150 5064   2.389   1.220   1.762 -1.6004 -0.8831 -0.7079
   28MOL   H151 5065   2.146   1.260   1.685 -0.6618  0.7190 -1.1754
   28MOL   H152 5066   2.270   1.497   1.548  1.3226 -1.0611  0.1998
   28MOL   H153 5067   2.112   1.424   1.512 -1.5025  0.1454  1.1786
   28MOL   H154 5068   2.126   1.505   1.661 -2.0099 -1.1423 -1.2711
   28MOL   C155 5069   2.276   1.210   1.529  0.5833  0.4398 -0.7228
   28MOL   C156 5070   2.291   1.061   1.568 -0.5343  0.0206 -0.2363
   28MOL   C157 5071   2.160   0.990   1.617  0.3168 -0.3677  0.4991
   28MOL   H158 5072   2.208   1.203   1.444 -1.1271 -0.2522  0.6603
   28MOL   H159 5073   2.376   1.241   1.499  0.6488 -0.1340 -1.1063
   28MOL   H160 5074   2.375   1.057   1.637  0.6527  0.8871 -1.5913
   28MOL   H161 5075   2.134   1.026   1.716  0.7661  1.1322  0.0854
   28MOL   H162 5076   2.072   1.007   1.555  1.5280 -2.1313 -1.8188
   28MOL   H163 5077   2.174   0.884   1.638  0.1800 -0.5320 -0.2437
   28MOL   C164 5078   2.339   0.976   1.445 -0.8041  0.0944 -0.3234
   28MOL   C165 5079   2.473   1.027   1.374  0.7958 -0.5015  0.1640
   28MOL   C166 5080   2.591   1.042   1.465  0.0350  0.2967  0.5944
   28MOL   H167 5081   2.353   0.871   1.469  2.3791  0.0686 -1.9707
   28MOL   H168 5082   2.260   0.972   1.369 -2.3018 -1.0734  1.2628
   28MOL   H169 5083   2.447   1.123   1.329 -0.1805 -0.9156 -0.1715
   28MOL   H170 5084   2.676   1.085   1.412  1.4282 -2.5303  0.4622
   28MOL   H171 5085   2.563   1.105   1.549  2.5091  0.9872  0.9525
   28MOL   H172 5086   2.610   0.941   1.499 -1.4543 -0.4992 -0.8891
   28MOL   C173 5087   2.509   0.953   1.243  0.4011 -0.5103 -0.1410
   28MOL   C174 5088   2.555   0.809   1.253  0.1745  0.2825  0.4755
   28MOL   C175 5089   2.607   0.758   1.118 -0.5178  0.0757  0.6910
   28MOL   H176 5090   2.424   0.960   1.175  1.4797 -2.0383 -1.6731
   28MOL   H177 5091   2.592   1.004   1.195  0.8834 -2.1213 -1.0676
   28MOL   H178 5092   2.471   0.750   1.290  0.8869 -0.4843  0.8755
   28MOL   H179 5093   2.523   0.745   1.050  0.4379 -2.3294 -0.0647
   28MOL   H180 5094   2.690   0.815   1.078  0.7167 -3.3075 -1.7900
   28MOL   H181 5095   2.651   0.659   1.128  0.9936  0.3112 -2.9121
   28MOL   H182 5096   2.636   0.804   1.326  0.6345 -1.9931 -0.1558
   29MOL     C1 5097   2.934   7.164   5.138  0.0201  0.1038  0.0827
   29MOL     C2 5098   3.035   7.059   5.198  0.2053  0.0485 -0.3006
   29MOL     C3 5099   3.082   6.957   5.085  0.3321  0.3372 -0.0654
   29MOL     H4 5100   2.844   7.129   5.087 -0.6699  3.6520 -1.3109
   29MOL     H5 5101   2.982   7.226   5.063  2.4744 -2.5753 -0.6461
   29MOL     H6 5102   2.990   7.008   5.284  1.4500 -0.0260  0.3214
   29MOL     H7 5103   3.137   7.016   5.012  2.2314 -0.4817  0.6877
   29MOL     H8 5104   3.141   6.875   5.127  2.1876  1.4647 -0.4497
   29MOL     H9 5105   3.004   6.905   5.029  1.0167 -1.5794  0.7292
   29MOL    H10 5106   2.914   7.229   5.223 -0.0228 -1.1006  1.0064
   29MOL    C11 5107   3.159   7.135   5.254  0.4447 -0.1685 -0.0896
   29MOL    C12 5108   3.268   7.040   5.321  0.0649 -0.0464 -0.1387
   29MOL    C13 5109   3.398   7.124   5.328  0.1170 -0.0242 -0.2194
   29MOL    H14 5110   3.201   7.209   5.186 -1.0970 -0.6413 -1.5987
   29MOL    H15 5111   3.126   7.194   5.340  4.2088  1.6784  0.1615
   29MOL    H16 5112   3.285   6.954   5.256 -1.4780 -1.5355  1.3642
   29MOL    H17 5113   3.477   7.050   5.344 -0.1193  0.1572  2.0146
   29MOL    H18 5114   3.421   7.175   5.235 -0.5668 -1.0214 -0.9438
   29MOL    H19 5115   3.392   7.207   5.398 -2.1187 -0.9687  0.7457
   29MOL    C20 5116   3.215   6.992   5.461  0.3657  0.4904 -0.0825
   29MOL    C21 5117   3.300   6.892   5.541  0.3847  0.9689 -0.1074
   29MOL    C22 5118   3.258   6.889   5.687  0.2615  0.2342  0.1688
   29MOL    H23 5119   3.201   7.086   5.514 -0.3050 -0.6584  1.8161
   29MOL    H24 5120   3.121   6.941   5.441  0.7023  0.1279 -0.7615
   29MOL    H25 5121   3.404   6.924   5.530  0.3171  1.5712  0.9593
   29MOL    H26 5122   3.166   6.832   5.697  0.5192 -0.3294 -0.6123
   29MOL    H27 5123   3.335   6.836   5.743 -0.0087 -1.2120 -0.8051
   29MOL    H28 5124   3.243   6.989   5.728  0.5389 -0.2197  1.3841
   29MOL    C29 5125   3.277   6.752   5.469 -0.1269  0.4222  0.3182
   29MOL    C30 5126   3.408   6.663   5.457 -0.5763 -0.3651  0.7047
   29MOL    C31 5127   3.368   6.519   5.436  0.7384 -0.0915 -0.3575
   29MOL    H32 5128   3.199   6.693   5.519  0.2674  0.4925  1.0158
   29MOL    H33 5129   3.244   6.771   5.366 -0.0912 -3.0647 -0.4212
   29MOL    H34 5130   3.442   6.678   5.559 -1.6271  2.8161  0.6165
   29MOL    H35 5131   3.445   6.442   5.447  1.5630  0.7469 -0.2060
   29MOL    H36 5132   3.286   6.499   5.505  2.1726  0.6680  1.6342
   29MOL    H37 5133   3.330   6.505   5.335 -0.7749  0.7089  0.0952
   29MOL    C38 5134   3.529   6.718   5.367 -0.6594  0.3227 -0.3667
   29MOL    C39 5135   3.657   6.758   5.441  0.8789 -0.9070  0.8946
   29MOL    C40 5136   3.725   6.636   5.509 -0.4860  0.1249  1.0756
   29MOL    H41 5137   3.548   6.639   5.295  0.2922 -0.7509  1.0327
   29MOL    H42 5138   3.486   6.803   5.315 -1.3536 -0.5580 -1.2464
   29MOL    H43 5139   3.636   6.829   5.521  0.8779 -0.4008  0.4526
   29MOL    H44 5140   3.809   6.670   5.569  0.9705  0.4954 -1.1230
   29MOL    H45 5141   3.650   6.579   5.563  0.9894 -1.0356  1.9421
   29MOL    H46 5142   3.764   6.564   5.437 -1.2658  0.3448  0.4193
   29MOL    C47 5143   3.768   6.814   5.339 -0.2301  0.2063 -0.4658
   29MOL    C48 5144   3.743   6.964   5.301  1.0021  0.4184  0.0263
   29MOL    C49 5145   3.740   7.067   5.416  0.4686  0.1493 -0.2334
   29MOL    H50 5146   3.855   6.828   5.403 -0.0882  0.4388 -0.7074
   29MOL    H51 5147   3.802   6.745   5.262 -1.2606 -0.8294 -0.0011
   29MOL    H52 5148   3.647   6.959   5.249  2.9153  1.8192 -3.9002
   29MOL    H53 5149   3.836   7.057   5.467 -0.5036 -2.3028  1.2080
   29MOL    H54 5150   3.735   7.168   5.376  0.2420  0.4959  0.6460
   29MOL    H55 5151   3.661   7.056   5.490 -1.0022  0.6221 -1.7196
   29MOL    C56 5152   3.855   7.009   5.195  0.5102 -0.3662 -0.2236
   29MOL    C57 5153   3.787   7.086   5.082  0.4261  0.5635 -0.2448
   29MOL    C58 5154   3.873   7.199   5.027 -0.0018 -0.2215 -0.3706
   29MOL    H59 5155   3.936   7.057   5.250  0.0056  0.1979  0.0285
   29MOL    H60 5156   3.904   6.923   5.150  1.3026 -0.1354  0.1816
   29MOL    H61 5157   3.705   7.138   5.131  1.8735  0.9256  1.8654
   29MOL    H62 5158   3.827   7.257   4.947  2.1974 -0.1112 -1.5956
   29MOL    H63 5159   3.910   7.263   5.107 -0.5378 -0.4391  0.0531
   29MOL    H64 5160   3.965   7.154   4.991 -0.2098 -0.2190 -0.9059
   29MOL    C65 5161   3.722   7.005   4.969  1.2758  0.5019 -0.6252
   29MOL    C66 5162   3.814   6.937   4.873  0.0139  0.2490 -0.3647
   29MOL    C67 5163   3.824   6.780   4.906  0.2455  0.1532 -0.2388
   29MOL    H68 5164   3.656   6.928   5.007  0.6178  1.8661  1.0601
   29MOL    H69 5165   3.653   7.073   4.918  1.2007  1.1999  0.3848
   29MOL    H70 5166   3.914   6.976   4.893  0.7207 -2.5339  1.9949
   29MOL    H71 5167   3.918   6.742   4.866  1.3295  0.2532  2.1523
   29MOL    H72 5168   3.833   6.766   5.013 -1.8554 -0.2465 -0.0754
   29MOL    H73 5169   3.742   6.711   4.883  1.8823 -1.9097  0.0245
   29MOL    C74 5170   3.770   6.955   4.724  0.2755  0.0840  0.9510
   29MOL    C75 5171   3.790   7.097   4.656  0.4505  0.3732 -0.6251
   29MOL    C76 5172   3.933   7.143   4.643  0.2085  0.0055 -0.5003
   29MOL    H77 5173   3.821   6.887   4.656 -2.4658 -3.4934  2.2897
   29MOL    H78 5174   3.665   6.931   4.706  0.3360 -1.2930  2.2392
   29MOL    H79 5175   3.734   7.168   4.718  0.4764 -0.2546  0.1342
   29MOL    H80 5176   3.947   7.242   4.599 -1.8008  0.9704  0.9437
   29MOL    H81 5177   3.964   7.142   4.747  0.3196  0.5130 -0.5247
   29MOL    H82 5178   3.996   7.072   4.590  2.1598 -0.1524  1.9598
   29MOL    C83 5179   3.719   7.081   4.515 -0.1884 -0.4994 -0.5836
   29MOL    C84 5180   3.729   7.201   4.418 -0.0292 -0.1475 -0.6421
   29MOL    C85 5181   3.700   7.159   4.270  0.4646 -0.8753  0.1330
   29MOL    H86 5182   3.761   6.995   4.463 -0.8480 -1.7018  0.8448
   29MOL    H87 5183   3.611   7.078   4.529 -0.0766  2.5567  1.4793
   29MOL    H88 5184   3.833   7.233   4.420  0.3920 -1.5578  1.4611
   29MOL    H89 5185   3.748   7.064   4.246  0.7721 -0.5227 -0.6569
   29MOL    H90 5186   3.593   7.146   4.256  0.4377  0.2566 -0.7109
   29MOL    H91 5187   3.737   7.228   4.194 -0.8958  0.7100  0.8844
   29MOL    C92 5188   3.638   7.324   4.474 -0.0482 -0.2749  0.0953
   29MOL    C93 5189   3.665   7.467   4.421 -0.1318  0.1091  0.0509
   29MOL    C94 5190   3.598   7.473   4.278 -0.8411 -0.1165  0.6796
   29MOL    H95 5191   3.535   7.291   4.461 -0.7199  1.6648  0.4923
   29MOL    H96 5192   3.650   7.330   4.582 -1.1869 -0.1874  0.2266
   29MOL    H97 5193   3.773   7.483   4.418  0.1870 -1.8107  0.6729
   29MOL    H98 5194   3.598   7.577   4.247 -1.1538 -0.0095  1.0259
   29MOL    H99 5195   3.644   7.411   4.201  1.0958 -0.7180  2.2749
   29MOL   H100 5196   3.492   7.450   4.270 -0.7677 -0.0456 -0.6272
   29MOL   C101 5197   3.602   7.579   4.517 -0.1898 -0.4601 -0.1789
   29MOL   C102 5198   3.671   7.610   4.645 -0.1277  0.2910 -0.2681
   29MOL   C103 5199   3.816   7.653   4.626  0.1986  0.8373 -0.6554
   29MOL   H104 5200   3.587   7.670   4.459  1.6982  0.3924  0.6172
   29MOL   H105 5201   3.501   7.555   4.548 -0.3606  0.2903 -0.1450
   29MOL   H106 5202   3.681   7.517   4.700  1.7909 -0.9818 -2.6653
   29MOL   H107 5203   3.827   0.045   4.564  1.0818  1.4746  0.3879
   29MOL   H108 5204   3.857   7.660   4.727  1.2530  0.4943 -1.0506
   29MOL   H109 5205   3.886   7.584   4.579 -0.6058  1.3927 -2.6986
   29MOL   C110 5206   3.589   0.020   4.729 -0.3429  0.0925 -0.3538
   29MOL   C111 5207   3.588   0.002   4.886  0.3231  0.2774 -0.2041
   29MOL   C112 5208   3.525   0.131   4.950 -0.7870  0.6578  0.1898
   29MOL   H113 5209   3.635   0.117   4.714 -1.2204  0.7146  0.9816
   29MOL   H114 5210   3.486   0.024   4.692 -0.1747  0.5337 -0.7817
   29MOL   H115 5211   3.692   7.688   4.918 -0.4693 -2.9294  1.4648
   29MOL   H116 5212   3.417   0.127   4.964 -1.0412  1.2001 -1.4276
   29MOL   H117 5213   3.566   0.155   5.047 -2.3487  0.8120  0.8298
   29MOL   H118 5214   3.552   0.216   4.887 -1.0614  0.8581  0.3443
   29MOL   C119 5215   3.522   7.570   4.929 -0.0048  0.2996  0.9471
   29MOL   C120 5216   3.501   7.547   5.080  0.1025  0.3593 -0.4197
   29MOL   C121 5217   3.410   7.428   5.107  0.5710  0.0347 -0.1236
   29MOL   H122 5218   3.426   7.570   4.877  0.4709  1.0372  0.0561
   29MOL   H123 5219   3.579   7.484   4.894  0.1971  0.4145  0.9970
   29MOL   H124 5220   3.452   7.631   5.129 -0.7115 -0.4101  0.1158
   29MOL   H125 5221   3.458   7.332   5.087  0.0351 -0.3443  0.4088
   29MOL   H126 5222   3.372   7.430   5.209  2.0409 -0.7525  0.4437
   29MOL   H127 5223   3.317   7.442   5.052  0.4843 -0.9146 -0.2184
   29MOL   C128 5224   3.633   7.525   5.154 -0.0626  0.2049  0.2142
   29MOL   C129 5225   3.628   7.501   5.307  0.7401  0.3155  0.5356
   29MOL   C130 5226   3.777   7.476   5.346  0.3913 -0.4113  0.4711
   29MOL   H131 5227   3.694   7.446   5.110  0.0605 -0.1653  1.0254
   29MOL   H132 5228   3.696   7.612   5.133  1.0031 -1.0652 -2.0809
   29MOL   H133 5229   3.585   7.402   5.320  2.3111 -0.3496  0.7566
   29MOL   H134 5230   3.789   7.429   5.444  1.5207 -2.3146 -0.5462
   29MOL   H135 5231   3.828   7.417   5.270 -0.9092 -1.7244  0.5935
   29MOL   H136 5232   3.832   7.570   5.340 -0.5734  0.1685  0.5941
   29MOL   C137 5233   3.571   7.635   5.375  0.0881 -0.0326  0.0774
   29MOL   C138 5234   3.561   7.628   5.525  0.3504  0.2033 -0.0845
   29MOL   C139 5235   3.499   0.059   5.570 -0.0154 -0.1409 -0.2423
   29MOL   H140 5236   3.614   0.032   5.341  0.5669 -0.1724  0.2887
   29MOL   H141 5237   3.464   7.640   5.359  0.0291 -0.0316  0.4803
   29MOL   H142 5238   3.662   7.629   5.565  1.2507  1.0978 -2.2866
   29MOL   H143 5239   3.511   0.079   5.677  1.0193  2.3496 -0.7864
   29MOL   H144 5240   3.555   0.143   5.528  2.3718 -0.8073  1.5231
   29MOL   H145 5241   3.390   0.063   5.559 -0.3112 -2.8672  1.1680
   29MOL   C146 5242   3.477   7.495   5.568  0.2536 -0.4370 -0.1616
   29MOL   C147 5243   3.456   7.476   5.715 -0.0532  0.3100  0.0668
   29MOL   C148 5244   3.317   7.421   5.764  0.2337  0.4855  0.0568
   29MOL   H149 5245   3.383   7.510   5.515  0.1337 -4.8222 -1.3803
   29MOL   H150 5246   3.519   7.404   5.525  0.2378 -0.2762 -0.5221
   29MOL   H151 5247   3.479   7.572   5.760  0.3741  0.3771 -0.2881
   29MOL   H152 5248   3.237   7.476   5.715 -0.7988  1.7269  3.0234
   29MOL   H153 5249   3.306   7.318   5.731  2.7766  0.2832 -0.2840
   29MOL   H154 5250   3.310   7.432   5.873 -2.3513 -0.3392  0.0024
   29MOL   C155 5251   3.558   7.379   5.783  0.0774  0.0587  0.3441
   29MOL   C156 5252   3.709   7.405   5.778 -0.0904 -0.4380 -0.4871
   29MOL   C157 5253   3.741   7.549   5.834 -0.4829  0.5775  0.9609
   29MOL   H158 5254   3.545   7.364   5.890 -0.0252 -0.4112  0.2688
   29MOL   H159 5255   3.542   7.277   5.748  1.1394  0.7827 -2.3953
   29MOL   H160 5256   3.751   7.406   5.678  0.5286 -4.0905 -0.3217
   29MOL   H161 5257   3.848   7.568   5.836 -0.5597  1.3301 -1.0320
   29MOL   H162 5258   3.698   7.627   5.772  1.8572 -0.7779 -2.4597
   29MOL   H163 5259   3.703   7.566   5.935 -1.1849  0.1088  0.7808
   29MOL   C164 5260   3.794   7.297   5.847  0.3581  0.1584  0.0906
   29MOL   C165 5261   3.847   7.192   5.749  0.0751  0.2145 -0.1993
   29MOL   C166 5262   3.978   7.244   5.684 -0.2330 -0.1357  0.2835
   29MOL   H167 5263   3.873   7.335   5.913  0.5278 -2.0014  1.1773
   29MOL   H168 5264   3.733   7.251   5.925 -0.7973  0.9243 -0.3561
   29MOL   H169 5265   3.771   7.171   5.673 -0.7909  1.3836  0.3310
   29MOL   H170 5266   4.072   7.236   5.739  0.7725  0.5976 -1.2799
   29MOL   H171 5267   4.006   7.177   5.603 -2.1708 -0.6833  0.0473
   29MOL   H172 5268   3.965   7.346   5.647 -2.8622 -1.2195 -1.9082
   29MOL   C173 5269   3.870   7.047   5.798  0.3537 -0.5326 -0.6149
   29MOL   C174 5270   3.747   6.972   5.849 -0.5723 -0.0147 -0.2056
   29MOL   C175 5271   3.778   6.822   5.879 -0.0968  0.2450  0.8184
   29MOL   H176 5272   3.916   6.993   5.716 -0.2040  0.5308 -1.6424
   29MOL   H177 5273   3.944   7.054   5.878 -0.1932  0.5047 -0.1840
   29MOL   H178 5274   3.660   6.975   5.783 -3.0054  0.0928  2.9171
   29MOL   H179 5275   3.839   6.783   5.798 -0.7125 -1.4901  1.1654
   29MOL   H180 5276   3.829   6.803   5.974 -1.6619  0.8805  1.7911
   29MOL   H181 5277   3.690   6.758   5.885  0.5047 -0.6377  0.4277
   29MOL   H182 5278   3.713   7.007   5.947  2.3081 -2.1906  1.6500
   30MOL     C1 5279   7.382   2.421   5.995 -0.5249  0.4000  0.3100
   30MOL     C2 5280   7.385   2.266   6.010 -0.1010 -0.3988 -0.1786
   30MOL     C3 5281   7.270   2.233   6.106  0.4329 -0.3661 -0.3422
   30MOL     H4 5282   7.440   2.455   5.910 -0.6884 -1.5235 -0.6042
   30MOL     H5 5283   7.416   2.469   6.086 -1.0156  0.9822  0.1895
   30MOL     H6 5284   7.482   2.242   6.053 -0.2278 -0.5725  0.0101
   30MOL     H7 5285   7.178   2.220   6.049 -0.3210  1.8155  0.3202
   30MOL     H8 5286   7.296   2.133   6.141 -2.7526 -1.1862 -0.1043
   30MOL     H9 5287   7.261   2.300   6.191 -1.9715 -0.5327 -0.4092
   30MOL    H10 5288   7.282   2.466   5.990 -1.0994 -0.5589  2.4701
   30MOL    C11 5289   7.375   2.192   5.875 -0.1580  0.3423  0.2348
   30MOL    C12 5290   7.391   2.037   5.877  0.0235 -0.0288  0.1566
   30MOL    C13 5291   7.286   1.979   5.785 -0.4119  0.1838  0.2402
   30MOL    H14 5292   7.277   2.214   5.833 -0.1058  0.4279  0.1584
   30MOL    H15 5293   7.448   2.239   5.809  1.7445 -1.7401  0.8302
   30MOL    H16 5294   7.384   1.993   5.976  1.5202  1.5531  0.9991
   30MOL    H17 5295   7.188   2.019   5.813  0.4730  3.5339 -1.2649
   30MOL    H18 5296   7.293   1.996   5.677 -0.1821  1.8672  0.5104
   30MOL    H19 5297   7.278   1.873   5.808  0.8822  0.5579  2.5379
   30MOL    C20 5298   7.534   1.998   5.830 -0.4414  0.6746 -0.2016
   30MOL    C21 5299   7.665   2.049   5.908 -0.0108 -0.1935  0.2560
   30MOL    C22 5300   7.673   1.988   6.049 -0.2390  0.7348 -0.2169
   30MOL    H23 5301   7.533   1.890   5.839  0.1268  0.7783  1.2056
   30MOL    H24 5302   7.546   2.016   5.723  2.1562 -1.0003 -0.2560
   30MOL    H25 5303   7.644   2.155   5.919 -0.8256 -0.4724  1.4301
   30MOL    H26 5304   0.018   1.889   6.039 -0.3489  0.6842 -0.1817
   30MOL    H27 5305   0.054   2.047   6.097  1.3939 -1.1167 -0.5299
   30MOL    H28 5306   7.579   1.991   6.105  0.4884  1.3751  0.9956
   30MOL    C29 5307   0.103   2.030   5.833  0.7151 -0.4622  0.9538
   30MOL    C30 5308   0.145   2.117   5.707 -0.3786  0.9793  0.1094
   30MOL    C31 5309   0.184   2.253   5.744 -0.1780 -0.5186 -0.1869
   30MOL    H32 5310   0.183   2.041   5.906 -0.2101  1.5204  1.6989
   30MOL    H33 5311   0.109   1.926   5.801  0.4468  0.1341 -1.0708
   30MOL    H34 5312   0.057   2.139   5.646 -0.2334 -1.1382 -0.9303
   30MOL    H35 5313   0.099   2.316   5.771  0.0951 -0.7465  1.2594
   30MOL    H36 5314   0.251   2.249   5.830 -0.0871 -0.6638 -0.2651
   30MOL    H37 5315   0.232   2.308   5.664 -0.9279  0.4455  0.0182
   30MOL    C38 5316   0.265   2.061   5.633  0.2121  0.5763  0.0174
   30MOL    C39 5317   0.236   1.945   5.535 -0.5996  0.2779  0.6805
   30MOL    C40 5318   0.136   1.976   5.419 -0.1540 -0.3574 -0.0729
   30MOL    H41 5319   0.309   2.143   5.575  1.3454  1.4015  2.0312
   30MOL    H42 5320   0.349   2.035   5.697  1.7777 -1.5910 -2.8038
   30MOL    H43 5321   0.195   1.871   5.604 -1.5076 -0.6079 -0.7790
   30MOL    H44 5322   0.125   1.886   5.358 -2.0132  0.5913 -1.1719
   30MOL    H45 5323   0.040   2.011   5.457 -0.1086 -0.3661  0.0504
   30MOL    H46 5324   0.180   2.053   5.355  1.8155 -0.2341  1.3899
   30MOL    C47 5325   0.370   1.905   5.472 -0.4798 -0.3554  0.0133
   30MOL    C48 5326   0.383   1.753   5.435 -0.0738 -0.6985  0.2864
   30MOL    C49 5327   0.437   1.753   5.292 -0.1857 -0.5301  0.5352
   30MOL    H50 5328   0.372   1.970   5.384  0.1146  0.3287  0.5396
   30MOL    H51 5329   0.453   1.923   5.539 -0.4820 -2.4547  0.5915
   30MOL    H52 5330   0.290   1.698   5.426  0.0459 -0.6697 -1.3060
   30MOL    H53 5331   0.480   1.655   5.272  0.5743  0.1746 -1.4093
   30MOL    H54 5332   0.362   1.772   5.214  0.9259 -2.0014 -0.9366
   30MOL    H55 5333   0.519   1.822   5.274  0.7529 -1.4860  1.0859
   30MOL    C56 5334   0.478   1.674   5.529 -0.0199  0.1101  0.2033
   30MOL    C57 5335   0.474   1.519   5.509  0.2246  0.5185 -0.8565
   30MOL    C58 5336   0.602   1.447   5.470 -0.4131  0.0190 -0.0376
   30MOL    H59 5337   0.581   1.709   5.521  0.9296 -2.6813 -0.0793
   30MOL    H60 5338   0.459   1.699   5.633 -2.3022  0.4804 -0.2820
   30MOL    H61 5339   0.400   1.489   5.434 -1.3843  1.4273  0.3392
   30MOL    H62 5340   0.643   1.476   5.373  0.5018  0.7047  0.5495
   30MOL    H63 5341   0.678   1.487   5.537  0.4906 -0.5524 -0.7124
   30MOL    H64 5342   0.590   1.339   5.477 -1.2759  0.0986 -0.2424
   30MOL    C65 5343   0.428   1.435   5.639 -0.2658 -0.1521 -0.4245
   30MOL    C66 5344   0.282   1.459   5.691 -0.1344  0.5416 -0.4854
   30MOL    C67 5345   0.195   1.359   5.614  0.7790  0.0203  0.4092
   30MOL    H68 5346   0.438   1.327   5.629 -1.3728 -0.3242  0.2266
   30MOL    H69 5347   0.495   1.463   5.719  0.3646 -0.2798 -0.9027
   30MOL    H70 5348   0.243   1.555   5.657  1.2349  2.0224  1.9074
   30MOL    H71 5349   0.225   1.254   5.625  0.4246 -0.1422 -0.1575
   30MOL    H72 5350   0.092   1.371   5.646 -0.8106  1.4687 -4.6950
   30MOL    H73 5351   0.194   1.381   5.507 -0.3300  2.6348  0.9267
   30MOL    C74 5352   0.273   1.442   5.848  0.9305  1.0528  0.2814
   30MOL    C75 5353   0.305   1.570   5.928  0.3436 -0.3310  0.2574
   30MOL    C76 5354   0.236   1.693   5.866  0.1790 -0.1012 -0.3315
   30MOL    H77 5355   0.169   1.425   5.875  0.8588  0.6686 -0.2297
   30MOL    H78 5356   0.333   1.358   5.883  0.0007 -0.4671 -1.6340
   30MOL    H79 5357   0.409   1.601   5.918  0.2563 -0.4826 -1.1660
   30MOL    H80 5358   0.132   1.675   5.841 -0.6476  1.5467  1.8110
   30MOL    H81 5359   0.237   1.771   5.943  0.9605  0.4187 -0.8603
   30MOL    H82 5360   0.282   1.719   5.771 -2.3804 -0.6830 -1.7463
   30MOL    C83 5361   0.283   1.553   6.078  0.3041  0.3172  0.0930
   30MOL    C84 5362   0.345   1.434   6.150 -0.0601  0.1428 -0.4400
   30MOL    C85 5363   0.500   1.434   6.133 -0.5133  0.2230 -0.5223
   30MOL    H86 5364   0.311   1.645   6.130 -1.5250  2.1604 -2.0725
   30MOL    H87 5365   0.175   1.550   6.083  0.1787  0.4692 -2.0795
   30MOL    H88 5366   0.315   1.340   6.104  1.5676 -0.0286 -1.1847
   30MOL    H89 5367   0.526   1.343   6.187 -0.6402  0.2142 -0.4764
   30MOL    H90 5368   0.516   1.418   6.026  0.6727 -0.2724 -0.2880
   30MOL    H91 5369   0.544   1.531   6.158 -2.3761  1.2862 -1.2766
   30MOL    C92 5370   0.304   1.421   6.297  0.1038 -0.8775  0.0654
   30MOL    C93 5371   0.156   1.403   6.314 -0.3168  0.3639  0.0569
   30MOL    C94 5372   0.108   1.256   6.314  0.1652 -0.8240 -0.4791
   30MOL    H95 5373   0.357   1.337   6.341 -1.8251 -1.5821  1.1169
   30MOL    H96 5374   0.341   1.514   6.340  2.1028 -1.4703 -0.3339
   30MOL    H97 5375   0.091   1.448   6.239  0.0878  0.0638 -0.4848
   30MOL    H98 5376   0.007   1.264   6.273 -1.1316  2.5342  2.9983
   30MOL    H99 5377   0.150   1.195   6.235 -2.7725 -2.0960 -1.1342
   30MOL   H100 5378   0.116   1.201   6.408 -2.0863 -1.1522 -0.4530
   30MOL   C101 5379   0.107   1.481   6.441  0.4869 -0.2819 -0.7714
   30MOL   C102 5380   0.095   1.633   6.429  0.1219  0.6655 -0.4091
   30MOL   C103 5381   7.671   1.681   6.342  0.1867  0.4808  1.0406
   30MOL   H104 5382   0.004   1.452   6.462  0.7937  0.2388  1.5628
   30MOL   H105 5383   0.183   1.461   6.517 -0.9774  0.5697  0.9281
   30MOL   H106 5384   0.180   1.676   6.376  1.0969 -1.4724 -0.6305
   30MOL   H107 5385   7.577   1.641   6.379 -0.0786 -0.0660 -0.1903
   30MOL   H108 5386   7.674   1.789   6.328  1.4577  0.3189 -0.0672
   30MOL   H109 5387   7.685   1.640   6.242  1.4423  1.9420  0.6032
   30MOL   C110 5388   0.072   1.701   6.568 -0.4532  0.5025 -0.0317
   30MOL   C111 5389   0.199   1.701   6.661  0.6676  0.8555  0.4609
   30MOL   C112 5390   0.301   1.804   6.604 -0.4461  0.6014  0.3139
   30MOL   H113 5391   0.045   1.807   6.567 -1.1752  0.3158  0.0418
   30MOL   H114 5392   7.682   1.651   6.607 -0.4060 -0.2853 -0.9353
   30MOL   H115 5393   0.251   1.607   6.641  0.2830  0.2402  2.2946
   30MOL   H116 5394   0.322   1.767   6.504  0.1000 -3.3079  1.7626
   30MOL   H117 5395   0.272   1.907   6.586 -2.3823  0.3036  1.5921
   30MOL   H118 5396   0.398   1.802   6.655 -0.5551 -0.1768  0.4900
   30MOL   C119 5397   0.146   1.709   6.810 -0.1738  0.2044  0.9497
   30MOL   C120 5398   0.252   1.700   6.925  0.2482 -0.1585 -0.0977
   30MOL   C121 5399   0.183   1.728   7.062  0.7317  0.0746  0.0319
   30MOL   H122 5400   0.085   1.797   6.827  2.9136  2.2487  1.7065
   30MOL   H123 5401   0.080   1.622   6.818  0.0947 -0.2049 -0.9463
   30MOL   H124 5402   0.331   1.775   6.921  1.3699 -1.2214  1.6788
   30MOL   H125 5403   0.115   1.813   7.054 -0.5760 -0.8031  1.4933
   30MOL   H126 5404   0.134   1.642   7.109 -0.9717  1.2409  0.4474
   30MOL   H127 5405   0.268   1.753   7.125  0.0585  0.0114  0.9761
   30MOL   C128 5406   0.319   1.556   6.931 -0.1331 -1.0713  0.1335
   30MOL   C129 5407   0.450   1.532   6.851 -0.6030  0.1207  0.0171
   30MOL   C130 5408   0.558   1.639   6.893  0.7433 -0.1026 -0.1165
   30MOL   H131 5409   0.338   1.531   7.035 -0.4411  4.2078  1.6466
   30MOL   H132 5410   0.250   1.480   6.896  0.1058 -1.2641  0.0766
   30MOL   H133 5411   0.432   1.550   6.745  0.0682 -2.1915 -0.5321
   30MOL   H134 5412   0.588   1.630   6.997  0.8543 -0.7964 -0.2046
   30MOL   H135 5413   0.644   1.611   6.833  0.3479 -1.3670 -0.0913
   30MOL   H136 5414   0.525   1.736   6.854 -1.9346 -1.4709 -1.3719
   30MOL   C137 5415   0.496   1.378   6.865  0.3502  0.2266 -0.5248
   30MOL   C138 5416   0.417   1.279   6.776 -0.3486  1.1003  0.2127
   30MOL   C139 5417   0.461   1.279   6.630  0.0032  0.4925 -0.0123
   30MOL   H140 5418   0.605   1.379   6.866  0.3600 -0.4314  0.0678
   30MOL   H141 5419   0.476   1.367   6.971 -0.1773  2.1630 -0.4066
   30MOL   H142 5420   0.311   1.302   6.783 -0.7019 -0.5956  0.8128
   30MOL   H143 5421   0.448   1.375   6.580 -1.3519  0.9060  1.1024
   30MOL   H144 5422   0.568   1.257   6.619  0.3704  1.2572  1.8141
   30MOL   H145 5423   0.392   1.212   6.578  1.0187 -1.4079  1.0059
   30MOL   C146 5424   0.423   1.131   6.840  0.6394 -0.0663  0.0009
   30MOL   C147 5425   0.321   1.035   6.779 -0.7161  0.1329  0.5289
   30MOL   C148 5426   0.390   0.906   6.734 -0.4697  0.0917  0.3273
   30MOL   H149 5427   0.524   1.092   6.829  0.3009 -0.2807 -2.6265
   30MOL   H150 5428   0.409   1.127   6.948  0.7124 -1.7812 -0.0431
   30MOL   H151 5429   0.270   1.080   6.693  0.4716  1.1191  0.3332
   30MOL   H152 5430   0.442   0.873   6.825  0.4869 -0.0198 -0.2540
   30MOL   H153 5431   0.320   0.833   6.695  0.0931 -1.0265  1.3611
   30MOL   H154 5432   0.469   0.925   6.661 -0.4637 -2.0807 -0.2659
   30MOL   C155 5433   0.204   0.996   6.870  0.1267 -0.1362 -0.1687
   30MOL   C156 5434   0.106   1.110   6.915 -0.1847 -0.3286 -0.1701
   30MOL   C157 5435   0.010   1.141   6.793 -0.4103  0.0186 -0.0652
   30MOL   H158 5436   0.154   0.911   6.823  2.2996 -0.5185 -1.8894
   30MOL   H159 5437   0.252   0.953   6.958 -1.0620  1.9266  1.5373
   30MOL   H160 5438   0.180   1.184   6.946 -1.4188  1.0029 -0.3143
   30MOL   H161 5439   7.621   1.075   6.786 -0.3055 -0.0929 -0.3158
   30MOL   H162 5440   7.666   1.242   6.802  0.4052  0.5110 -1.6402
   30MOL   H163 5441   0.065   1.144   6.699 -0.6155 -1.0848 -0.2280
   30MOL   C164 5442   0.032   1.060   7.039  0.4003 -0.3689 -0.1677
   30MOL   C165 5443   7.621   1.151   7.100 -0.1782 -0.0384  0.0592
   30MOL   C166 5444   7.547   1.082   7.216  0.4005  0.4638  0.2098
   30MOL   H167 5445   7.680   0.966   7.016  0.7677 -0.1268 -2.0007
   30MOL   H168 5446   0.109   1.053   7.116  0.1673 -0.4388  0.0583
   30MOL   H169 5447   7.556   1.172   7.015  0.8714  0.7758 -0.5441
   30MOL   H170 5448   7.488   1.149   7.279 -1.4365 -2.5215  1.7954
   30MOL   H171 5449   7.481   1.008   7.171  2.3477  0.0337 -2.0097
   30MOL   H172 5450   7.625   1.027   7.269 -0.1033 -0.7736 -0.3107
   30MOL   C173 5451   7.655   1.301   7.129 -0.2868  0.4967  0.0432
   30MOL   C174 5452   7.532   1.391   7.148  0.2449  0.0908  0.2691
   30MOL   C175 5453   7.452   1.420   7.019 -1.2960  0.0401 -0.7549
   30MOL   H176 5454   0.024   1.289   7.214  2.8448  1.1808 -2.2131
   30MOL   H177 5455   0.018   1.341   7.047 -1.1311  0.7186 -0.4807
   30MOL   H178 5456   7.564   1.480   7.202 -1.1824  1.7895 -1.6656
   30MOL   H179 5457   7.509   1.490   6.957 -1.9436  0.2717 -1.0933
   30MOL   H180 5458   7.422   1.334   6.959  0.5795 -2.2531  1.4829
   30MOL   H181 5459   7.365   1.483   7.030 -0.4779  1.1687 -0.6506
   30MOL   H182 5460   7.461   1.345   7.217 -0.3186  2.9719  1.6681
   31MOL     C1 5461   5.116   6.800   4.777 -0.1063  0.3775 -0.1660
   31MOL     C2 5462   4.965   6.809   4.745  0.8772 -0.0216  0.9235
   31MOL     C3 5463   4.958   6.803   4.590  0.0896 -0.0991  0.4867
   31MOL     H4 5464   5.180   6.876   4.733 -1.4066  0.5987 -1.6751
   31MOL     H5 5465   5.167   6.711   4.740 -0.4518 -0.3679  1.0958
   31MOL     H6 5466   4.925   6.904   4.781 -0.1284 -0.2929  0.5269
   31MOL     H7 5467   5.000   6.893   4.544 -0.4407  0.6809  1.4932
   31MOL     H8 5468   5.011   6.714   4.558 -0.9259 -0.4050 -0.3536
   31MOL     H9 5469   4.854   6.805   4.558  0.8222  0.4320 -1.8903
   31MOL    H10 5470   5.129   6.801   4.886 -1.8610 -3.5998  0.1836
   31MOL    C11 5471   4.892   6.677   4.788 -0.4826  0.4750  0.7401
   31MOL    C12 5472   4.881   6.663   4.938 -0.8407  0.6349 -0.2101
   31MOL    C13 5473   4.775   6.763   5.000 -0.2778 -0.5564 -0.0511
   31MOL    H14 5474   4.787   6.682   4.759 -0.2276 -0.6039 -0.3827
   31MOL    H15 5475   4.950   6.595   4.745 -1.5176 -0.8428  1.7913
   31MOL    H16 5476   4.975   6.688   4.987 -1.7891  3.0193  0.4532
   31MOL    H17 5477   4.677   6.745   4.958 -0.6580  0.9383  0.1704
   31MOL    H18 5478   4.762   6.778   5.108 -2.7470 -0.1462 -0.3915
   31MOL    H19 5479   4.805   6.864   4.973 -1.3513 -0.3332 -0.4094
   31MOL    C20 5480   4.841   6.516   4.960  0.6076 -0.0819 -0.4568
   31MOL    C21 5481   4.840   6.469   5.109 -0.3756  0.2175 -0.0021
   31MOL    C22 5482   4.751   6.340   5.115  0.4220  0.7671  0.9216
   31MOL    H23 5483   4.741   6.498   4.921 -0.7067  1.8763  1.9157
   31MOL    H24 5484   4.902   6.443   4.906 -0.3767 -1.3371  0.1121
   31MOL    H25 5485   4.805   6.550   5.173 -2.0008 -0.9427  0.6250
   31MOL    H26 5486   4.789   6.255   5.059  2.5483  0.7321  2.3459
   31MOL    H27 5487   4.748   6.309   5.219  1.2992  0.1123  0.7580
   31MOL    H28 5488   4.649   6.367   5.091  0.9071  1.2549 -0.6667
   31MOL    C29 5489   4.981   6.442   5.159 -0.1809 -0.7450  0.0165
   31MOL    C30 5490   5.037   6.529   5.280  0.3316 -0.3691  0.4839
   31MOL    C31 5491   4.947   6.527   5.405  0.4928 -1.2682 -0.0016
   31MOL    H32 5492   4.993   6.340   5.195  0.6472 -1.9100 -3.3478
   31MOL    H33 5493   5.053   6.446   5.077  0.0132 -0.8688  0.1773
   31MOL    H34 5494   5.037   6.628   5.233 -0.1471  0.0507  1.3687
   31MOL    H35 5495   4.899   6.430   5.413 -1.6514 -0.2149  0.4878
   31MOL    H36 5496   5.012   6.549   5.490  0.4948 -0.5314 -0.1860
   31MOL    H37 5497   4.880   6.612   5.390 -0.5996 -2.3284 -1.2571
   31MOL    C38 5498   5.188   6.513   5.320  0.2353  0.5717  0.3406
   31MOL    C39 5499   5.288   6.568   5.214 -0.1111 -0.3862  0.0291
   31MOL    C40 5500   5.283   6.724   5.210 -0.2871 -0.1177  0.4533
   31MOL    H41 5501   5.210   6.547   5.421 -0.1687  0.8041  0.3508
   31MOL    H42 5502   5.204   6.406   5.338  1.6477  0.4355 -1.5644
   31MOL    H43 5503   5.259   6.531   5.116  1.5951 -0.0098 -0.6396
   31MOL    H44 5504   5.351   6.778   5.145  0.2781 -0.3805  0.8194
   31MOL    H45 5505   5.184   6.754   5.176 -0.1527 -0.6133 -0.3890
   31MOL    H46 5506   5.299   6.762   5.311 -1.9303 -0.1229  0.7197
   31MOL    C47 5507   5.427   6.512   5.257  0.8792 -0.1337 -0.0118
   31MOL    C48 5508   5.453   6.361   5.245 -0.7197  0.1762  0.3769
   31MOL    C49 5509   5.478   6.336   5.093  0.1929 -0.0906  0.1845
   31MOL    H50 5510   5.510   6.565   5.211  1.6174 -1.6753 -0.5191
   31MOL    H51 5511   5.441   6.538   5.361 -1.9338 -0.8097  0.5800
   31MOL    H52 5512   5.363   6.302   5.264  0.4064 -1.7797 -0.2224
   31MOL    H53 5513   5.577   6.366   5.059 -0.4289  0.8850 -0.7871
   31MOL    H54 5514   5.466   6.227   5.086 -1.9187 -0.0082  1.9892
   31MOL    H55 5515   5.407   6.388   5.029  0.8241 -0.4423 -0.8254
   31MOL    C56 5516   5.576   6.308   5.325  0.0725  0.4518 -0.0558
   31MOL    C57 5517   5.567   6.318   5.480  0.1875 -0.4283 -0.4426
   31MOL    C58 5518   5.469   6.200   5.525 -0.7227  0.4103 -0.3824
   31MOL    H59 5519   5.583   6.201   5.303 -2.7988  0.0140  0.9438
   31MOL    H60 5520   5.670   6.349   5.287  1.4774 -1.7929  0.8505
   31MOL    H61 5521   5.514   6.409   5.507 -0.3364 -0.3557 -1.6675
   31MOL    H62 5522   5.525   6.111   5.553 -0.2290  0.7671 -0.2221
   31MOL    H63 5523   5.423   6.239   5.616 -1.8950 -1.7039 -0.0300
   31MOL    H64 5524   5.402   6.161   5.448 -0.3608 -1.2157  0.0943
   31MOL    C65 5525   5.704   6.309   5.553 -0.1296  0.5030 -0.1704
   31MOL    C66 5526   5.792   6.439   5.541  0.3469 -0.3837  0.1267
   31MOL    C67 5527   5.727   6.572   5.587  0.9771 -0.0074  1.2008
   31MOL    H68 5528   5.682   6.303   5.660 -1.1901 -1.0846 -0.4567
   31MOL    H69 5529   5.747   6.215   5.518 -4.4822 -1.5233 -0.5436
   31MOL    H70 5530   5.819   6.460   5.438 -3.5727 -1.3850 -1.1796
   31MOL    H71 5531   5.696   6.566   5.692  3.0045  2.0195  1.9686
   31MOL    H72 5532   5.793   6.659   5.582 -0.4547  1.1596  2.1308
   31MOL    H73 5533   5.644   6.596   5.520  3.1271  1.8408 -0.9008
   31MOL    C74 5534   5.914   6.407   5.621  1.0221 -0.3839 -0.4118
   31MOL    C75 5535   6.032   6.510   5.609  0.0703  0.3658  0.4748
   31MOL    C76 5536   6.148   6.478   5.700  0.5025  0.3743 -0.0850
   31MOL    H77 5537   5.884   6.402   5.726  0.9813  1.2192 -0.3357
   31MOL    H78 5538   5.943   6.309   5.582 -0.4792 -1.3567  0.8311
   31MOL    H79 5539   5.994   6.611   5.629  1.2514  1.2650 -1.6829
   31MOL    H80 5540   6.212   6.563   5.723  0.2425  0.6174 -0.2590
   31MOL    H81 5541   6.117   6.448   5.800 -0.8260  0.4815 -0.4652
   31MOL    H82 5542   6.207   6.391   5.670  1.4274  1.0411 -0.2329
   31MOL    C83 5543   6.090   6.512   5.463  0.6450  1.1319 -0.5283
   31MOL    C84 5544   6.039   6.637   5.380 -0.0366 -0.6621  0.4884
   31MOL    C85 5545   6.112   6.764   5.427 -0.2255  0.7770  0.2789
   31MOL    H86 5546   6.198   6.519   5.475  0.7598  0.0337 -0.9180
   31MOL    H87 5547   6.086   6.414   5.417  3.2357 -0.0067  1.5420
   31MOL    H88 5548   5.935   6.665   5.396  0.2448  1.0645 -0.5603
   31MOL    H89 5549   6.206   6.784   5.376  0.5159 -0.8184  0.9939
   31MOL    H90 5550   6.057   6.856   5.404  1.3421  1.9136  1.0281
   31MOL    H91 5551   6.125   6.766   5.535 -1.1517  1.4694  0.3879
   31MOL    C92 5552   6.067   6.616   5.230 -0.2187 -0.3402  0.5312
   31MOL    C93 5553   6.012   6.725   5.133 -0.2124 -0.3155 -0.3631
   31MOL    C94 5554   6.077   6.728   4.992  0.2582 -0.4861  0.2634
   31MOL    H95 5555   6.175   6.610   5.221 -0.3478 -0.1815 -1.3413
   31MOL    H96 5556   6.038   6.513   5.209 -1.8210  0.5971 -2.1176
   31MOL    H97 5557   6.030   6.822   5.181  3.7821 -0.1214 -2.0511
   31MOL    H98 5558   6.047   6.823   4.949  2.5078  1.1211  2.0957
   31MOL    H99 5559   6.184   6.727   5.009  0.2012  0.0125  0.6745
   31MOL   H100 5560   6.048   6.644   4.929 -2.2085 -1.9752  3.2126
   31MOL   C101 5561   5.858   6.692   5.121  0.3175  0.0520 -0.1675
   31MOL   C102 5562   5.780   6.791   5.032  0.0825  0.2455 -0.0013
   31MOL   C103 5563   5.649   6.727   4.984 -0.0701 -0.6044 -0.3389
   31MOL   H104 5564   5.839   6.587   5.099 -2.0581  0.3554  0.2539
   31MOL   H105 5565   5.823   6.706   5.223  2.2642  1.3237  0.3564
   31MOL   H106 5566   5.835   6.800   4.938 -1.5181  1.0589 -0.8831
   31MOL   H107 5567   5.591   6.698   5.071  0.3097  3.4876  1.4245
   31MOL   H108 5568   5.590   6.797   4.926 -1.2723 -0.4718  1.0191
   31MOL   H109 5569   5.676   6.646   4.916  3.7885  1.1388 -1.0584
   31MOL   C110 5570   5.754   6.930   5.099 -0.1343  0.0150 -0.2853
   31MOL   C111 5571   5.750   7.054   5.005  0.0283  0.0207 -0.3037
   31MOL   C112 5572   5.610   7.113   4.993  0.4660  0.3264 -0.6431
   31MOL   H113 5573   5.678   6.916   5.176 -0.5808 -1.1029 -0.9086
   31MOL   H114 5574   5.831   6.948   5.174 -1.1473  0.7764  0.5800
   31MOL   H115 5575   5.766   7.009   4.907  1.1350 -0.0740 -0.0860
   31MOL   H116 5576   5.536   7.046   4.949 -0.8484  0.1447  1.7862
   31MOL   H117 5577   5.580   7.147   5.092  0.1010 -1.6361 -0.0455
   31MOL   H118 5578   5.617   7.202   4.931  0.6322  0.4779 -0.4073
   31MOL   C119 5579   5.848   7.166   5.040 -1.2381  0.6204  0.3075
   31MOL   C120 5580   5.997   7.118   5.010  0.9700  0.2030 -0.2528
   31MOL   C121 5581   6.014   7.118   4.854 -0.0606  0.1585 -0.4136
   31MOL   H122 5582   5.839   7.260   4.985  1.3123  0.9321  0.3493
   31MOL   H123 5583   5.858   7.187   5.147  1.7919 -1.3387  0.4741
   31MOL   H124 5584   6.017   7.016   5.043 -0.7777  0.5637  2.0624
   31MOL   H125 5585   6.120   7.099   4.833  0.2146  1.2907 -0.0925
   31MOL   H126 5586   5.945   7.053   4.801  0.7589  0.1044 -1.4288
   31MOL   H127 5587   6.000   7.217   4.811 -2.1302 -0.5637 -1.4523
   31MOL   C128 5588   6.112   7.206   5.072 -0.0738  0.2877 -0.0434
   31MOL   C129 5589   6.108   7.238   5.219  0.1011  0.1270 -0.0215
   31MOL   C130 5590   6.099   7.118   5.310 -0.1197  0.2825  0.0533
   31MOL   H131 5591   6.204   7.148   5.062 -1.4010 -1.9189  0.1385
   31MOL   H132 5592   6.126   7.295   5.011  0.4988 -2.0134 -3.4237
   31MOL   H133 5593   6.020   7.300   5.240  0.0508 -1.1112  3.9707
   31MOL   H134 5594   6.187   7.055   5.320 -0.2072  0.0154 -0.8214
   31MOL   H135 5595   6.089   7.159   5.410  0.5716  2.8897 -0.8928
   31MOL   H136 5596   6.011   7.055   5.298 -0.6062  1.1945 -1.4135
   31MOL   C137 5597   6.239   7.317   5.248 -0.0662 -0.9139  0.3294
   31MOL   C138 5598   6.247   7.460   5.187  0.0752 -0.7117 -0.2661
   31MOL   C139 5599   6.114   7.541   5.202  0.9370  0.3898  0.2920
   31MOL   H140 5600   6.253   7.320   5.356  1.2188  0.7228  0.1372
   31MOL   H141 5601   6.324   7.255   5.220  0.5048 -1.4107  2.9543
   31MOL   H142 5602   6.263   7.442   5.080  0.9704 -1.4147 -0.0206
   31MOL   H143 5603   6.143   7.646   5.198  4.3235 -0.4540  1.6197
   31MOL   H144 5604   6.039   7.506   5.131  0.6770  1.8761 -0.1790
   31MOL   H145 5605   6.065   7.526   5.298  2.0829  1.3410  1.0341
   31MOL   C146 5606   6.369   7.549   5.229  0.5758  0.2774  0.8948
   31MOL   C147 5607   6.507   7.496   5.186 -1.1756 -1.1422 -0.3834
   31MOL   C148 5608   6.535   7.533   5.041 -0.4244 -0.0946  0.2982
   31MOL   H149 5609   6.370   7.650   5.187  3.7057 -0.2996 -0.5463
   31MOL   H150 5610   6.363   7.566   5.337 -0.0608  1.3254  0.7070
   31MOL   H151 5611   6.504   7.387   5.192  1.3741 -1.2359 -0.2037
   31MOL   H152 5612   6.563   7.638   5.036  1.1988 -0.5281  0.1594
   31MOL   H153 5613   6.604   7.463   4.994  1.4442  0.6586  1.8951
   31MOL   H154 5614   6.449   7.524   4.974 -0.4564  1.1485  0.1659
   31MOL   C155 5615   6.628   7.541   5.286  0.0907 -0.5716 -0.3194
   31MOL   C156 5616   6.771   7.517   5.233 -0.7416 -0.4206 -0.2438
   31MOL   C157 5617   6.874   7.552   5.338 -0.0748  0.4279 -0.3199
   31MOL   H158 5618   6.609   7.646   5.310  1.3670 -0.6510  1.1304
   31MOL   H159 5619   6.626   7.488   5.381  1.1432 -1.1477 -0.6172
   31MOL   H160 5620   6.773   7.585   5.148  0.9418  1.2828  1.0981
   31MOL   H161 5621   6.870   7.648   5.390  0.4404 -0.4136  1.3095
   31MOL   H162 5622   6.869   7.477   5.417 -0.2274  1.5467  0.7515
   31MOL   H163 5623   6.980   7.546   5.312  0.3168 -0.8218  1.4616
   31MOL   C164 5624   6.797   7.371   5.196 -0.5837  0.2208 -0.5077
   31MOL   C165 5625   6.919   7.350   5.114 -0.6808  0.1202  0.4983
   31MOL   C166 5626   6.992   7.212   5.131 -0.4225  0.1181 -0.4138
   31MOL   H167 5627   6.800   7.306   5.284  0.6313  1.4567  0.3877
   31MOL   H168 5628   6.719   7.332   5.132 -0.3773 -1.2204  0.0737
   31MOL   H169 5629   6.993   7.412   5.164 -1.2706 -0.7336  2.4987
   31MOL   H170 5630   7.094   7.209   5.093  0.1933  1.6704  1.0599
   31MOL   H171 5631   6.980   7.181   5.235  0.1581  0.0304 -0.3722
   31MOL   H172 5632   6.927   7.146   5.073 -1.9654  2.0077 -0.9013
   31MOL   C173 5633   6.897   7.388   4.969  0.1407  0.3175  0.4094
   31MOL   C174 5634   7.029   7.405   4.898  0.5854  0.5636  0.2966
   31MOL   C175 5635   7.030   7.440   4.745  0.2395 -0.4585 -0.5907
   31MOL   H176 5636   6.823   7.325   4.921 -0.4470  0.2794  1.3359
   31MOL   H177 5637   6.855   7.489   4.972 -0.4020  0.2324 -2.9683
   31MOL   H178 5638   7.090   7.315   4.909  1.3287  0.8864 -1.0937
   31MOL   H179 5639   6.962   7.524   4.734 -0.3743 -0.9923 -0.8922
   31MOL   H180 5640   7.133   7.462   4.716  1.0326  0.9013  2.9810
   31MOL   H181 5641   6.999   7.353   4.687 -1.1184 -0.2597 -0.1895
   31MOL   H182 5642   7.074   7.484   4.957 -0.4970  0.5105  1.1997
   32MOL     C1 5643   5.046   2.993   3.685  0.1058 -0.5977 -0.5574
   32MOL     C2 5644   5.056   2.846   3.674 -0.0098 -0.1718  0.0472
   32MOL     C3 5645   5.053   2.812   3.522  0.0884  0.1614 -0.6253
   32MOL     H4 5646   4.955   3.015   3.629  0.6291 -1.2476 -1.6872
   32MOL     H5 5647   5.125   3.046   3.630  1.9542 -0.6028  1.9810
   32MOL     H6 5648   4.977   2.792   3.727 -0.2296  0.4874  0.3983
   32MOL     H7 5649   5.092   2.902   3.474  1.5182  0.6036  1.3001
   32MOL     H8 5650   5.129   2.740   3.495 -1.3146 -1.7314  0.3656
   32MOL     H9 5651   4.953   2.796   3.480 -1.7683  0.3242  3.4230
   32MOL    H10 5652   5.046   3.027   3.789  1.3178  0.4547 -0.8833
   32MOL    C11 5653   5.192   2.800   3.732 -0.4479 -0.4044  0.2592
   32MOL    C12 5654   5.199   2.666   3.813 -0.0586 -0.3502  0.1310
   32MOL    C13 5655   5.110   2.681   3.934 -0.5037  0.5663 -0.2714
   32MOL    H14 5656   5.266   2.773   3.656 -1.3155  0.0275 -0.7651
   32MOL    H15 5657   5.250   2.878   3.782  0.5225 -0.2075 -1.1339
   32MOL    H16 5658   5.302   2.656   3.846  0.8786 -0.6917 -2.7211
   32MOL    H17 5659   5.064   2.588   3.968  0.3894  0.9724  2.1126
   32MOL    H18 5660   5.177   2.708   4.015 -0.3070 -3.2791  0.9497
   32MOL    H19 5661   5.025   2.749   3.931 -0.2238  0.9108 -0.4062
   32MOL    C20 5662   5.180   2.550   3.723 -0.3938  0.0198 -0.0306
   32MOL    C21 5663   5.293   2.502   3.632  1.1703  0.0168  0.2622
   32MOL    C22 5664   5.417   2.453   3.714 -0.2792 -0.1524 -0.2316
   32MOL    H23 5665   5.164   2.458   3.779  1.8527 -0.1365  0.4237
   32MOL    H24 5666   5.088   2.576   3.672 -0.5905 -0.6728 -0.0357
   32MOL    H25 5667   5.330   2.586   3.574  0.3119 -0.3573 -0.8476
   32MOL    H26 5668   5.484   2.523   3.764  0.0266 -0.2151 -0.5513
   32MOL    H27 5669   5.389   2.382   3.791 -0.4322  0.7392  0.5428
   32MOL    H28 5670   5.478   2.391   3.648 -2.1012 -0.2261 -1.8976
   32MOL    C29 5671   5.243   2.390   3.533  0.3036  0.6076 -0.7117
   32MOL    C30 5672   5.136   2.437   3.429 -0.0325 -0.3963 -0.7798
   32MOL    C31 5673   5.204   2.506   3.311 -0.4595  0.3009 -0.4759
   32MOL    H32 5674   5.330   2.347   3.484 -0.1277  0.4169 -1.3047
   32MOL    H33 5675   5.208   2.309   3.597  3.1520 -0.3337 -0.2525
   32MOL    H34 5676   5.055   2.494   3.474  1.5088  0.1009  1.4700
   32MOL    H35 5677   5.278   2.581   3.339  0.1199 -0.1903 -0.6855
   32MOL    H36 5678   5.271   2.435   3.264 -0.2724 -1.4050  2.2361
   32MOL    H37 5679   5.144   2.548   3.231 -3.9149 -0.5152  1.5427
   32MOL    C38 5680   5.066   2.312   3.385 -0.7980  0.6104 -0.2809
   32MOL    C39 5681   4.951   2.343   3.290  0.6492 -0.1010  0.0574
   32MOL    C40 5682   4.978   2.282   3.149  0.3903  1.0071  0.3590
   32MOL    H41 5683   5.141   2.255   3.330 -2.1585 -0.2545 -1.2912
   32MOL    H42 5684   5.035   2.249   3.469  2.1133  1.5790  1.5926
   32MOL    H43 5685   4.929   2.447   3.266 -1.8250 -0.9058 -1.3743
   32MOL    H44 5686   4.969   2.173   3.148  1.0834  0.9494 -0.2098
   32MOL    H45 5687   4.919   2.320   3.065 -0.0074 -1.0559 -0.3279
   32MOL    H46 5688   5.082   2.281   3.118 -0.4797  0.1353 -2.7086
   32MOL    C47 5689   4.820   2.293   3.343  0.2754 -0.3665  0.0171
   32MOL    C48 5690   4.777   2.357   3.477 -0.9238 -0.2897 -0.2975
   32MOL    C49 5691   4.750   2.512   3.486  0.6877  0.2999 -0.0961
   32MOL    H50 5692   4.747   2.320   3.267  2.6167  2.1134 -1.4437
   32MOL    H51 5693   4.819   2.185   3.358  0.0801 -0.2119  1.2241
   32MOL    H52 5694   4.860   2.345   3.547 -1.0672  0.2530 -0.0380
   32MOL    H53 5695   4.656   2.542   3.439  0.0995 -0.6528  0.4394
   32MOL    H54 5696   4.748   2.541   3.591 -1.6660  2.1265 -0.6121
   32MOL    H55 5697   4.829   2.568   3.436  1.6955 -0.6201  0.4448
   32MOL    C56 5698   4.657   2.284   3.537 -0.5169  0.7125  0.5656
   32MOL    C57 5699   4.684   2.193   3.655  0.1268  0.6161  0.3116
   32MOL    C58 5700   4.753   2.254   3.782  0.4648  0.2914  0.0388
   32MOL    H59 5701   4.582   2.352   3.580 -0.4355 -0.1041  2.0222
   32MOL    H60 5702   4.595   2.230   3.465  0.3868  3.2769 -2.2626
   32MOL    H61 5703   4.755   2.115   3.625 -0.6598  0.2011 -0.4906
   32MOL    H62 5704   4.826   2.332   3.764 -0.8666  1.9405  1.6237
   32MOL    H63 5705   4.682   2.293   3.855 -0.0299 -1.9126  0.7769
   32MOL    H64 5706   4.805   2.180   3.843  0.6163 -1.4906 -2.1676
   32MOL    C65 5707   4.557   2.107   3.686 -0.1312  0.1394 -0.2796
   32MOL    C66 5708   4.586   1.995   3.786  0.5031 -0.6715  0.2354
   32MOL    C67 5709   4.449   1.952   3.846  0.1351  0.1906 -0.3002
   32MOL    H68 5710   4.486   2.176   3.732 -0.8544 -0.1823 -0.8961
   32MOL    H69 5711   4.505   2.071   3.597  1.4325  2.5577 -2.2005
   32MOL    H70 5712   4.643   2.042   3.867  2.0005  1.5163 -2.0399
   32MOL    H71 5713   4.370   1.926   3.775  1.2516  1.2057 -1.9690
   32MOL    H72 5714   4.468   1.860   3.901  0.9688  1.6706  1.9586
   32MOL    H73 5715   4.403   2.028   3.909 -1.0125  0.7673 -1.7957
   32MOL    C74 5716   4.665   1.879   3.733  0.2080 -0.2108  0.2860
   32MOL    C75 5717   4.800   1.862   3.805  0.0043  0.0581 -0.3210
   32MOL    C76 5718   4.766   1.809   3.942  0.5368 -0.0656  0.3145
   32MOL    H77 5719   4.603   1.789   3.737 -0.4884  0.3360  2.9735
   32MOL    H78 5720   4.677   1.906   3.628 -0.2374  0.3708  0.3746
   32MOL    H79 5721   4.858   1.954   3.813  1.1891 -0.3256 -3.5882
   32MOL    H80 5722   4.742   1.703   3.931  0.8625 -0.0896 -0.1935
   32MOL    H81 5723   4.851   1.812   4.010  0.9571  0.8576 -0.2427
   32MOL    H82 5724   4.691   1.862   4.000  1.2152  0.0544  1.0779
   32MOL    C83 5725   4.896   1.770   3.735  0.1267 -0.3659  0.4801
   32MOL    C84 5726   5.042   1.760   3.791  0.1775 -0.1811  0.4064
   32MOL    C85 5727   5.114   1.633   3.742  0.0333 -0.1033  0.1245
   32MOL    H86 5728   4.853   1.670   3.724  0.2466 -0.6133  2.1460
   32MOL    H87 5729   4.908   1.798   3.630  0.5948 -0.8705  0.3954
   32MOL    H88 5730   5.036   1.755   3.900 -2.6233 -1.5876  0.2369
   32MOL    H89 5731   5.061   1.541   3.768 -0.3339 -0.0655 -0.4863
   32MOL    H90 5732   5.132   1.629   3.635 -1.3811  0.9035 -0.1706
   32MOL    H91 5733   5.215   1.634   3.782  0.7252 -0.0633 -1.5783
   32MOL    C92 5734   5.121   1.892   3.760  0.0651 -0.0185 -0.6872
   32MOL    C93 5735   5.261   1.926   3.820  0.0650  0.0957  0.1088
   32MOL    C94 5736   5.319   2.051   3.757  0.0812 -0.5789  0.3351
   32MOL    H95 5737   5.125   1.876   3.652  2.1886 -0.3713 -0.5783
   32MOL    H96 5738   5.054   1.975   3.780 -0.2873 -0.3315 -0.5569
   32MOL    H97 5739   5.326   1.839   3.804 -1.2294 -0.8492 -0.1181
   32MOL    H98 5740   5.314   2.051   3.648 -0.1893 -0.1571  0.3460
   32MOL    H99 5741   5.280   2.140   3.806 -0.7111  1.4869 -3.8351
   32MOL   H100 5742   5.426   2.057   3.774  0.6292  1.9290 -3.3975
   32MOL   C101 5743   5.261   1.942   3.974 -0.1281 -0.3288 -0.3145
   32MOL   C102 5744   5.302   1.823   4.070  0.6536 -0.0839  0.1090
   32MOL   C103 5745   5.449   1.787   4.057  0.1495 -0.2287  0.1958
   32MOL   H104 5746   5.329   2.021   4.004 -0.3750  0.0592 -0.7687
   32MOL   H105 5747   5.159   1.978   3.988 -0.4362 -0.8162 -1.1993
   32MOL   H106 5748   5.241   1.740   4.033 -0.6377  1.1669 -0.6496
   32MOL   H107 5749   5.477   1.781   3.952  2.1170 -2.6406  0.8222
   32MOL   H108 5750   5.521   1.861   4.092  0.7762  0.1323 -1.8368
   32MOL   H109 5751   5.469   1.696   4.113  0.9364  1.3939  2.6630
   32MOL   C110 5752   5.257   1.848   4.215  0.2506 -0.4305  0.3833
   32MOL   C111 5753   5.111   1.828   4.258  0.4919  0.0515 -0.1309
   32MOL   C112 5754   5.088   1.682   4.306 -0.0729 -0.7073 -0.3272
   32MOL   H113 5755   5.318   1.781   4.276  1.2847  1.7455  1.8132
   32MOL   H114 5756   5.283   1.950   4.245  0.4234 -0.6292  0.9215
   32MOL   H115 5757   5.047   1.832   4.170 -3.0508 -0.4077  2.3288
   32MOL   H116 5758   5.157   1.664   4.389  2.0902  2.4509 -1.3559
   32MOL   H117 5759   4.990   1.661   4.351 -0.4274  1.2044 -0.1698
   32MOL   H118 5760   5.117   1.610   4.230 -0.6860 -0.5101 -0.7534
   32MOL   C119 5761   5.059   1.934   4.361 -0.3260  0.4012  0.3444
   32MOL   C120 5762   4.924   2.002   4.327  1.1550  1.2627 -0.5818
   32MOL   C121 5763   4.942   2.086   4.194  0.2568 -0.4342  0.3237
   32MOL   H122 5764   5.043   1.897   4.463 -1.8471 -0.6687 -0.2684
   32MOL   H123 5765   5.126   2.019   4.379 -0.8134  0.5564  1.5036
   32MOL   H124 5766   4.917   2.082   4.401  1.5375  1.3024 -0.5861
   32MOL   H125 5767   5.038   2.138   4.194  0.8218 -1.4538  0.9530
   32MOL   H126 5768   4.943   2.030   4.100  0.8202  1.0336 -0.5618
   32MOL   H127 5769   4.879   2.175   4.183  0.9242  0.1047  0.8478
   32MOL   C128 5770   4.806   1.915   4.329 -0.0044  0.7119 -0.8264
   32MOL   C129 5771   4.669   1.987   4.301 -0.1005 -0.2138 -0.7889
   32MOL   C130 5772   4.563   1.880   4.278 -0.3728 -0.0688 -0.6897
   32MOL   H131 5773   4.834   1.837   4.258  2.7350 -0.3565  1.3350
   32MOL   H132 5774   4.802   1.877   4.431 -0.5887  1.2413 -0.6486
   32MOL   H133 5775   4.690   2.035   4.205  0.0524 -2.2873 -1.8143
   32MOL   H134 5776   4.463   1.917   4.255 -1.2065 -1.6263  0.3378
   32MOL   H135 5777   4.594   1.806   4.205 -0.8344 -2.2653  1.2877
   32MOL   H136 5778   4.556   1.820   4.368  0.8621 -0.0168 -0.5566
   32MOL   C137 5779   4.626   2.096   4.407  0.2637 -0.8243  0.1015
   32MOL   C138 5780   4.495   2.178   4.380  0.6868  0.3413 -0.3067
   32MOL   C139 5781   4.495   2.273   4.498 -0.1950  0.1612  0.0866
   32MOL   H140 5782   4.612   2.037   4.497  0.4905 -2.4026 -0.8613
   32MOL   H141 5783   4.708   2.166   4.424 -0.8628  1.0283 -1.7629
   32MOL   H142 5784   4.412   2.108   4.390  0.6363  0.5221  0.6148
   32MOL   H143 5785   4.400   2.327   4.502 -0.2740 -0.0640  1.3824
   32MOL   H144 5786   4.507   2.226   4.596 -0.3347  1.6998  0.8607
   32MOL   H145 5787   4.574   2.347   4.493 -0.6380  0.7943  1.9921
   32MOL   C146 5788   4.489   2.253   4.253 -0.5979  0.2185  0.4324
   32MOL   C147 5789   4.350   2.307   4.215  0.4407  0.8783 -0.1697
   32MOL   C148 5790   4.369   2.436   4.129 -0.5180 -0.1258  0.2934
   32MOL   H149 5791   4.558   2.338   4.253  0.9670 -0.9489  3.3136
   32MOL   H150 5792   4.524   2.192   4.169 -0.5361  0.8116  0.0240
   32MOL   H151 5793   4.296   2.342   4.303 -1.9587 -0.3593 -1.1044
   32MOL   H152 5794   4.400   2.517   4.194  1.4249 -1.3506  0.9274
   32MOL   H153 5795   4.428   2.423   4.039 -0.0017 -1.6391  0.8331
   32MOL   H154 5796   4.273   2.474   4.093  0.2384  0.7792 -0.7857
   32MOL   C155 5797   4.268   2.197   4.152  0.0786  0.0260  0.4254
   32MOL   C156 5798   4.123   2.180   4.211 -0.5741  0.0781 -0.2883
   32MOL   C157 5799   4.043   2.312   4.196 -0.1118  0.5309 -0.0951
   32MOL   H158 5800   4.265   2.207   4.044 -0.3392 -2.7944  0.1382
   32MOL   H159 5801   4.325   2.105   4.151 -0.3672 -0.2593  1.0773
   32MOL   H160 5802   4.120   2.151   4.316 -2.3372  0.4333 -0.2321
   32MOL   H161 5803   3.944   2.284   4.230 -0.2632  2.2418  0.9103
   32MOL   H162 5804   4.068   2.381   4.276 -0.6020 -0.9162  1.3396
   32MOL   H163 5805   4.037   2.360   4.099 -2.9938 -0.4805 -0.4448
   32MOL   C164 5806   4.057   2.075   4.115 -0.1734 -0.5371  0.1630
   32MOL   C165 5807   4.077   1.924   4.146 -0.2713 -0.4064 -0.3767
   32MOL   C166 5808   4.017   1.888   4.282 -0.3099  0.1233  0.0769
   32MOL   H167 5809   3.949   2.087   4.120 -0.0148  0.2144  2.2948
   32MOL   H168 5810   4.084   2.097   4.012  2.3768 -0.7009  0.7533
   32MOL   H169 5811   4.185   1.912   4.143 -0.3302 -0.8676 -0.8678
   32MOL   H170 5812   3.991   1.782   4.287 -1.5124  0.4116 -0.1086
   32MOL   H171 5813   4.085   1.917   4.363 -0.0585 -1.6342  0.5208
   32MOL   H172 5814   3.927   1.939   4.316 -0.2223  0.0977  0.3564
   32MOL   C173 5815   4.020   1.831   4.040  0.6098 -0.0853  0.1128
   32MOL   C174 5816   4.097   1.697   4.031 -0.7182 -0.0864  0.6129
   32MOL   C175 5817   4.062   1.622   3.904  0.7926 -0.2252 -0.2018
   32MOL   H176 5818   3.911   1.826   4.043  0.3991  2.9849 -1.1371
   32MOL   H177 5819   4.037   1.876   3.942 -4.0013  1.7097  0.0134
   32MOL   H178 5820   4.085   1.629   4.116 -0.4597 -0.5584  0.2732
   32MOL   H179 5821   4.113   1.527   3.893 -3.1675 -2.0914 -4.3720
   32MOL   H180 5822   3.959   1.585   3.904  1.6826 -2.8303  0.1915
   32MOL   H181 5823   4.075   1.690   3.820  2.0404  0.1578  0.2981
   32MOL   H182 5824   4.204   1.718   4.024 -1.0827  1.8090  0.5829
   33MOL     C1 5825   2.870   6.530   7.494 -0.0196  0.2912 -0.0281
   33MOL     C2 5826   2.839   6.430   7.381 -0.3800 -0.1527  0.2724
   33MOL     C3 5827   2.959   6.405   7.294  0.0728 -0.6443  0.3353
   33MOL     H4 5828   2.907   6.626   7.459 -1.2247  0.3341 -1.1978
   33MOL     H5 5829   2.938   6.504   7.576  0.4484 -1.6654 -1.0162
   33MOL     H6 5830   2.762   6.471   7.315  0.5924  0.7406 -0.3125
   33MOL     H7 5831   2.942   6.344   7.205 -1.4313 -0.4732  0.5001
   33MOL     H8 5832   2.995   6.501   7.256 -0.9570 -0.8404 -1.1567
   33MOL     H9 5833   3.041   6.357   7.348 -0.2699 -1.0484  0.4944
   33MOL    H10 5834   2.775   6.554   7.542  0.7021  0.5572  1.2990
   33MOL    C11 5835   2.791   6.294   7.441  0.3126 -0.4781  0.1493
   33MOL    C12 5836   2.717   6.208   7.331  0.1018 -0.0669  0.1706
   33MOL    C13 5837   2.725   6.054   7.365  0.1294 -0.3906  0.0901
   33MOL    H14 5838   2.883   6.240   7.463  1.9165  2.5310  1.0021
   33MOL    H15 5839   2.742   6.293   7.538  1.9814  2.0289  1.0628
   33MOL    H16 5840   2.785   6.215   7.245 -2.7384  2.4565 -1.9753
   33MOL    H17 5841   2.644   6.036   7.436 -1.0717  0.8824 -0.9273
   33MOL    H18 5842   2.698   5.989   7.282  0.8014 -0.2121 -0.2683
   33MOL    H19 5843   2.825   6.025   7.396 -0.0589  1.1687  2.2794
   33MOL    C20 5844   2.587   6.263   7.274 -0.1537 -0.0688 -0.1300
   33MOL    C21 5845   2.526   6.181   7.163 -0.2740 -0.6082 -0.5570
   33MOL    C22 5846   2.382   6.126   7.205  0.6321 -0.3146  0.0727
   33MOL    H23 5847   2.526   6.267   7.364 -0.6963 -1.3376 -0.4263
   33MOL    H24 5848   2.598   6.364   7.235 -1.1586  0.3464  0.6604
   33MOL    H25 5849   2.586   6.092   7.142 -0.9910 -0.9353 -1.2166
   33MOL    H26 5850   2.388   6.054   7.287 -0.8028  1.0140  1.3777
   33MOL    H27 5851   2.320   6.212   7.229  2.1903  1.2110 -1.1911
   33MOL    H28 5852   2.340   6.069   7.122 -0.6646 -1.1490  1.2792
   33MOL    C29 5853   2.512   6.265   7.032 -0.3941 -0.3120 -0.5149
   33MOL    C30 5854   2.473   6.178   6.916  0.8317  0.4073 -0.3704
   33MOL    C31 5855   2.337   6.230   6.858 -0.5304  0.2442  0.3095
   33MOL    H32 5856   2.451   6.354   7.048 -0.5691 -0.5731  0.2582
   33MOL    H33 5857   2.609   6.310   7.010 -0.6163  0.5607  0.2729
   33MOL    H34 5858   2.461   6.077   6.955  0.5225  0.1944 -1.0099
   33MOL    H35 5859   2.343   6.338   6.843 -2.0671  0.0787 -1.6620
   33MOL    H36 5860   2.302   6.186   6.764 -2.6810  0.0775  1.1589
   33MOL    H37 5861   2.267   6.208   6.939  1.8830 -2.3849  1.7871
   33MOL    C38 5862   2.581   6.169   6.807 -0.6022 -0.4140 -0.7359
   33MOL    C39 5863   2.717   6.108   6.849 -0.3467 -0.8046  0.2162
   33MOL    C40 5864   2.714   5.953   6.854  0.0780  0.6064 -0.1114
   33MOL    H41 5865   2.545   6.129   6.712  0.5603 -0.8439 -1.0167
   33MOL    H42 5866   2.599   6.274   6.787  1.9225 -0.4875  0.9603
   33MOL    H43 5867   2.732   6.136   6.953 -0.7895 -1.8446  0.5691
   33MOL    H44 5868   2.656   5.921   6.940 -0.6028  1.0644 -0.3937
   33MOL    H45 5869   2.667   5.904   6.769 -0.6268  1.4611 -0.2201
   33MOL    H46 5870   2.815   5.915   6.870 -0.1115  0.6330  1.1883
   33MOL    C47 5871   2.834   6.153   6.752  0.1548 -0.4926  0.3983
   33MOL    C48 5872   2.881   6.299   6.769  0.5338 -0.2427  0.6411
   33MOL    C49 5873   2.944   6.331   6.896 -0.7837  0.0632 -0.5480
   33MOL    H50 5874   2.926   6.095   6.752 -0.9682 -2.4118  3.4044
   33MOL    H51 5875   2.793   6.130   6.654  1.3153  0.3137 -0.2806
   33MOL    H52 5876   2.794   6.362   6.786  1.6065  0.6060  3.3302
   33MOL    H53 5877   2.989   6.430   6.890  0.1283 -0.4132 -1.7044
   33MOL    H54 5878   2.886   6.312   6.986  2.0328  0.2346  1.4000
   33MOL    H55 5879   3.030   6.264   6.907 -1.6191 -0.8528  0.4326
   33MOL    C56 5880   2.970   6.360   6.653  0.6155 -0.2673  0.4456
   33MOL    C57 5881   2.890   6.377   6.524  0.3617 -0.2925  0.7398
   33MOL    C58 5882   2.826   6.526   6.527  0.5727 -1.1236  0.0008
   33MOL    H59 5883   3.025   6.452   6.675  1.1973 -0.2415 -1.1182
   33MOL    H60 5884   3.056   6.296   6.635  0.5843 -0.1853  0.0147
   33MOL    H61 5885   2.812   6.302   6.516 -0.2545  0.2325  1.6982
   33MOL    H62 5886   2.761   6.533   6.614  1.0744 -2.4964  0.5074
   33MOL    H63 5887   2.898   6.607   6.516 -0.8453  0.5495  2.4819
   33MOL    H64 5888   2.761   6.534   6.440 -0.0543  0.4865  0.6171
   33MOL    C65 5889   2.979   6.381   6.393  0.6711 -0.1289 -0.3658
   33MOL    C66 5890   3.071   6.258   6.356 -0.0301  0.7641  0.3286
   33MOL    C67 5891   2.980   6.132   6.348 -0.0807 -0.2929 -0.0774
   33MOL    H68 5892   2.907   6.393   6.312  1.0222 -0.2390 -0.7024
   33MOL    H69 5893   3.039   6.473   6.387  0.8916 -0.0598  2.6028
   33MOL    H70 5894   3.151   6.259   6.429 -1.2892  0.5932  1.7377
   33MOL    H71 5895   2.904   6.141   6.270  1.0851 -0.1800 -1.2103
   33MOL    H72 5896   3.042   6.044   6.326 -0.5788 -0.4105 -1.0305
   33MOL    H73 5897   2.923   6.116   6.440 -1.3820  0.2685 -0.7717
   33MOL    C74 5898   3.141   6.273   6.220 -0.5387 -0.1214 -0.1940
   33MOL    C75 5899   3.262   6.184   6.188  0.2657 -1.0269 -0.1024
   33MOL    C76 5900   3.290   6.200   6.039 -0.4001 -0.1109  0.0834
   33MOL    H77 5901   3.057   6.261   6.152 -1.8321 -1.0933  1.5497
   33MOL    H78 5902   3.170   6.378   6.218  1.5366 -0.6297  1.1978
   33MOL    H79 5903   3.223   6.083   6.205 -1.5291 -0.0275  1.8978
   33MOL    H80 5904   3.370   6.127   6.024  0.9654  1.0474  1.5951
   33MOL    H81 5905   3.202   6.176   5.980  0.1597  0.0450 -0.8224
   33MOL    H82 5906   3.326   6.299   6.010 -2.0615 -0.0376 -1.7683
   33MOL    C83 5907   3.385   6.203   6.282  0.0552 -0.6241 -0.0770
   33MOL    C84 5908   3.525   6.135   6.249 -0.0772  0.0281  0.0424
   33MOL    C85 5909   3.637   6.172   6.346 -0.2137 -0.1027 -0.1447
   33MOL    H86 5910   3.387   6.311   6.285 -2.5086 -0.5195 -0.6332
   33MOL    H87 5911   3.357   6.167   6.381  2.0873 -0.3311  0.6250
   33MOL    H88 5912   3.556   6.173   6.152  1.1966  0.1112  0.4764
   33MOL    H89 5913   3.734   6.134   6.315 -0.3437  0.5735 -1.4216
   33MOL    H90 5914   3.637   6.281   6.350  1.1154 -0.1670  2.2190
   33MOL    H91 5915   3.624   6.132   6.446 -1.1865 -0.3930 -0.3719
   33MOL    C92 5916   3.504   5.986   6.223  0.1624 -0.5881  0.0074
   33MOL    C93 5917   3.631   5.909   6.166 -0.0660 -0.4828 -0.1183
   33MOL    C94 5918   3.582   5.763   6.158 -0.2354 -0.1632 -0.4906
   33MOL    H95 5919   3.470   5.943   6.317 -0.5463  0.4905  0.2405
   33MOL    H96 5920   3.423   5.958   6.156 -0.4111 -0.1540  0.5165
   33MOL    H97 5921   3.715   5.906   6.236 -0.4718  0.3187  0.4023
   33MOL    H98 5922   3.662   5.689   6.159  0.3830  0.4945  1.8286
   33MOL    H99 5923   3.520   5.735   6.243  0.0667  1.8191  0.3942
   33MOL   H100 5924   3.525   5.756   6.065 -1.1271  0.6534 -0.0055
   33MOL   C101 5925   3.693   5.955   6.036 -0.0956  0.4539  0.1595
   33MOL   C102 5926   3.835   5.900   5.993 -0.5662  0.3319  0.6457
   33MOL   C103 5927   3.845   5.910   5.837 -0.8289 -0.2742 -0.5443
   33MOL   H104 5928   3.625   5.933   5.953 -1.1551  1.9570  0.6112
   33MOL   H105 5929   3.698   6.064   6.033  0.0104  0.5435  2.9962
   33MOL   H106 5930   3.835   5.794   6.019 -0.4120  0.0926 -0.3044
   33MOL   H107 5931   3.759   5.853   5.802 -1.2708 -0.1427  0.2899
   33MOL   H108 5932   3.839   6.012   5.799  0.6707 -0.5604 -1.5529
   33MOL   H109 5933   3.929   5.858   5.794 -0.6146 -0.8327  0.5275
   33MOL   C110 5934   3.951   5.961   6.079 -0.3417  0.4845 -0.6343
   33MOL   C111 5935   4.091   5.907   6.053 -0.4093  0.2178  0.1613
   33MOL   C112 5936   4.192   5.990   6.126  0.1525 -0.2632  0.1899
   33MOL   H113 5937   3.950   6.069   6.068  0.6826  0.6901  1.2224
   33MOL   H114 5938   3.933   5.942   6.185 -2.9474 -0.4508 -1.1904
   33MOL   H115 5939   4.114   5.924   5.947  0.9603  1.7323  0.6866
   33MOL   H116 5940   4.183   6.097   6.106  3.3372 -0.0112 -0.2620
   33MOL   H117 5941   4.179   5.976   6.233  0.1798 -0.5497  0.1561
   33MOL   H118 5942   4.295   5.985   6.090  0.5265  3.1156  0.6120
   33MOL   C119 5943   4.097   5.749   6.085  0.3850 -0.4505  0.6297
   33MOL   C120 5944   4.226   5.686   6.051 -0.4938  0.3584  0.2536
   33MOL   C121 5945   4.228   5.553   6.124  0.3869 -0.0411  0.5762
   33MOL   H122 5946   4.084   5.749   6.193  2.5356 -1.8099  0.9182
   33MOL   H123 5947   4.010   5.706   6.037 -0.3783  0.9865  0.6860
   33MOL   H124 5948   4.308   5.742   6.096 -0.2890  0.8463 -0.7161
   33MOL   H125 5949   4.329   5.513   6.130  0.4932  0.3445  1.4811
   33MOL   H126 5950   4.199   5.565   6.228 -0.3400  1.2467  0.2376
   33MOL   H127 5951   4.156   5.481   6.085 -0.1294  0.7665  0.0068
   33MOL   C128 5952   4.259   5.674   5.900 -0.0884  0.8254 -0.0399
   33MOL   C129 5953   4.401   5.618   5.865  0.2818  0.3280  0.8716
   33MOL   C130 5954   4.408   5.569   5.720 -0.4701  0.3045  0.3710
   33MOL   H131 5955   4.191   5.605   5.850  0.5634  1.6836 -2.1561
   33MOL   H132 5956   4.255   5.768   5.846  0.2914 -0.0067 -1.5802
   33MOL   H133 5957   4.420   5.535   5.932  2.2595  1.1881  1.4150
   33MOL   H134 5958   4.506   5.532   5.693 -0.8093  0.1866 -0.7115
   33MOL   H135 5959   4.340   5.485   5.708  0.3166 -0.1452 -0.9270
   33MOL   H136 5960   4.378   5.653   5.657 -2.0667 -0.4075  0.1419
   33MOL   C137 5961   4.507   5.726   5.877  0.0713  0.5020 -0.2065
   33MOL   C138 5962   4.658   5.670   5.915 -0.4183  0.1016 -0.1025
   33MOL   C139 5963   4.756   5.793   5.892 -0.2890 -0.7991 -0.0522
   33MOL   H140 5964   4.511   5.788   5.787 -2.2804  0.6733 -0.2399
   33MOL   H141 5965   4.484   5.790   5.962  0.5289  1.3837 -0.7397
   33MOL   H142 5966   4.681   5.585   5.851 -1.6116 -3.1597  3.5371
   33MOL   H143 5967   4.730   5.879   5.954 -1.2857  1.4350 -3.3755
   33MOL   H144 5968   4.858   5.763   5.913 -0.0852 -0.8085 -1.0367
   33MOL   H145 5969   4.756   5.825   5.787 -0.5181  1.3694  0.5717
   33MOL   C146 5970   4.666   5.616   6.063 -0.0044  0.0307  0.5842
   33MOL   C147 5971   4.798   5.541   6.104 -0.0525 -0.4709 -0.4042
   33MOL   C148 5972   4.860   5.599   6.233  0.0288 -0.4639 -0.2361
   33MOL   H149 5973   4.660   5.704   6.127  2.0075  1.0716 -0.6217
   33MOL   H150 5974   4.584   5.553   6.097  1.2350 -0.2630  3.1026
   33MOL   H151 5975   4.876   5.565   6.031  1.1711  0.4913  1.1721
   33MOL   H152 5976   4.870   5.707   6.230 -0.3770 -0.3082  2.9012
   33MOL   H153 5977   4.801   5.565   6.318 -1.2038  1.7001 -0.1902
   33MOL   H154 5978   4.960   5.556   6.237  0.0353 -0.3809  0.6334
   33MOL   C155 5979   4.782   5.382   6.118 -0.3241 -0.3401 -0.1986
   33MOL   C156 5980   4.752   5.300   5.992  0.2519 -0.1492 -0.0739
   33MOL   C157 5981   4.855   5.323   5.881  0.2535 -0.1700 -0.2990
   33MOL   H158 5982   4.874   5.340   6.158  0.5525  2.8248  1.2793
   33MOL   H159 5983   4.701   5.356   6.186 -0.2284 -1.7668 -0.6170
   33MOL   H160 5984   4.664   5.339   5.942  0.5892 -0.5197 -0.9757
   33MOL   H161 5985   4.828   5.270   5.790 -1.0447  1.4491 -0.8937
   33MOL   H162 5986   4.866   5.428   5.855 -0.2766 -0.2211 -0.7282
   33MOL   H163 5987   4.958   5.302   5.910  0.7527  2.1546 -0.2499
   33MOL   C164 5988   4.736   5.150   6.020 -0.2017  0.1419  0.5440
   33MOL   C165 5989   4.607   5.086   5.971  0.9200 -0.2905 -0.3581
   33MOL   C166 5990   4.481   5.141   6.039 -0.0947  0.0311  0.0500
   33MOL   H167 5991   4.818   5.095   5.974 -0.8702 -1.2303  0.9690
   33MOL   H168 5992   4.764   5.122   6.121  1.3477 -1.1154 -0.2068
   33MOL   H169 5993   4.611   4.984   6.010  2.7531 -0.5785 -1.2476
   33MOL   H170 5994   4.490   5.119   6.146  2.8176 -0.3843 -0.2296
   33MOL   H171 5995   4.456   5.247   6.042 -1.5286 -0.3435  2.1290
   33MOL   H172 5996   4.399   5.075   6.011  1.8602 -2.3283 -0.3675
   33MOL   C173 5997   4.607   5.081   5.821  0.5887  0.0688  0.1772
   33MOL   C174 5998   4.514   4.977   5.752  0.3133  0.2892  0.2109
   33MOL   C175 5999   4.461   4.995   5.609  0.0736 -0.8753 -0.4691
   33MOL   H176 6000   4.586   5.183   5.789 -0.1643 -0.1212  0.0578
   33MOL   H177 6001   4.704   5.060   5.775 -0.0832 -1.4066 -0.5956
   33MOL   H178 6002   4.426   4.966   5.816  1.0699  0.5749  1.3147
   33MOL   H179 6003   4.377   5.065   5.612  0.1159 -0.8118 -0.8353
   33MOL   H180 6004   4.534   5.040   5.542  2.8223 -2.3893  1.3901
   33MOL   H181 6005   4.433   4.896   5.572  1.0193 -1.6768  0.9385
   33MOL   H182 6006   4.563   4.880   5.762  1.1750  1.0176  3.4537
   34MOL     C1 6007   6.412   3.746   5.392 -0.2576 -0.5009 -0.4358
   34MOL     C2 6008   6.545   3.831   5.409 -0.0279 -0.2008  0.2555
   34MOL     C3 6009   6.662   3.735   5.419 -0.5008  0.2257 -0.0680
   34MOL     H4 6010   6.322   3.792   5.353  0.2086  0.7325 -0.0616
   34MOL     H5 6011   6.390   3.685   5.479 -1.2460 -1.7294 -1.5245
   34MOL     H6 6012   6.536   3.883   5.504 -0.3341  0.6665 -0.2386
   34MOL     H7 6013   6.665   3.679   5.513  1.1766  0.5651  0.0924
   34MOL     H8 6014   6.691   3.664   5.341  1.3426 -0.9724  1.6399
   34MOL     H9 6015   6.751   3.798   5.420 -0.1059 -0.2705 -2.5002
   34MOL    H10 6016   6.432   3.670   5.316 -0.4201 -0.8412 -0.1384
   34MOL    C11 6017   6.570   3.929   5.293  0.3576 -1.0625 -0.8349
   34MOL    C12 6018   6.546   4.075   5.336 -0.0243 -0.4570  0.1595
   34MOL    C13 6019   6.595   4.167   5.222  0.1929  0.2692 -1.0497
   34MOL    H14 6020   6.670   3.906   5.255  0.4478  0.2886 -1.4249
   34MOL    H15 6021   6.500   3.912   5.211 -0.4935  1.2890 -0.6093
   34MOL    H16 6022   6.619   4.085   5.417  0.8090  1.2459 -0.7764
   34MOL    H17 6023   6.554   4.134   5.126  2.3562  1.6809 -2.5091
   34MOL    H18 6024   6.563   4.269   5.243 -1.5946 -0.6732  0.9828
   34MOL    H19 6025   6.703   4.176   5.217  0.4277 -0.6084  1.6804
   34MOL    C20 6026   6.399   4.104   5.380 -0.4906  0.1279 -0.5011
   34MOL    C21 6027   6.361   4.246   5.424  0.4082 -0.3912  0.5694
   34MOL    C22 6028   6.224   4.234   5.488  0.2926 -0.6018  0.6260
   34MOL    H23 6029   6.328   4.068   5.305 -0.9357 -1.1687  0.5265
   34MOL    H24 6030   6.373   4.033   5.458  2.2110 -2.2775 -1.6863
   34MOL    H25 6031   6.349   4.312   5.338 -2.3632 -0.0480  1.1477
   34MOL    H26 6032   6.234   4.201   5.592 -0.6104  0.7720  1.1728
   34MOL    H27 6033   6.172   4.329   5.474  1.3862 -0.2971 -1.5836
   34MOL    H28 6034   6.156   4.160   5.447  0.4542  0.7345 -2.1271
   34MOL    C29 6035   6.466   4.306   5.517 -0.0516 -0.1117  0.0770
   34MOL    C30 6036   6.443   4.453   5.560  0.0809  0.2038 -0.1793
   34MOL    C31 6037   6.533   4.490   5.681  0.4527 -0.4840  1.0050
   34MOL    H32 6038   6.464   4.244   5.606 -0.9325  2.1778  1.7221
   34MOL    H33 6039   6.569   4.299   5.483  0.0047  1.0420 -0.0110
   34MOL    H34 6040   6.337   4.455   5.589  0.3980  0.4412  0.9938
   34MOL    H35 6041   6.486   4.467   5.776 -1.2946  3.1344  1.1138
   34MOL    H36 6042   6.638   4.465   5.665 -0.0495 -1.7433 -0.4209
   34MOL    H37 6043   6.529   4.599   5.672 -1.2480 -0.5269  0.9924
   34MOL    C38 6044   6.475   4.549   5.447 -0.2684  0.0636 -0.6111
   34MOL    C39 6045   6.416   4.690   5.466 -0.0878 -0.3737 -0.7608
   34MOL    C40 6046   6.525   4.802   5.460  0.0322  0.0034 -0.6044
   34MOL    H41 6047   6.582   4.558   5.429  0.0287  0.8876  1.3242
   34MOL    H42 6048   6.443   4.510   5.351  0.6825  1.6143 -1.5713
   34MOL    H43 6049   6.371   4.687   5.566 -0.4526 -1.2143 -0.9497
   34MOL    H44 6050   6.560   4.824   5.359  0.0967 -2.2858 -1.0936
   34MOL    H45 6051   6.484   4.892   5.508  1.3081  0.1028  0.3402
   34MOL    H46 6052   6.607   4.779   5.528 -0.8754 -2.0943 -0.1895
   34MOL    C47 6053   6.311   4.714   5.361  0.4695 -0.0490  0.6160
   34MOL    C48 6054   6.180   4.786   5.404 -0.1011  0.5364  0.6618
   34MOL    C49 6055   6.209   4.922   5.470 -0.1104  0.4134 -0.0924
   34MOL    H50 6056   6.343   4.771   5.274 -0.4174 -1.5052 -0.6906
   34MOL    H51 6057   6.266   4.619   5.329  1.3973  0.1634 -1.4101
   34MOL    H52 6058   6.141   4.718   5.479  0.5135  1.0546  1.4685
   34MOL    H53 6059   6.247   4.903   5.570 -0.3378  0.8162  0.0741
   34MOL    H54 6060   6.287   4.978   5.418 -0.2122  0.3047 -0.3607
   34MOL    H55 6061   6.121   4.987   5.480 -0.8602 -1.0836  3.7734
   34MOL    C56 6062   6.080   4.816   5.290  0.4760  0.1109 -0.2819
   34MOL    C57 6063   6.019   4.698   5.218  0.0990 -0.5159  0.6424
   34MOL    C58 6064   5.935   4.607   5.305 -0.2451  0.3395  0.5160
   34MOL    H59 6065   5.998   4.877   5.328  0.8191  0.3139  0.1422
   34MOL    H60 6066   6.140   4.876   5.222  0.8201 -1.2213 -1.1651
   34MOL    H61 6067   6.098   4.626   5.195 -0.5493 -0.6607 -1.2618
   34MOL    H62 6068   5.879   4.534   5.247  1.3926 -0.0397 -0.6123
   34MOL    H63 6069   5.989   4.547   5.379  0.9054 -1.4433 -1.7039
   34MOL    H64 6070   5.861   4.669   5.355 -1.0350 -0.1666 -0.0142
   34MOL    C65 6071   5.945   4.729   5.088 -0.5442  0.4067  0.9837
   34MOL    C66 6072   6.028   4.786   4.967 -0.2188 -0.2789 -0.4426
   34MOL    C67 6073   6.165   4.728   4.959 -0.3039 -0.1823  0.3225
   34MOL    H68 6074   5.888   4.641   5.058 -0.9683  0.7310  0.8236
   34MOL    H69 6075   5.861   4.796   5.110 -1.1401  0.3369 -0.9277
   34MOL    H70 6076   6.036   4.892   4.993 -0.1130 -0.1468 -0.9965
   34MOL    H71 6077   6.233   4.766   4.883  0.9687 -0.7539  1.1316
   34MOL    H72 6078   6.218   4.737   5.054  0.3668  1.5197 -0.2019
   34MOL    H73 6079   6.160   4.620   4.940 -0.5692 -0.4877  2.0267
   34MOL    C74 6080   5.951   4.783   4.836  0.5318  0.1352  0.3607
   34MOL    C75 6081   5.813   4.849   4.822  0.5508  0.7075 -0.2136
   34MOL    C76 6082   5.821   5.002   4.839  0.4197 -0.1599  0.2802
   34MOL    H77 6083   6.027   4.824   4.768 -0.7611 -0.8594 -1.7509
   34MOL    H78 6084   5.944   4.677   4.812 -0.3681  0.6045 -1.5563
   34MOL    H79 6085   5.750   4.809   4.902 -0.1325 -1.6390 -1.8871
   34MOL    H80 6086   5.879   5.049   4.759  1.9999 -1.8483  0.4006
   34MOL    H81 6087   5.723   5.049   4.848  1.1950  1.7666 -1.0156
   34MOL    H82 6088   5.881   5.021   4.928  0.8642  1.7759 -0.3978
   34MOL    C83 6089   5.738   4.818   4.697  0.3879  1.0615  0.6295
   34MOL    C84 6090   5.583   4.854   4.686 -0.0123  0.6286  0.1319
   34MOL    C85 6091   5.539   4.827   4.536  0.2543 -0.6414 -0.4776
   34MOL    H86 6092   5.798   4.853   4.613  0.8384 -0.5777  0.2524
   34MOL    H87 6093   5.742   4.709   4.695  0.1003  1.0585 -1.6553
   34MOL    H88 6094   5.580   4.961   4.705 -2.8489  0.3894  1.3355
   34MOL    H89 6095   5.431   4.835   4.523 -0.2742  3.4245  4.6561
   34MOL    H90 6096   5.589   4.905   4.479  1.2722 -0.6794  0.3320
   34MOL    H91 6097   5.587   4.736   4.500 -0.7454 -0.7474 -1.5518
   34MOL    C92 6098   5.492   4.775   4.778 -1.4321  0.3708  0.4382
   34MOL    C93 6099   5.373   4.858   4.831  0.1465  0.1236 -0.0786
   34MOL    C94 6100   5.237   4.791   4.827  0.1778 -0.6281  0.7296
   34MOL    H95 6101   5.459   4.682   4.733  0.7305 -0.9706  1.5404
   34MOL    H96 6102   5.547   4.752   4.869 -2.3260 -1.4187  0.5514
   34MOL    H97 6103   5.360   4.923   4.745 -1.9904  0.1412  0.2101
   34MOL    H98 6104   5.185   4.756   4.738 -1.3163  0.5346  1.1396
   34MOL    H99 6105   5.236   4.699   4.886 -0.3424 -1.4746 -0.5614
   34MOL   H100 6106   5.163   4.868   4.849  1.5579  0.5484  1.3173
   34MOL   C101 6107   5.404   4.923   4.967  0.1778  0.8838 -0.0059
   34MOL   C102 6108   5.301   5.016   5.029 -0.1549 -0.3527 -0.2738
   34MOL   C103 6109   5.335   5.044   5.175 -0.3522 -0.2228  0.0923
   34MOL   H104 6110   5.419   4.844   5.040 -0.4297  0.4520 -0.3456
   34MOL   H105 6111   5.498   4.978   4.957  0.9584 -0.4699 -0.2476
   34MOL   H106 6112   5.208   4.959   5.036 -1.0912  1.0014 -1.3717
   34MOL   H107 6113   5.321   5.149   5.200  1.9833 -0.1414  1.1559
   34MOL   H108 6114   5.263   5.000   5.245 -0.0979 -0.7614  0.0130
   34MOL   H109 6115   5.439   5.028   5.204 -0.3215 -1.5726 -0.7337
   34MOL   C110 6116   5.263   5.147   4.948  0.2252 -0.5003 -0.2601
   34MOL   C111 6117   5.376   5.249   4.912  0.1953 -0.1597  0.1798
   34MOL   C112 6118   5.433   5.215   4.780  1.1041  0.0577 -0.3779
   34MOL   H113 6119   5.204   5.142   4.857 -0.2881  0.3288  0.0226
   34MOL   H114 6120   5.198   5.198   5.019  1.2712 -1.0843  1.1555
   34MOL   H115 6121   5.455   5.229   4.984  0.5161  2.4710  0.6315
   34MOL   H116 6122   5.368   5.216   4.692 -1.8377  2.7205  1.7124
   34MOL   H117 6123   5.522   5.275   4.761  0.2287  1.0005 -1.5889
   34MOL   H118 6124   5.460   5.110   4.774 -1.1371 -0.5650 -0.3348
   34MOL   C119 6125   5.339   5.399   4.925 -0.1649 -0.7919 -0.1501
   34MOL   C120 6126   5.449   5.502   4.897  0.4611  0.1701 -0.1397
   34MOL   C121 6127   5.376   5.638   4.880  0.4879 -0.2172  0.0008
   34MOL   H122 6128   5.268   5.430   4.848  0.0176  2.1392  0.8254
   34MOL   H123 6129   5.299   5.420   5.024  1.5018  0.4367  0.2717
   34MOL   H124 6130   5.492   5.478   4.800  1.0862  1.3768 -0.1700
   34MOL   H125 6131   5.326   5.628   4.784 -3.1336 -2.4051  1.9966
   34MOL   H126 6132   5.305   5.656   4.960 -2.7727 -1.3202 -2.5244
   34MOL   H127 6133   5.452   5.716   4.876  1.6266 -1.1450  2.5285
   34MOL   C128 6134   5.569   5.495   4.999 -0.1056  0.1485  0.5306
   34MOL   C129 6135   5.699   5.571   4.954 -0.2131 -0.2056 -0.2094
   34MOL   C130 6136   5.804   5.590   5.070  0.5874 -0.2880  1.0022
   34MOL   H131 6137   5.537   5.535   5.096 -1.2791  3.4056 -1.1215
   34MOL   H132 6138   5.594   5.389   5.010 -1.3009 -0.2649 -0.6378
   34MOL   H133 6139   5.678   5.677   4.937  2.0862  0.4777  0.8516
   34MOL   H134 6140   5.868   5.674   5.044 -0.7484  0.5495  0.3173
   34MOL   H135 6141   5.755   5.612   5.164  0.5216 -0.1770  0.9420
   34MOL   H136 6142   5.870   5.505   5.086  1.3008 -0.5579 -2.8159
   34MOL   C137 6143   5.765   5.513   4.823  0.0865  0.6008 -1.0420
   34MOL   C138 6144   5.876   5.596   4.755 -0.7586 -0.0555  0.0652
   34MOL   C139 6145   5.951   5.508   4.651 -0.0270 -0.1489 -0.2668
   34MOL   H140 6146   5.818   5.421   4.849 -0.1254  0.4043 -1.2968
   34MOL   H141 6147   5.700   5.470   4.747 -1.0161  1.0502 -0.3599
   34MOL   H142 6148   5.946   5.626   4.833  0.0665  1.5680 -1.2571
   34MOL   H143 6149   6.047   5.553   4.625 -0.8156  0.1109 -2.8312
   34MOL   H144 6150   5.954   5.401   4.675  2.4990 -0.0070  0.2681
   34MOL   H145 6151   5.893   5.500   4.560 -1.6917 -3.1018  0.9618
   34MOL   C146 6152   5.820   5.716   4.676 -0.1227 -0.2585  0.6536
   34MOL   C147 6153   5.925   5.814   4.606  0.1875  0.5606  0.4749
   34MOL   C148 6154   5.913   5.824   4.454  0.4052 -0.2328 -0.4533
   34MOL   H149 6155   5.764   5.676   4.591 -0.3372 -0.8547  1.0689
   34MOL   H150 6156   5.740   5.761   4.734 -1.2035 -1.6691  0.2971
   34MOL   H151 6157   6.021   5.772   4.635 -0.4510 -1.2094  0.0829
   34MOL   H152 6158   5.808   5.837   4.427  0.0196 -0.3180  0.9803
   34MOL   H153 6159   5.962   5.912   4.411  0.0456  0.4524  0.5138
   34MOL   H154 6160   5.944   5.734   4.401 -1.4673  0.1550 -2.2428
   34MOL   C155 6161   5.927   5.950   4.672 -0.3886  0.0529 -0.7028
   34MOL   C156 6162   5.956   5.947   4.823 -0.5528  0.8541  0.1131
   34MOL   C157 6163   6.105   5.929   4.841 -0.1560 -0.3235  0.2194
   34MOL   H158 6164   5.999   6.016   4.625  1.7808 -1.0737  0.9768
   34MOL   H159 6165   5.836   6.006   4.649  0.4433  1.4973 -0.5240
   34MOL   H160 6166   5.903   5.861   4.864  1.7927 -0.9055 -0.4818
   34MOL   H161 6167   6.129   5.938   4.947  1.6025  1.3540 -0.2994
   34MOL   H162 6168   6.146   5.835   4.805  1.2042 -0.0825  1.1048
   34MOL   H163 6169   6.161   6.012   4.799  0.3554  0.0980  1.6822
   34MOL   C164 6170   5.893   6.073   4.893  0.1668 -0.0501 -0.3594
   34MOL   C165 6171   5.829   6.047   5.033  0.0277  0.3172  0.4107
   34MOL   C166 6172   5.851   6.161   5.130  0.2960  0.9422  0.8249
   34MOL   H167 6173   5.951   6.165   4.882 -1.8102  1.1232 -1.2908
   34MOL   H168 6174   5.805   6.096   4.833 -0.5207 -1.8251 -0.0610
   34MOL   H169 6175   5.891   5.969   5.078 -0.7443  0.3016  1.4708
   34MOL   H170 6176   5.958   6.184   5.129  0.9758 -2.0524 -0.7748
   34MOL   H171 6177   5.797   6.250   5.098 -1.7302 -0.7017 -0.4429
   34MOL   H172 6178   5.827   6.142   5.235  1.6628  1.6283  1.2869
   34MOL   C173 6179   5.686   5.992   5.022  0.6702  0.5307 -0.8638
   34MOL   C174 6180   5.652   5.922   5.157 -0.4543 -0.0974 -0.0373
   34MOL   C175 6181   5.514   5.853   5.156 -0.5553 -0.1646  1.2341
   34MOL   H176 6182   5.622   6.080   5.011 -1.2052 -0.5258  1.1697
   34MOL   H177 6183   5.677   5.921   4.940  0.8289 -0.7771  0.2318
   34MOL   H178 6184   5.675   5.974   5.249 -1.8727 -0.1000  0.3263
   34MOL   H179 6185   5.445   5.932   5.123  0.3210  0.8850  1.8898
   34MOL   H180 6186   5.520   5.772   5.083  3.5575 -0.0093  1.3339
   34MOL   H181 6187   5.474   5.832   5.255  1.0421  2.4537  2.4799
   34MOL   H182 6188   5.711   5.831   5.171 -1.0554 -0.1442  2.4951
   35MOL     C1 6189   4.882   0.442   1.586  0.6741 -0.1275 -0.7148
   35MOL     C2 6190   4.908   0.294   1.547 -0.3752  0.1416  0.5462
   35MOL     C3 6191   5.010   0.232   1.644 -1.0649  0.0116 -0.1715
   35MOL     H4 6192   4.966   0.484   1.642 -0.3429  1.1546 -0.1473
   35MOL     H5 6193   4.795   0.444   1.651  1.1735  0.2679 -0.0577
   35MOL     H6 6194   4.964   0.287   1.454 -0.6964  2.3475  0.1492
   35MOL     H7 6195   4.971   0.250   1.744  0.6324 -0.2540  0.5651
   35MOL     H8 6196   5.015   0.124   1.628  1.1465  0.2878 -1.6271
   35MOL     H9 6197   5.109   0.276   1.637 -1.0469  0.4322  2.1895
   35MOL    H10 6198   4.852   0.501   1.499  1.0753  0.9128 -0.1558
   35MOL    C11 6199   4.776   0.209   1.523 -0.7846  0.2239 -0.4209
   35MOL    C12 6200   4.690   0.252   1.404 -0.4576 -0.4486 -0.0240
   35MOL    C13 6201   4.733   0.176   1.280  0.1956  0.1667 -0.8744
   35MOL    H14 6202   4.814   0.107   1.520  0.1559  0.6138 -2.4129
   35MOL    H15 6203   4.714   0.223   1.612  0.3096  0.1628  0.3530
   35MOL    H16 6204   4.712   0.358   1.394  1.5627 -0.9314 -0.8423
   35MOL    H17 6205   4.718   0.070   1.301  3.4999 -0.2206 -0.2841
   35MOL    H18 6206   4.669   0.197   1.194 -0.2037  0.6073 -0.4697
   35MOL    H19 6207   4.838   0.159   1.260  0.6040  0.3270  1.1059
   35MOL    C20 6208   4.534   0.234   1.423 -0.7139 -0.1640  0.0507
   35MOL    C21 6209   4.489   0.087   1.447  0.0008 -0.0995 -0.2589
   35MOL    C22 6210   4.414   0.079   1.575 -0.9909  0.1976  0.2856
   35MOL    H23 6211   4.512   0.302   1.505  1.1435  0.6771 -0.1486
   35MOL    H24 6212   4.485   0.279   1.337  0.4382  1.6547  0.3384
   35MOL    H25 6213   4.576   0.024   1.465 -0.6712 -1.4118 -1.4710
   35MOL    H26 6214   4.328   0.146   1.582  0.6966  2.4838 -0.2581
   35MOL    H27 6215   4.380   7.677   1.606  1.0227  0.0636  2.2120
   35MOL    H28 6216   4.487   0.108   1.650 -0.3094 -0.0498 -0.2852
   35MOL    C29 6217   4.405   0.036   1.324 -0.8816 -0.2925  0.6046
   35MOL    C30 6218   4.457   7.594   1.278 -0.6800 -0.5428  0.5684
   35MOL    C31 6219   4.429   7.496   1.388 -0.2234 -0.1844 -0.5679
   35MOL    H32 6220   4.297   0.041   1.340 -0.7609 -0.0763  1.3938
   35MOL    H33 6221   4.415   0.101   1.237 -1.1536 -0.1813  0.6564
   35MOL    H34 6222   4.565   7.606   1.271 -0.5588  0.5502  3.5595
   35MOL    H35 6223   4.432   7.390   1.360  1.4863 -0.3025  0.0152
   35MOL    H36 6224   4.494   7.522   1.471  0.4728  0.4360 -1.3057
   35MOL    H37 6225   4.327   7.515   1.423  0.5296  0.5955  1.2817
   35MOL    C38 6226   4.401   7.545   1.142 -0.2785  0.2131  0.6097
   35MOL    C39 6227   4.436   7.622   1.016  0.2113 -0.0816 -0.3840
   35MOL    C40 6228   4.589   7.596   0.982 -0.1264 -0.7139 -0.6749
   35MOL    H41 6229   4.428   7.440   1.133  1.1901  0.6123  0.2502
   35MOL    H42 6230   4.292   7.547   1.150 -0.4766  2.3467 -2.0497
   35MOL    H43 6231   4.427   0.032   1.031 -0.8252 -0.7772  4.8028
   35MOL    H44 6232   4.636   7.668   0.915 -0.3874 -0.1114 -0.2162
   35MOL    H45 6233   4.644   7.594   1.076  0.0290 -0.3383 -0.7582
   35MOL    H46 6234   4.616   7.499   0.940  1.6383 -0.2897 -0.5527
   35MOL    C47 6235   4.344   7.572   0.899 -0.1245  0.2485 -0.3000
   35MOL    C48 6236   4.205   7.631   0.902 -0.5096  0.6797 -0.2643
   35MOL    C49 6237   4.210   0.075   0.848 -0.1870  0.2983  0.0975
   35MOL    H50 6238   4.381   7.604   0.802  1.9951  1.7390  0.9566
   35MOL    H51 6239   4.342   7.463   0.899 -0.6474  0.2583 -0.7535
   35MOL    H52 6240   4.177   7.627   1.008 -0.6760 -0.9298 -0.3590
   35MOL    H53 6241   4.299   0.128   0.885 -0.0698  0.4375 -0.3810
   35MOL    H54 6242   4.211   0.074   0.739 -1.3586  1.1711  0.0716
   35MOL    H55 6243   4.128   0.140   0.878  0.6774  1.7674 -0.6736
   35MOL    C56 6244   4.106   7.545   0.819 -0.7431 -0.1543 -0.2588
   35MOL    C57 6245   3.956   7.588   0.835 -0.1354 -0.6566 -0.2260
   35MOL    C58 6246   3.871   7.529   0.725  0.4661  0.7592  0.2819
   35MOL    H59 6247   4.135   7.534   0.715 -1.0853  1.2226 -0.5115
   35MOL    H60 6248   4.112   7.443   0.857 -0.5114 -0.1153 -0.1875
   35MOL    H61 6249   3.946   7.696   0.829 -0.4856 -0.5741  1.6041
   35MOL    H62 6250   3.777   7.581   0.737 -0.3399 -0.0258 -2.3507
   35MOL    H63 6251   3.911   7.555   0.627  0.4677  2.4209  0.7061
   35MOL    H64 6252   3.860   7.420   0.728  2.0790  0.5786  0.3493
   35MOL    C65 6253   3.912   7.536   0.976 -0.6269 -0.0710 -0.6620
   35MOL    C66 6254   3.843   7.636   1.071 -0.3975 -0.2272  0.3089
   35MOL    C67 6255   3.711   7.692   1.015  0.0197 -0.2497 -0.1436
   35MOL    H68 6256   3.849   7.449   0.959  0.8158 -1.2375 -0.1624
   35MOL    H69 6257   3.990   7.479   1.026  1.2085  2.0846 -0.9677
   35MOL    H70 6258   3.908   0.024   1.088 -2.5456  1.5786 -0.2297
   35MOL    H71 6259   3.704   0.043   0.917  2.9705 -0.5186 -0.5390
   35MOL    H72 6260   3.626   7.624   1.026  0.1235 -0.2236  0.8642
   35MOL    H73 6261   3.686   0.082   1.074  0.1896  1.7430 -2.9591
   35MOL    C74 6262   3.802   7.568   1.210  0.3669  0.1522  0.4760
   35MOL    C75 6263   3.920   7.524   1.297 -0.3206 -0.3359  0.0204
   35MOL    C76 6264   4.007   7.641   1.346 -0.3367  0.7331 -0.0781
   35MOL    H77 6265   3.725   7.631   1.254 -0.8201 -1.6004  0.9623
   35MOL    H78 6266   3.756   7.472   1.190  0.7332  0.0311  0.2162
   35MOL    H79 6267   3.997   7.475   1.238  2.2834  1.0807  2.1297
   35MOL    H80 6268   4.059   0.004   1.272 -0.9722 -0.2473 -1.3462
   35MOL    H81 6269   3.942   0.016   1.395  0.7003  0.4261  1.8071
   35MOL    H82 6270   4.075   7.609   1.425  0.5558 -0.0432 -1.1440
   35MOL    C83 6271   3.883   7.424   1.408 -0.4260  0.5019  0.6403
   35MOL    C84 6272   3.845   7.275   1.373  0.2286 -0.3074 -0.4612
   35MOL    C85 6273   3.943   7.207   1.264  1.4340 -0.6568  0.0260
   35MOL    H86 6274   3.972   7.422   1.472  0.3705  1.8978 -0.4036
   35MOL    H87 6275   3.800   7.460   1.469 -0.5732  3.3619 -1.1546
   35MOL    H88 6276   3.744   7.289   1.333 -0.1206 -0.7710  0.2386
   35MOL    H89 6277   3.946   7.267   1.173  1.8785 -0.2994  0.2735
   35MOL    H90 6278   4.043   7.184   1.302  1.1372 -0.1438  1.1325
   35MOL    H91 6279   3.902   7.109   1.243  0.9747 -0.3040 -0.7656
   35MOL    C92 6280   3.834   7.177   1.490 -0.0473  0.4678  0.4393
   35MOL    C93 6281   3.722   7.073   1.485 -0.1515  0.6533 -0.1377
   35MOL    C94 6282   3.788   6.938   1.464  0.0383  0.0255  0.0668
   35MOL    H95 6283   3.926   7.126   1.520  0.7792  2.6182  1.6678
   35MOL    H96 6284   3.811   7.247   1.570 -0.6597 -0.2604  0.9013
   35MOL    H97 6285   3.673   7.108   1.394  0.8619  0.3201 -0.8202
   35MOL    H98 6286   3.859   6.906   1.541  1.8620  0.1294 -1.5381
   35MOL    H99 6287   3.718   6.857   1.443  0.1721  0.0534 -0.5060
   35MOL   H100 6288   3.835   6.943   1.366 -1.9370  0.0245 -0.9016
   35MOL   C101 6289   3.621   7.074   1.606 -0.5095 -0.3261 -0.1397
   35MOL   C102 6290   3.487   7.154   1.588 -0.5991 -0.1870  0.4231
   35MOL   C103 6291   3.385   7.119   1.696  0.0190 -0.3050  0.1056
   35MOL   H104 6292   3.583   6.973   1.620  0.3787 -0.7151 -0.5162
   35MOL   H105 6293   3.669   7.098   1.701  0.5054  2.1711 -1.2426
   35MOL   H106 6294   3.439   7.134   1.493 -0.9362  1.7238  0.1606
   35MOL   H107 6295   3.364   7.013   1.715 -0.5026 -0.3605 -0.7491
   35MOL   H108 6296   3.416   7.139   1.798  1.8174 -1.5944 -0.1556
   35MOL   H109 6297   3.288   7.167   1.689 -0.1439 -0.7812 -0.9957
   35MOL   C110 6298   3.517   7.304   1.593 -0.0902 -0.4985  0.4869
   35MOL   C111 6299   3.416   7.400   1.517 -0.6933 -0.3857 -0.0254
   35MOL   C112 6300   3.464   7.543   1.538  1.0501  0.2069 -0.3997
   35MOL   H113 6301   3.541   7.329   1.697  3.1244  1.0737 -0.5758
   35MOL   H114 6302   3.615   7.331   1.554 -0.2555 -0.0645  0.3623
   35MOL   H115 6303   3.317   7.382   1.559 -0.1072 -1.1129  1.0821
   35MOL   H116 6304   3.396   7.615   1.492  2.2923  1.4836 -0.2525
   35MOL   H117 6305   3.454   7.571   1.643  1.1770 -0.7342 -0.1334
   35MOL   H118 6306   3.569   7.555   1.512  1.5363 -1.3088  0.7469
   35MOL   C119 6307   3.418   7.367   1.367 -0.0495  0.1120 -0.1119
   35MOL   C120 6308   3.303   7.433   1.284  0.3915 -0.2284 -0.1510
   35MOL   C121 6309   3.336   7.410   1.133 -0.2789  0.9122  0.2636
   35MOL   H122 6310   3.516   7.396   1.329  0.4420  0.0628  1.0975
   35MOL   H123 6311   3.411   7.260   1.346 -0.2961 -0.0542  0.8178
   35MOL   H124 6312   3.295   7.540   1.305 -2.1144  0.1999 -2.9745
   35MOL   H125 6313   3.318   7.303   1.118  0.3309  0.7793  0.4464
   35MOL   H126 6314   3.281   7.458   1.052 -2.0245  0.6533  1.2672
   35MOL   H127 6315   3.440   7.441   1.120 -0.1437  0.2283 -0.3539
   35MOL   C128 6316   3.160   7.380   1.304 -0.2345  0.0989  0.1139
   35MOL   C129 6317   3.041   7.451   1.235 -0.2042 -0.3500  0.2424
   35MOL   C130 6318   2.919   7.355   1.227 -0.1818 -0.4421 -0.2442
   35MOL   H131 6319   3.156   7.277   1.267  0.4935 -0.4706  1.5590
   35MOL   H132 6320   3.136   7.384   1.410 -2.1450  2.9520 -0.3829
   35MOL   H133 6321   3.073   7.467   1.132  1.2049 -1.4031  0.5024
   35MOL   H134 6322   2.933   7.248   1.217 -0.0530 -0.6171  1.6039
   35MOL   H135 6323   2.872   7.367   1.325  0.4374 -1.1233  0.1373
   35MOL   H136 6324   2.844   7.387   1.155  1.3468  1.4935 -1.0045
   35MOL   C137 6325   3.019   7.590   1.295  0.1223  0.3714  1.0244
   35MOL   C138 6326   2.958   7.694   1.186 -0.6698  0.0343 -0.2230
   35MOL   C139 6327   2.810   0.020   1.187  0.0387  0.1355  0.0247
   35MOL   H140 6328   2.958   7.582   1.384  2.2482 -0.5719  2.4304
   35MOL   H141 6329   3.114   7.630   1.332  0.6506 -0.0627  0.1603
   35MOL   H142 6330   2.959   7.643   1.090 -2.1048  0.8577 -0.6925
   35MOL   H143 6331   2.770   0.072   1.274  0.6064 -1.7234  1.4446
   35MOL   H144 6332   2.775   0.079   1.102  0.0175  1.8272  1.1730
   35MOL   H145 6333   2.759   7.621   1.189  1.1926 -0.4634  0.9678
   35MOL   C146 6334   3.037   0.130   1.179 -0.7906 -0.5340  0.8186
   35MOL   C147 6335   3.177   0.118   1.125 -0.2855 -0.0624  0.0188
   35MOL   C148 6336   3.182   0.054   0.985 -0.2200 -0.1093 -0.4936
   35MOL   H149 6337   2.978   0.206   1.128  1.8522  2.7366  2.4144
   35MOL   H150 6338   3.040   0.177   1.278  2.3561 -1.8081  1.3699
   35MOL   H151 6339   3.235   0.060   1.196 -0.0585  0.8997  0.6280
   35MOL   H152 6340   3.153   7.647   0.984 -1.7926  0.2804  0.8684
   35MOL   H153 6341   3.101   0.092   0.922 -0.9531 -0.0369  0.4645
   35MOL   H154 6342   3.280   0.071   0.941  0.6581  1.4298  1.9611
   35MOL   C155 6343   3.244   0.257   1.115  0.2011  0.2119  0.2714
   35MOL   C156 6344   3.393   0.278   1.082  0.5849  0.0141  0.2991
   35MOL   C157 6345   3.414   0.319   0.938 -0.1012  0.0389  1.5934
   35MOL   H158 6346   3.183   0.300   1.036  2.6602 -1.6293 -2.7500
   35MOL   H159 6347   3.223   0.309   1.209  1.3895  1.4260 -0.1304
   35MOL   H160 6348   3.459   0.193   1.100  0.4145 -0.0945  0.4177
   35MOL   H161 6349   3.345   0.402   0.924  0.0557 -0.1489 -0.4039
   35MOL   H162 6350   3.519   0.344   0.923 -0.7658  0.5358 -2.8453
   35MOL   H163 6351   3.394   0.241   0.865 -0.7640  2.1199 -0.4707
   35MOL   C164 6352   3.452   0.383   1.186 -0.6649  0.0108  0.2016
   35MOL   C165 6353   3.466   0.337   1.333  0.1538 -0.7042 -0.5605
   35MOL   C166 6354   3.513   0.186   1.348 -0.2633  0.3561  0.4747
   35MOL   H167 6355   3.544   0.428   1.149 -1.5449  0.7409 -1.1520
   35MOL   H168 6356   3.392   0.473   1.195 -0.1004  0.3874  0.2266
   35MOL   H169 6357   3.366   0.341   1.376  0.0986 -0.8287 -0.6759
   35MOL   H170 6358   3.529   0.160   1.453 -0.6848  0.6269  0.6101
   35MOL   H171 6359   3.447   0.114   1.300 -0.0802 -0.8124  1.9206
   35MOL   H172 6360   3.609   0.180   1.298 -0.4316 -2.5904  0.4569
   35MOL   C173 6361   3.545   0.444   1.411 -0.0801 -0.4839 -0.5095
   35MOL   C174 6362   3.481   0.591   1.411 -0.5957 -0.5549 -0.2535
   35MOL   C175 6363   3.563   0.682   1.499  0.2722 -0.4528 -0.4332
   35MOL   H176 6364   3.567   0.406   1.511  0.6843 -3.0785 -1.6065
   35MOL   H177 6365   3.642   0.440   1.362 -0.7882  0.9677 -2.0776
   35MOL   H178 6366   3.375   0.595   1.436 -1.1328 -3.8996 -1.7266
   35MOL   H179 6367   3.540   0.789   1.499  0.8998 -0.3016  1.1823
   35MOL   H180 6368   3.564   0.659   1.606  0.0685 -3.6485 -1.0685
   35MOL   H181 6369   3.667   0.694   1.470  0.6162  0.1704  1.0137
   35MOL   H182 6370   3.495   0.630   1.311  0.8900 -0.9105 -0.2075
   36MOL     C1 6371   6.710   7.579   0.903 -0.6899  0.6508  0.3310
   36MOL     C2 6372   6.717   7.427   0.917 -0.3012 -0.2251 -0.6729
   36MOL     C3 6373   6.866   7.388   0.887  0.3737 -0.1054  0.1337
   36MOL     H4 6374   6.757   7.618   0.812  0.0031  1.1590  0.8962
   36MOL     H5 6375   6.754   7.635   0.985 -1.7105  1.7628  0.1507
   36MOL     H6 6376   6.650   7.380   0.845  0.3664 -1.5868 -0.4176
   36MOL     H7 6377   6.892   7.446   0.798 -1.2562  0.7620  0.2087
   36MOL     H8 6378   6.941   7.409   0.964  0.0655 -0.8505  0.6380
   36MOL     H9 6379   6.873   7.282   0.864 -0.4059 -0.4680  1.5292
   36MOL    H10 6380   6.604   7.607   0.905 -0.9140 -0.2003  3.9467
   36MOL    C11 6381   6.657   7.371   1.051 -1.1934 -0.4605  0.1325
   36MOL    C12 6382   6.620   7.217   1.044  0.3423 -1.2921  0.4512
   36MOL    C13 6383   6.739   7.127   1.092 -0.2751  0.2785 -0.3487
   36MOL    H14 6384   6.739   7.385   1.122  1.6136 -0.5070 -2.9973
   36MOL    H15 6385   6.571   7.432   1.079 -1.6167 -0.6750 -0.6753
   36MOL    H16 6386   6.583   7.190   0.945 -2.1106 -2.8007  1.7339
   36MOL    H17 6387   6.713   7.022   1.098  2.9701 -0.5994 -0.6518
   36MOL    H18 6388   6.824   7.135   1.024  0.6283  2.6714  0.9685
   36MOL    H19 6389   6.776   7.180   1.180  0.3585  2.5768 -1.9528
   36MOL    C20 6390   6.494   7.183   1.131  0.1723  0.2683 -0.2500
   36MOL    C21 6391   6.353   7.187   1.063 -0.7408  0.5687  0.0397
   36MOL    C22 6392   6.314   7.076   0.967 -0.7130  0.7085 -0.3022
   36MOL    H23 6393   6.499   7.078   1.161 -0.7059 -0.3617 -2.2294
   36MOL    H24 6394   6.492   7.252   1.215  0.5748  0.6622 -0.5659
   36MOL    H25 6395   6.357   7.279   1.006 -1.9024  0.9128  0.5090
   36MOL    H26 6396   6.381   7.064   0.881  1.2909 -0.4478  1.3880
   36MOL    H27 6397   6.339   6.989   1.028  1.3660  0.3808 -1.5668
   36MOL    H28 6398   6.212   7.098   0.935 -0.8284 -2.4044 -2.3445
   36MOL    C29 6399   6.236   7.196   1.165  0.2259 -0.4370 -0.4140
   36MOL    C30 6400   6.226   7.335   1.230 -0.8593 -1.2222  0.5348
   36MOL    C31 6401   6.182   7.446   1.131  0.0640  0.0402 -0.1367
   36MOL    H32 6402   6.140   7.171   1.119 -0.7214  1.0268  0.7038
   36MOL    H33 6403   6.257   7.120   1.240 -1.1912  0.4428  0.9038
   36MOL    H34 6404   6.323   7.364   1.269 -1.0054 -0.6127  0.4534
   36MOL    H35 6405   6.082   7.421   1.095 -0.5825  1.2787  0.7384
   36MOL    H36 6406   6.183   7.542   1.182  1.5813  0.5717 -1.1510
   36MOL    H37 6407   6.253   7.461   1.050  1.7691  0.4663  1.4020
   36MOL    C38 6408   6.126   7.342   1.343 -0.3174 -0.4886 -0.0284
   36MOL    C39 6409   6.170   7.256   1.474  0.1194 -0.3466 -0.1602
   36MOL    C40 6410   6.295   7.317   1.550 -0.5091  0.1624 -0.2212
   36MOL    H41 6411   6.107   7.446   1.373 -1.9849 -0.4014 -1.3460
   36MOL    H42 6412   6.030   7.309   1.304 -1.1427  1.1324  0.5819
   36MOL    H43 6413   6.195   7.155   1.441  2.8147  0.8594 -1.9700
   36MOL    H44 6414   6.385   7.298   1.491  0.1447 -0.8585  1.0617
   36MOL    H45 6415   6.286   7.423   1.571  1.0318  0.2333  0.1283
   36MOL    H46 6416   6.324   7.271   1.644  0.7576  1.6000  0.1119
   36MOL    C47 6417   6.048   7.269   1.576  0.2918  0.0775  0.8001
   36MOL    C48 6418   5.920   7.190   1.538  0.1003  0.3830 -0.2008
   36MOL    C49 6419   5.944   7.034   1.545 -0.3155 -0.4034  0.0837
   36MOL    H50 6420   6.087   7.208   1.657  0.3891 -1.6527 -0.5133
   36MOL    H51 6421   6.034   7.375   1.599 -1.2815  0.0156  0.1889
   36MOL    H52 6422   5.887   7.201   1.435  0.0451  1.1562 -0.1014
   36MOL    H53 6423   5.852   6.977   1.535  1.3886 -4.1846  4.4082
   36MOL    H54 6424   6.009   7.014   1.459 -1.1383 -3.1819  0.0496
   36MOL    H55 6425   5.991   6.986   1.631  1.8142 -0.4535 -1.0765
   36MOL    C56 6426   5.791   7.231   1.616 -0.4014 -0.0145 -0.0880
   36MOL    C57 6427   5.660   7.179   1.553 -0.2532 -0.3870 -0.0710
   36MOL    C58 6428   5.543   7.201   1.652  0.6348  0.5800  0.5387
   36MOL    H59 6429   5.802   7.207   1.722 -1.9722  1.0358  0.3364
   36MOL    H60 6430   5.784   7.340   1.614 -0.2927 -0.0101 -0.2072
   36MOL    H61 6431   5.671   7.071   1.552  2.1700 -0.2843  3.6237
   36MOL    H62 6432   5.496   7.296   1.629 -1.8797 -0.9690 -0.9762
   36MOL    H63 6433   5.473   7.118   1.645 -1.1568  2.3153 -3.9825
   36MOL    H64 6434   5.567   7.205   1.758 -2.5938 -2.0953  1.4618
   36MOL    C65 6435   5.623   7.222   1.407  0.7925 -0.4365  0.3249
   36MOL    C66 6436   5.498   7.159   1.335 -0.0695 -0.1576  0.0044
   36MOL    C67 6437   5.446   7.250   1.228  0.2508  0.3078 -0.2109
   36MOL    H68 6438   5.607   7.330   1.416 -2.5974 -1.0627  2.9197
   36MOL    H69 6439   5.700   7.204   1.332 -0.1445 -0.0834 -0.7504
   36MOL    H70 6440   5.424   7.160   1.415 -0.2952  0.4372 -0.2084
   36MOL    H71 6441   5.509   7.260   1.140  1.4539 -0.0561  0.5801
   36MOL    H72 6442   5.345   7.225   1.198  0.8377  0.1141 -2.0844
   36MOL    H73 6443   5.444   7.349   1.275 -0.9737 -0.3661  1.2011
   36MOL    C74 6444   5.520   7.011   1.291 -0.4292 -0.4018 -0.6115
   36MOL    C75 6445   5.383   6.928   1.281 -0.1942 -0.2301  0.1024
   36MOL    C76 6446   5.413   6.811   1.185  0.0973 -0.0175 -0.8295
   36MOL    H77 6447   5.569   7.013   1.193  0.9860  2.3880  0.1036
   36MOL    H78 6448   5.592   6.965   1.358 -1.6645  1.1986  1.8868
   36MOL    H79 6449   5.308   7.002   1.254  1.7981  1.4645 -0.9197
   36MOL    H80 6450   5.411   6.846   1.082  0.1041  1.0308 -0.4761
   36MOL    H81 6451   5.512   6.770   1.207  0.3062  0.4477 -0.9107
   36MOL    H82 6452   5.343   6.727   1.184  1.7174 -1.4122 -0.0479
   36MOL    C83 6453   5.354   6.882   1.427 -0.4351  0.3444  0.6778
   36MOL    C84 6454   5.204   6.818   1.438  0.4757  0.4244 -0.0021
   36MOL    C85 6455   5.209   6.725   1.565  0.5720 -0.9539 -0.6475
   36MOL    H86 6456   5.432   6.814   1.460 -2.5449 -2.7511 -0.4493
   36MOL    H87 6457   5.359   6.968   1.493  0.6643  1.2774 -0.5835
   36MOL    H88 6458   5.192   6.755   1.350 -0.8565  1.2117 -0.3905
   36MOL    H89 6459   5.234   6.795   1.645 -0.1212 -0.1180 -1.1441
   36MOL    H90 6460   5.117   6.667   1.575  0.6334 -0.7785  1.0421
   36MOL    H91 6461   5.282   6.644   1.567  0.6521 -0.8891 -0.8474
   36MOL    C92 6462   5.091   6.923   1.439 -0.6223  0.2706  0.2836
   36MOL    C93 6463   4.948   6.863   1.443 -0.2128  0.1191 -0.1171
   36MOL    C94 6464   4.870   6.902   1.570  0.1106 -0.2126 -0.7627
   36MOL    H95 6465   5.102   6.978   1.533 -1.5627 -1.8517  1.6778
   36MOL    H96 6466   5.100   6.990   1.354  1.9077 -3.3647 -2.4701
   36MOL    H97 6467   4.959   6.756   1.456 -0.4157 -0.1509 -1.9453
   36MOL    H98 6468   4.859   7.010   1.572  2.4331  0.0290  2.4729
   36MOL    H99 6469   4.772   6.858   1.589  0.7472 -0.7967  1.3170
   36MOL   H100 6470   4.943   6.873   1.645  0.5944 -0.3290 -1.2795
   36MOL   C101 6471   4.859   6.911   1.325 -0.3191  0.3793  0.0979
   36MOL   C102 6472   4.904   6.828   1.197 -0.6895 -0.2751 -0.4239
   36MOL   C103 6473   4.840   6.692   1.202  0.2750  0.7964 -0.0435
   36MOL   H104 6474   4.750   6.912   1.326 -0.3821 -0.5806 -2.7721
   36MOL   H105 6475   4.877   7.018   1.317  0.5315  0.1813 -0.6743
   36MOL   H106 6476   5.011   6.808   1.190 -0.0444  2.4065  1.1181
   36MOL   H107 6477   4.856   6.641   1.297  0.3309 -0.0947 -0.5306
   36MOL   H108 6478   4.732   6.694   1.184  0.3412 -0.7994 -0.6721
   36MOL   H109 6479   4.882   6.615   1.138  0.8955  0.8707  0.2733
   36MOL   C110 6480   4.853   6.891   1.062  0.1369 -0.0211  0.2228
   36MOL   C111 6481   4.931   7.022   1.025  0.0879  0.6480 -0.9223
   36MOL   C112 6482   5.084   7.001   1.012  0.0534  0.3084  0.1731
   36MOL   H113 6483   4.879   6.816   0.987  1.6603  0.2429  0.4690
   36MOL   H114 6484   4.746   6.908   1.060 -0.1670 -1.6348  2.4020
   36MOL   H115 6485   4.920   7.093   1.106  1.5306  0.4104 -0.4933
   36MOL   H116 6486   5.130   6.969   1.106 -0.5815 -2.9303 -0.5337
   36MOL   H117 6487   5.118   6.931   0.935  0.3508 -0.6511  1.1631
   36MOL   H118 6488   5.125   7.098   0.985 -0.3788  0.6085  0.5881
   36MOL   C119 6489   4.885   7.103   0.898 -0.4879 -0.2784 -0.1219
   36MOL   C120 6490   4.740   7.158   0.905  0.1352  0.0248  0.1597
   36MOL   C121 6491   4.708   7.247   1.032  0.0384  0.0092 -0.8693
   36MOL   H122 6492   4.955   7.186   0.891 -0.2876 -0.5480 -1.3697
   36MOL   H123 6493   4.888   7.037   0.811  1.9520  0.3431 -0.5289
   36MOL   H124 6494   4.673   7.073   0.903 -1.5948  1.3995 -2.1297
   36MOL   H125 6495   4.716   7.179   1.117  1.0159  0.7256 -0.3814
   36MOL   H126 6496   4.795   7.313   1.034 -0.4474  0.6298  1.0164
   36MOL   H127 6497   4.613   7.300   1.024 -0.7305 -1.1607  0.3057
   36MOL   C128 6498   4.709   7.249   0.783  0.1983 -0.7099 -0.5471
   36MOL   C129 6499   4.759   7.210   0.642 -0.3135  0.1320  0.3257
   36MOL   C130 6500   4.674   7.094   0.589  1.1029  0.1632  0.5626
   36MOL   H131 6501   4.601   7.263   0.780  0.3208  0.3062 -0.3111
   36MOL   H132 6502   4.751   7.347   0.807 -0.8660  0.0262 -1.6288
   36MOL   H133 6503   4.866   7.197   0.659  0.1506  0.3568 -2.1829
   36MOL   H134 6504   4.718   7.070   0.492 -0.4669 -2.2956  0.4364
   36MOL   H135 6505   4.700   7.007   0.650  1.5021  1.0258  1.6337
   36MOL   H136 6506   4.567   7.113   0.584  1.1426  0.1508 -0.4251
   36MOL   C137 6507   4.733   7.325   0.542  0.2082 -0.6402 -0.5578
   36MOL   C138 6508   4.830   7.450   0.564  0.5017  0.5066 -0.9639
   36MOL   C139 6509   4.987   7.426   0.541  0.6414  0.3638  0.2913
   36MOL   H140 6510   4.742   7.300   0.437  0.9967 -2.1938 -0.1416
   36MOL   H141 6511   4.628   7.352   0.548  0.2323 -0.5011 -0.7679
   36MOL   H142 6512   4.823   7.490   0.665  0.4801  1.2695 -1.2645
   36MOL   H143 6513   5.047   7.514   0.567 -0.9123  1.4838  0.1680
   36MOL   H144 6514   5.018   7.352   0.614 -0.6514  0.0588  0.5333
   36MOL   H145 6515   4.994   7.383   0.441  1.1982 -0.4513  0.6779
   36MOL   C146 6516   4.779   7.564   0.471  0.1110  0.3835  0.0402
   36MOL   C147 6517   4.796   0.010   0.530  0.6137 -0.0041  0.1799
   36MOL   C148 6518   4.807   0.110   0.408 -0.1121  0.6583 -0.1879
   36MOL   H149 6519   4.816   7.551   0.369 -0.2799  1.7180 -0.2840
   36MOL   H150 6520   4.674   7.548   0.444  0.2595 -0.0327 -0.3019
   36MOL   H151 6521   4.895   0.003   0.575  1.6766  0.9982 -1.9026
   36MOL   H152 6522   4.864   0.070   0.324 -0.7240 -1.2007  0.2429
   36MOL   H153 6523   4.705   0.133   0.377 -1.4815 -1.4213  2.4897
   36MOL   H154 6524   4.868   0.194   0.439 -0.5065  1.1238 -0.6663
   36MOL   C155 6525   4.690   0.055   0.628 -0.1744  0.7758  0.2174
   36MOL   C156 6526   4.706   0.195   0.690  0.0790 -0.2041 -0.3051
   36MOL   C157 6527   4.571   0.239   0.759 -0.2380  0.9547 -0.0209
   36MOL   H158 6528   4.596   0.062   0.574  0.9399  0.9603 -1.7361
   36MOL   H159 6529   4.666   7.681   0.707  2.7605 -0.4292  0.0853
   36MOL   H160 6530   4.722   0.257   0.603 -0.0338  0.7700  0.3618
   36MOL   H161 6531   4.556   0.183   0.851  0.1323  2.2086  0.8051
   36MOL   H162 6532   4.593   0.340   0.793 -0.5292  0.6497  1.0898
   36MOL   H163 6533   4.477   0.249   0.705  0.2721  0.8218 -0.9575
   36MOL   C164 6534   4.824   0.196   0.790 -0.1564 -1.0125 -0.3963
   36MOL   C165 6535   4.838   0.319   0.885  0.0041 -0.1176 -0.2261
   36MOL   C166 6536   4.966   0.302   0.964  0.3065  0.3766 -0.2800
   36MOL   H167 6537   4.818   0.112   0.860  0.8915 -0.6054  0.1860
   36MOL   H168 6538   4.916   0.189   0.732 -0.0865  0.7091 -0.5137
   36MOL   H169 6539   4.757   0.311   0.957 -0.8883 -0.9509 -1.3171
   36MOL   H170 6540   5.054   0.257   0.917  2.6383  1.9487  2.3615
   36MOL   H171 6541   4.997   0.394   1.014  2.4695 -0.9368  0.8789
   36MOL   H172 6542   4.937   0.245   1.053  2.2652  2.4211  1.7451
   36MOL   C173 6543   4.839   0.457   0.811  0.9946 -0.0827 -0.6358
   36MOL   C174 6544   4.793   0.572   0.905 -1.0096  0.3083 -0.2455
   36MOL   C175 6545   4.641   0.589   0.905 -0.0634  0.1408 -0.3517
   36MOL   H176 6546   4.945   0.481   0.805  0.9530  0.4276  0.4611
   36MOL   H177 6547   4.786   0.457   0.716 -3.5252  0.7365  1.7176
   36MOL   H178 6548   4.839   0.666   0.878 -1.3981  0.3802 -0.6554
   36MOL   H179 6549   4.615   0.674   0.969  0.8237  0.1655 -0.0213
   36MOL   H180 6550   4.622   0.618   0.802  1.9545 -0.3890 -0.8796
   36MOL   H181 6551   4.586   0.499   0.933  0.2823  0.2158  0.5936
   36MOL   H182 6552   4.831   0.569   1.007  0.2645 -0.3151 -0.7289
   37MOL     C1 6553   0.070   7.434   1.435 -0.6818  0.5827  0.6030
   37MOL     C2 6554   0.139   7.443   1.582  0.2860 -0.0343 -0.5128
   37MOL     C3 6555   0.031   7.411   1.688 -0.1097 -0.1879 -0.2764
   37MOL     H4 6556   7.672   7.486   1.423 -0.7564 -0.4807 -4.4089
   37MOL     H5 6557   0.063   7.329   1.406  0.2949  0.4388  0.8844
   37MOL     H6 6558   0.159   7.550   1.593 -0.4420  0.1365 -0.7578
   37MOL     H7 6559   7.637   7.471   1.684  0.2209  0.4501  1.2921
   37MOL     H8 6560   0.015   7.303   1.685  2.9863 -0.6606 -1.4299
   37MOL     H9 6561   0.071   7.437   1.786  3.8239 -0.0220 -1.8491
   37MOL    H10 6562   0.124   7.484   1.355  0.4597 -2.6410 -0.7021
   37MOL    C11 6563   0.267   7.361   1.588  0.5104 -0.2961  0.2309
   37MOL    C12 6564   0.375   7.410   1.677  0.4190 -0.2708  0.5576
   37MOL    C13 6565   0.457   7.290   1.730  0.3396 -0.3303 -0.2962
   37MOL    H14 6566   0.240   7.256   1.602 -2.3770  0.3343 -0.2304
   37MOL    H15 6567   0.325   7.355   1.496 -0.6078 -0.8890 -0.4477
   37MOL    H16 6568   0.320   7.462   1.755 -0.9162 -2.0234  0.8271
   37MOL    H17 6569   0.486   7.228   1.645  1.6912  0.1076 -0.1609
   37MOL    H18 6570   0.548   7.320   1.782 -0.6592  0.8702  0.7964
   37MOL    H19 6571   0.388   7.240   1.798  0.2102  0.4318  0.1406
   37MOL    C20 6572   0.464   7.520   1.617 -0.5522  0.3771  0.2900
   37MOL    C21 6573   0.469   7.656   1.694  0.3011  0.6811  0.2680
   37MOL    C22 6574   0.541   7.637   1.824 -0.5711 -0.5668 -0.1355
   37MOL    H23 6575   0.564   7.486   1.591 -0.6589 -1.0429  1.6855
   37MOL    H24 6576   0.416   7.555   1.525 -2.3128  2.2905  1.8904
   37MOL    H25 6577   0.363   7.678   1.708 -0.1092 -1.1838  0.2941
   37MOL    H26 6578   0.648   7.619   1.809  0.0415  2.1041  0.7562
   37MOL    H27 6579   0.529   0.016   1.900  3.3990 -0.6597  0.7223
   37MOL    H28 6580   0.499   7.549   1.873 -0.1002 -2.2206 -2.5650
   37MOL    C29 6581   0.529   0.067   1.605 -0.2375  0.1183 -0.7278
   37MOL    C30 6582   0.432   0.138   1.506  0.6932 -0.6481  0.1058
   37MOL    C31 6583   0.337   0.234   1.585  0.8910 -0.5365  0.5713
   37MOL    H32 6584   0.564   0.145   1.673  0.5497 -0.5044 -0.4146
   37MOL    H33 6585   0.620   0.022   1.567  1.1396  0.8057  1.6426
   37MOL    H34 6586   0.370   0.063   1.456 -1.0165  0.2959  0.7797
   37MOL    H35 6587   0.257   0.178   1.632 -0.0912 -1.2918 -1.9448
   37MOL    H36 6588   0.385   0.277   1.673  1.4827  0.6775 -0.3289
   37MOL    H37 6589   0.290   0.310   1.523  2.3583 -1.0868 -1.2739
   37MOL    C38 6590   0.533   0.207   1.401  0.0270  0.2407 -0.2285
   37MOL    C39 6591   0.606   0.107   1.296 -0.0407 -0.1979  0.2338
   37MOL    C40 6592   0.510   0.045   1.209  0.2034  0.3473  0.8063
   37MOL    H41 6593   0.486   0.294   1.354 -1.2109 -1.2737 -1.8538
   37MOL    H42 6594   0.603   0.256   1.470 -1.7173 -1.6189  2.9589
   37MOL    H43 6595   0.654   0.020   1.341 -1.5278 -1.6418 -0.9074
   37MOL    H44 6596   0.559   7.675   1.139 -0.8999  0.2544  0.1113
   37MOL    H45 6597   0.434   7.685   1.261 -1.2864  0.2016 -1.4783
   37MOL    H46 6598   0.460   0.119   1.147  0.4014  0.1312  0.3842
   37MOL    C47 6599   0.729   0.179   1.231 -0.7444 -0.5137 -0.5991
   37MOL    C48 6600   0.832   0.104   1.138 -0.8886  0.3272 -0.3716
   37MOL    C49 6601   0.902   0.210   1.049 -0.9705 -0.6419 -0.5205
   37MOL    H50 6602   0.691   0.269   1.182  0.9416  0.8101  0.4783
   37MOL    H51 6603   0.790   0.213   1.315 -0.7288  1.1703 -1.2791
   37MOL    H52 6604   0.781   0.048   1.059  2.7551 -2.9643 -0.5391
   37MOL    H53 6605   0.964   0.164   0.972 -3.2064 -1.4752 -1.8694
   37MOL    H54 6606   0.824   0.269   1.002 -0.8398  1.8553  2.2537
   37MOL    H55 6607   0.969   0.272   1.108 -1.9259 -1.3634  1.3860
   37MOL    C56 6608   0.934   0.023   1.221  0.2428 -0.6125 -0.1309
   37MOL    C57 6609   1.036   7.637   1.145 -0.4255  0.6017 -0.2795
   37MOL    C58 6610   1.132   7.560   1.233 -0.2631 -0.1753 -0.4046
   37MOL    H59 6611   0.978   0.102   1.282  1.5005 -1.7365  0.4512
   37MOL    H60 6612   0.874   7.661   1.290 -1.4454  1.6401  0.3775
   37MOL    H61 6613   1.090   0.006   1.077  0.5824 -0.5400 -0.6338
   37MOL    H62 6614   1.085   7.488   1.300  0.9745  0.4083  1.1066
   37MOL    H63 6615   1.208   7.507   1.175  0.1221  1.1538 -1.1275
   37MOL    H64 6616   1.192   7.620   1.302 -0.2512 -1.5619  0.8344
   37MOL    C65 6617   0.966   7.541   1.053 -0.8478  0.2425 -0.4928
   37MOL    C66 6618   0.989   7.555   0.899 -0.7985  0.9302  0.1656
   37MOL    C67 6619   1.135   7.513   0.866  0.1557  1.0458  0.2866
   37MOL    H68 6620   0.987   7.437   1.078 -1.9292  0.1301  0.0013
   37MOL    H69 6621   0.861   7.555   1.079 -0.5579 -1.4004  1.7913
   37MOL    H70 6622   0.969   7.659   0.872  0.3190  1.8744  2.7362
   37MOL    H71 6623   1.157   7.528   0.760  0.0192  1.1590  0.2738
   37MOL    H72 6624   1.199   7.584   0.917  0.9578  1.6526 -1.5063
   37MOL    H73 6625   1.159   7.408   0.884  0.7854  0.9988 -0.7790
   37MOL    C74 6626   0.904   7.469   0.809 -0.4584 -0.5738  0.2853
   37MOL    C75 6627   0.753   7.491   0.811 -0.4882  0.7264  0.7013
   37MOL    C76 6628   0.710   7.629   0.753  0.3108 -0.8878  0.1645
   37MOL    H77 6629   0.921   7.499   0.706 -0.6826  0.1742  0.4640
   37MOL    H78 6630   0.938   7.366   0.815 -1.4869 -0.9587 -0.4316
   37MOL    H79 6631   0.702   7.490   0.908 -2.0487  1.0516 -0.0917
   37MOL    H80 6632   0.602   7.637   0.762  0.2554 -1.1917 -0.2098
   37MOL    H81 6633   0.760   0.019   0.794 -1.1299 -0.8743  1.9499
   37MOL    H82 6634   0.719   7.617   0.645  0.2497 -0.7132  0.1397
   37MOL    C83 6635   0.685   7.376   0.723  0.3270 -0.0944 -0.2178
   37MOL    C84 6636   0.618   7.261   0.802  0.1010  0.1089  0.0243
   37MOL    C85 6637   0.507   7.310   0.898 -0.2163  0.1437  0.1821
   37MOL    H86 6638   0.609   7.422   0.660  0.0279 -1.9542 -1.2694
   37MOL    H87 6639   0.758   7.341   0.650  1.2380  1.7530 -0.2333
   37MOL    H88 6640   0.694   7.209   0.860 -0.5859 -1.5247 -0.5144
   37MOL    H89 6641   0.431   7.241   0.934 -0.8293  0.3291 -0.7372
   37MOL    H90 6642   0.554   7.349   0.989 -0.5376  0.7473  0.0915
   37MOL    H91 6643   0.454   7.395   0.855  0.2611  0.8150  0.8925
   37MOL    C92 6644   0.552   7.170   0.697 -0.1209  0.0285  0.0000
   37MOL    C93 6645   0.636   7.083   0.605  0.1032 -0.1513  0.4539
   37MOL    C94 6646   0.727   6.979   0.680  0.1125  0.1658 -0.6051
   37MOL    H95 6647   0.476   7.111   0.749  0.1898  0.0636  0.4851
   37MOL    H96 6648   0.492   7.234   0.632 -0.5725 -0.7984 -0.4186
   37MOL    H97 6649   0.705   7.151   0.554 -0.5945  0.3309  0.1452
   37MOL    H98 6650   0.760   6.896   0.618  2.3140 -1.1163  2.2088
   37MOL    H99 6651   0.806   7.035   0.730 -0.6888  0.1804  0.6735
   37MOL   H100 6652   0.667   6.938   0.761  0.7076 -0.1693 -0.3300
   37MOL   C101 6653   0.549   7.009   0.496  0.1206 -0.2178 -0.3057
   37MOL   C102 6654   0.501   7.102   0.380 -0.4198  0.0204  0.0889
   37MOL   C103 6655   0.615   7.127   0.276  0.6243 -0.2301 -0.1655
   37MOL   H104 6656   0.592   6.915   0.462 -2.6404 -1.6154 -0.1462
   37MOL   H105 6657   0.462   6.964   0.545 -1.3034  0.8144 -1.8409
   37MOL   H106 6658   0.468   7.199   0.417  0.8037  1.5628 -2.7095
   37MOL   H107 6659   0.620   7.045   0.203 -2.2305  0.2409 -0.9410
   37MOL   H108 6660   0.598   7.213   0.212  2.0374 -0.6693 -1.1757
   37MOL   H109 6661   0.718   7.125   0.313  0.1956 -1.1306  1.0025
   37MOL   C110 6662   0.386   7.037   0.295  0.0332  0.3126  0.5120
   37MOL   C111 6663   0.246   7.023   0.354  0.7147 -0.3123  0.6118
   37MOL   C112 6664   0.202   7.162   0.402  0.2842  0.3907 -0.3963
   37MOL   H113 6665   0.376   7.088   0.199 -1.2899 -0.2791  0.3241
   37MOL   H114 6666   0.418   6.935   0.270 -0.3582  0.3020  0.0519
   37MOL   H115 6667   0.250   6.959   0.442  0.0933  2.1865  2.5261
   37MOL   H116 6668   0.095   7.165   0.420 -0.2089 -0.8040 -2.9195
   37MOL   H117 6669   0.252   7.211   0.486  1.9647 -1.7274 -0.1182
   37MOL   H118 6670   0.233   7.225   0.318  0.8298  1.6703  0.7363
   37MOL   C119 6671   0.141   6.962   0.253  0.9298 -0.2867  0.2955
   37MOL   C120 6672   0.175   6.831   0.185 -0.1377 -0.0813  0.2219
   37MOL   C121 6673   0.208   6.715   0.285 -0.3400 -0.0849 -0.2766
   37MOL   H122 6674   0.044   6.958   0.303  0.7954  0.8417  0.1369
   37MOL   H123 6675   0.129   7.042   0.179 -2.3220 -1.5243 -0.5709
   37MOL   H124 6676   0.271   6.834   0.134  0.1686  2.7571  0.9165
   37MOL   H125 6677   0.223   6.615   0.243  2.0596 -0.1491  0.6443
   37MOL   H126 6678   0.308   6.738   0.323 -0.9810  1.1653  0.6817
   37MOL   H127 6679   0.140   6.718   0.371 -1.3234 -1.0652 -0.9994
   37MOL   C128 6680   0.067   6.779   0.085 -0.1237 -0.5193  0.6190
   37MOL   C129 6681   0.102   6.819   7.631  0.0503 -0.2502 -0.2153
   37MOL   C130 6682   7.694   6.756   7.535  0.0167 -0.7119 -0.2159
   37MOL   H131 6683   0.059   6.670   0.085  0.0505 -0.5321  0.3087
   37MOL   H132 6684   7.666   6.820   0.103 -0.3711 -0.5644 -0.6154
   37MOL   H133 6685   0.198   6.775   7.607  1.4987  1.5021  2.1962
   37MOL   H134 6686   0.037   6.747   7.434 -0.7579  2.4587 -0.8592
   37MOL   H135 6687   7.682   6.655   7.574  0.3895 -0.8301 -0.4136
   37MOL   H136 6688   7.599   6.809   7.537 -0.8132 -2.1317 -0.8082
   37MOL   C137 6689   0.109   6.972   7.628 -0.4143 -0.8575  0.5027
   37MOL   C138 6690   0.130   7.048   7.491 -0.0264 -0.0044 -0.1609
   37MOL   C139 6691   7.696   7.058   7.414 -0.1373  0.0862  0.0080
   37MOL   H140 6692   0.022   7.014   7.678  0.6402  0.9373  0.8685
   37MOL   H141 6693   0.199   6.998   7.684  0.8715  0.4533 -2.0685
   37MOL   H142 6694   0.200   6.984   7.438  0.5051 -0.5836  1.2316
   37MOL   H143 6695   7.607   7.038   7.473 -0.3281  0.4049 -0.1754
   37MOL   H144 6696   7.675   7.152   7.363 -0.7956  0.4037  0.8663
   37MOL   H145 6697   7.686   6.985   7.334 -1.3596  1.3765 -1.0323
   37MOL   C146 6698   0.200   7.190   7.499  0.5282  0.2942  0.1276
   37MOL   C147 6699   0.319   7.212   7.597 -0.5633 -0.5221  0.4270
   37MOL   C148 6700   0.440   7.127   7.562 -0.1480 -0.1588 -0.4445
   37MOL   H149 6701   0.228   7.215   7.397  0.2723 -0.0961 -0.0385
   37MOL   H150 6702   0.124   7.265   7.527  0.6529  0.6178 -0.3957
   37MOL   H151 6703   0.290   7.194   0.003 -0.3062  0.3687  0.6588
   37MOL   H152 6704   0.511   7.125   7.645  1.0211 -1.6315 -1.4329
   37MOL   H153 6705   0.406   7.025   7.540  1.8339 -1.0990  0.6427
   37MOL   H154 6706   0.480   7.160   7.466  0.0184 -0.1257 -0.3636
   37MOL   C155 6707   0.351   7.359   7.584 -0.6226  0.7432  0.2660
   37MOL   C156 6708   0.423   7.420   0.007 -0.3586  0.0773  0.3548
   37MOL   C157 6709   0.576   7.415   7.689 -0.3428 -0.2423 -0.2324
   37MOL   H158 6710   0.413   7.377   7.496 -0.6917 -1.2148 -0.2097
   37MOL   H159 6711   0.267   7.424   7.560 -1.1097  0.1499  0.3410
   37MOL   H160 6712   0.403   7.362   0.097  1.2281  0.1172  0.7558
   37MOL   H161 6713   0.612   7.316   0.019 -1.2254 -0.5913 -0.3420
   37MOL   H162 6714   0.605   7.425   7.584 -1.1390 -0.7683 -0.5045
   37MOL   H163 6715   0.630   7.491   0.049  1.6224 -2.1171  0.5001
   37MOL   C164 6716   0.378   7.566   0.029 -0.2148  0.1436  0.1432
   37MOL   C165 6717   0.230   7.589   0.078 -0.0200 -0.4248  1.0775
   37MOL   C166 6718   0.203   7.497   0.201  0.1761  0.1881  0.0941
   37MOL   H167 6719   0.435   7.611   0.110  1.7899  0.0530 -1.1769
   37MOL   H168 6720   0.393   7.627   7.637  3.0673 -0.7395  0.0256
   37MOL   H169 6721   0.163   7.554   0.000  1.8721 -0.4516 -0.6094
   37MOL   H170 6722   0.270   7.503   0.287 -2.0917 -1.2316  2.0037
   37MOL   H171 6723   0.103   7.513   0.241  0.5859  1.1344  0.7453
   37MOL   H172 6724   0.200   7.396   0.159 -2.2208  0.7492 -1.1279
   37MOL   C173 6725   0.205   0.041   0.109 -0.3700 -0.4122  0.1518
   37MOL   C174 6726   0.201   0.132   7.681  0.8100 -0.0019 -0.0667
   37MOL   C175 6727   0.209   0.283   7.693  0.3310 -0.2988 -0.5687
   37MOL   H176 6728   0.110   0.054   0.161  0.4847 -1.9568  2.1631
   37MOL   H177 6729   0.274   0.086   0.180 -1.3063  1.7116 -0.2278
   37MOL   H178 6730   0.106   0.101   7.636  1.4838 -0.5709 -1.1205
   37MOL   H179 6731   0.298   0.327   0.039  0.0695  0.4819 -0.8147
   37MOL   H180 6732   0.220   0.330   7.595  2.4301  0.7640  0.1753
   37MOL   H181 6733   0.125   0.334   0.043  0.9616  0.2909 -0.0823
   37MOL   H182 6734   0.280   0.105   7.611 -2.0759 -0.7418 -3.1604
   38MOL     C1 6735   1.767   2.110   7.339  0.6000 -0.1420  0.2750
   38MOL     C2 6736   1.665   2.149   7.238 -0.0887  0.4544  0.2546
   38MOL     C3 6737   1.730   2.238   7.127  0.3738  0.2064  0.4593
   38MOL     H4 6738   1.791   2.188   7.411  1.9212 -1.2682  1.0756
   38MOL     H5 6739   1.859   2.074   7.292 -0.5438 -3.0734  0.1807
   38MOL     H6 6740   1.593   2.206   7.296 -0.2778  2.2879 -1.6896
   38MOL     H7 6741   1.643   2.291   7.087 -0.6083 -2.5102 -1.1248
   38MOL     H8 6742   1.796   2.313   7.171  1.1245 -0.7987  1.0493
   38MOL     H9 6743   1.780   2.180   7.050 -0.6540  0.4116 -0.3714
   38MOL    H10 6744   1.737   2.025   7.400  0.8790 -0.2029  0.3298
   38MOL    C11 6745   1.592   2.023   7.171 -0.4628 -0.3142  0.5966
   38MOL    C12 6746   1.446   2.046   7.142  0.5293  0.9308  0.9029
   38MOL    C13 6747   1.439   2.069   6.990 -0.0169 -0.6672 -0.4183
   38MOL    H14 6748   1.647   1.999   7.080  3.0733 -2.6354  3.1776
   38MOL    H15 6749   1.601   1.939   7.240 -0.3586  0.9183  2.1145
   38MOL    H16 6750   1.412   2.139   7.188  1.3482  1.5289  0.3077
   38MOL    H17 6751   1.334   2.078   6.963 -0.0299 -1.8467 -0.7847
   38MOL    H18 6752   1.483   2.166   6.967  1.0826 -1.1588 -0.4389
   38MOL    H19 6753   1.473   1.990   6.923  1.5708  0.1842 -0.6340
   38MOL    C20 6754   1.359   1.925   7.188 -0.6508 -0.7982 -1.1355
   38MOL    C21 6755   1.344   1.911   7.349  0.0798  0.0651 -0.6094
   38MOL    C22 6756   1.213   1.965   7.406  0.0699  0.3534 -0.0303
   38MOL    H23 6757   1.256   1.934   7.151 -1.3993  0.1730  1.0733
   38MOL    H24 6758   1.403   1.842   7.133  0.5913 -1.2763  0.5615
   38MOL    H25 6759   1.423   1.977   7.385 -0.3545 -0.1596  0.7770
   38MOL    H26 6760   1.216   1.976   7.515  2.1203  4.8011 -0.4133
   38MOL    H27 6761   1.204   2.069   7.375  0.8133  1.7004  3.9460
   38MOL    H28 6762   1.135   1.906   7.358 -0.5626  3.3606 -2.8499
   38MOL    C29 6763   1.378   1.773   7.404  0.3738  0.2172  0.1019
   38MOL    C30 6764   1.272   1.666   7.360 -0.0705  0.3875  0.5585
   38MOL    C31 6765   1.332   1.538   7.308  0.2176 -0.4780 -0.1873
   38MOL    H32 6766   1.479   1.737   7.381 -0.1551 -1.0996 -0.2163
   38MOL    H33 6767   1.375   1.783   7.512 -0.1735  2.7948 -0.1303
   38MOL    H34 6768   1.223   1.711   7.274  1.7901  0.3504 -0.5365
   38MOL    H35 6769   1.406   1.491   7.372  0.1276 -1.2493 -0.6377
   38MOL    H36 6770   1.248   1.478   7.272 -0.5414  1.7977 -2.3720
   38MOL    H37 6771   1.389   1.567   7.219 -0.4836 -1.5073 -0.9949
   38MOL    C38 6772   1.170   1.635   7.473  0.3345  0.2443 -0.1362
   38MOL    C39 6773   1.041   1.562   7.433  0.7895  0.6342  0.1915
   38MOL    C40 6774   0.958   1.537   7.556 -0.5263  0.2990  0.5079
   38MOL    H41 6775   1.205   1.569   7.553 -1.5822 -0.7965 -0.1339
   38MOL    H42 6776   1.142   1.721   7.534  1.6302 -0.7662  1.9678
   38MOL    H43 6777   1.069   1.465   7.393 -1.1113 -0.4115  1.3094
   38MOL    H44 6778   0.893   1.623   7.569 -2.0195 -0.6066 -0.7972
   38MOL    H45 6779   0.908   1.441   7.552  1.7830 -0.8838 -1.8029
   38MOL    H46 6780   1.018   1.519   7.645 -0.0102  1.5858  0.4393
   38MOL    C47 6781   0.950   1.637   7.329 -0.8167  0.6446  0.3087
   38MOL    C48 6782   0.813   1.580   7.291  0.2250  0.7049 -0.0705
   38MOL    C49 6783   0.711   1.692   7.254 -0.2016  0.9014 -0.7312
   38MOL    H50 6784   0.942   1.742   7.360 -1.6763  0.6797 -0.0141
   38MOL    H51 6785   1.006   1.646   7.236 -2.7337  2.5583 -0.7182
   38MOL    H52 6786   0.773   1.538   7.383 -0.5767 -0.8996 -1.1382
   38MOL    H53 6787   0.723   1.779   7.318 -1.7084  1.3095 -0.9746
   38MOL    H54 6788   0.713   1.731   7.152 -0.5931 -1.7178 -1.7880
   38MOL    H55 6789   0.614   1.651   7.283  0.5362  1.1087  2.2025
   38MOL    C56 6790   0.812   1.473   7.183  0.3074 -0.6561  0.6113
   38MOL    C57 6791   0.834   1.330   7.225 -0.0721  0.5283 -0.0399
   38MOL    C58 6792   0.714   1.273   7.310 -0.5860 -0.0017 -0.1106
   38MOL    H59 6793   0.716   1.459   7.133  1.0474 -2.6065 -0.3027
   38MOL    H60 6794   0.870   1.510   7.099  0.0757 -1.6772 -0.0061
   38MOL    H61 6795   0.920   1.323   7.291 -0.7472 -0.2614  0.7701
   38MOL    H62 6796   0.679   1.172   7.290  1.5566 -0.9213  0.6903
   38MOL    H63 6797   0.752   1.251   7.410 -0.9890  0.9726  0.2659
   38MOL    H64 6798   0.630   1.341   7.325 -0.1831 -0.3600  4.5265
   38MOL    C65 6799   0.862   1.233   7.109 -0.4110 -0.4381 -0.9009
   38MOL    C66 6800   1.008   1.246   7.051  0.2212  0.2759 -0.4384
   38MOL    C67 6801   1.113   1.196   7.139  0.3241  0.4788  0.4289
   38MOL    H68 6802   0.845   1.139   7.161  0.8515 -1.3252 -2.0583
   38MOL    H69 6803   0.785   1.238   7.032  0.8914 -0.8789 -2.2583
   38MOL    H70 6804   1.025   1.354   7.053 -1.2098  0.5310 -1.6509
   38MOL    H71 6805   1.101   1.092   7.170  2.3330  0.5146  1.3680
   38MOL    H72 6806   1.213   1.211   7.099  0.1967  1.0940  0.3449
   38MOL    H73 6807   1.113   1.259   7.228  1.1281 -0.1843  0.9085
   38MOL    C74 6808   1.028   1.176   6.911  0.3439  0.8024  0.2254
   38MOL    C75 6809   0.938   1.210   6.796 -0.4892 -0.3048  0.1705
   38MOL    C76 6810   0.942   1.362   6.763  0.3233 -0.6828 -0.4722
   38MOL    H77 6811   1.131   1.175   6.875  0.1895  1.9437 -0.2747
   38MOL    H78 6812   1.009   1.071   6.931  0.5184  1.1953  2.5395
   38MOL    H79 6813   0.839   1.172   6.821 -0.8208 -0.4279 -1.3171
   38MOL    H80 6814   0.884   1.422   6.832  1.5597 -0.1667  0.1309
   38MOL    H81 6815   1.047   1.391   6.749  0.0511  1.7200  2.1863
   38MOL    H82 6816   0.890   1.370   6.668 -1.4866 -2.5430  0.3344
   38MOL    C83 6817   0.982   1.126   6.666  0.2549  0.2911 -0.3939
   38MOL    C84 6818   0.914   0.989   6.660  0.1015 -0.5416 -0.0027
   38MOL    C85 6819   0.773   1.002   6.603  0.1930 -0.1979  0.2631
   38MOL    H86 6820   0.970   1.186   6.576  1.1576  1.0805  0.0077
   38MOL    H87 6821   1.088   1.102   6.667  0.2934  0.4756  0.7043
   38MOL    H88 6822   0.896   0.944   6.758 -0.0826  1.2908  0.8217
   38MOL    H89 6823   0.709   0.916   6.584 -1.4618  1.4543 -2.0215
   38MOL    H90 6824   0.703   1.056   6.667  1.1964  1.4216  0.0150
   38MOL    H91 6825   0.776   1.042   6.502  2.2620 -0.5302  0.1751
   38MOL    C92 6826   0.982   0.886   6.569 -0.2845 -0.8171  0.7377
   38MOL    C93 6827   1.013   0.935   6.422 -0.1349  0.1195 -0.1041
   38MOL    C94 6828   1.168   0.912   6.393 -0.3150  0.2460  0.3233
   38MOL    H95 6829   1.075   0.854   6.616  0.0689 -1.4029 -0.3446
   38MOL    H96 6830   0.923   0.795   6.581  0.5907 -1.3109  1.3856
   38MOL    H97 6831   0.992   1.042   6.411  0.6814  0.3970  0.9458
   38MOL    H98 6832   1.211   0.813   6.413  0.7005  0.4158 -1.0084
   38MOL    H99 6833   1.189   0.936   6.289  0.3296 -1.1022  0.1193
   38MOL   H100 6834   1.223   0.977   6.462  0.9753 -0.0709 -0.3947
   38MOL   C101 6835   0.941   0.839   6.328  0.6302  0.6602 -0.1938
   38MOL   C102 6836   0.917   0.904   6.190 -0.0338 -0.2643 -0.4235
   38MOL   C103 6837   0.897   0.786   6.085  0.3120  0.6746  0.4455
   38MOL   H104 6838   0.991   0.742   6.326 -3.0326 -1.3357  1.0459
   38MOL   H105 6839   0.844   0.818   6.372 -0.0991  0.3296 -1.9096
   38MOL   H106 6840   1.010   0.957   6.167 -0.3380 -0.1289 -1.3377
   38MOL   H107 6841   0.860   0.838   5.996 -0.1913 -0.8916 -0.2804
   38MOL   H108 6842   0.980   0.720   6.062 -0.5498 -0.1969 -0.2078
   38MOL   H109 6843   0.822   0.722   6.131  1.4496  0.3591  1.8988
   38MOL   C110 6844   0.809   1.015   6.177  0.7611 -0.7791  0.3053
   38MOL   C111 6845   0.833   1.120   6.065  0.0403  0.2701  1.1727
   38MOL   C112 6846   0.693   1.145   5.997 -0.5823  0.3449  0.3074
   38MOL   H113 6847   0.710   0.975   6.155 -1.5308  2.9369  3.0439
   38MOL   H114 6848   0.804   1.066   6.273 -1.1093 -0.7952  0.2467
   38MOL   H115 6849   0.894   1.067   5.992  1.8855  0.3519  2.6280
   38MOL   H116 6850   0.615   1.163   6.072 -2.4288 -0.0463 -1.4744
   38MOL   H117 6851   0.699   1.228   5.927 -2.4709 -0.3534 -0.6863
   38MOL   H118 6852   0.675   1.052   5.944  0.7173 -0.4016  1.1369
   38MOL   C119 6853   0.892   1.254   6.114 -0.1759  0.4916  0.4743
   38MOL   C120 6854   1.041   1.251   6.162  0.1149 -0.1380 -0.5905
   38MOL   C121 6855   1.133   1.206   6.054 -0.0442 -0.2090  0.1884
   38MOL   H122 6856   0.888   1.330   6.035 -0.8800 -0.1772 -0.1362
   38MOL   H123 6857   0.827   1.283   6.196 -2.3834 -1.8735 -0.3734
   38MOL   H124 6858   1.045   1.176   6.241  1.1416  1.3591  0.8325
   38MOL   H125 6859   1.174   1.297   6.010 -0.5930  1.3198  2.7461
   38MOL   H126 6860   1.215   1.151   6.101 -1.0005  0.3489  2.5830
   38MOL   H127 6861   1.098   1.148   5.968 -1.1926  1.0117 -0.1689
   38MOL   C128 6862   1.074   1.387   6.228 -0.7691  0.3443  0.7093
   38MOL   C129 6863   1.209   1.397   6.299  0.6333 -0.3785  0.4038
   38MOL   C130 6864   1.232   1.291   6.400  0.3287 -0.4337  0.0962
   38MOL   H131 6865   1.082   1.465   6.152 -1.6042  1.0550  1.3450
   38MOL   H132 6866   0.994   1.415   6.297 -2.6408  0.5040 -1.4829
   38MOL   H133 6867   1.194   1.485   6.361  0.1909  1.0695 -1.7213
   38MOL   H134 6868   1.315   1.327   6.463  0.5106  1.2207 -1.0607
   38MOL   H135 6869   1.152   1.281   6.473  2.1646 -1.6459  2.0104
   38MOL   H136 6870   1.255   1.194   6.356  0.2034 -0.5431  0.2697
   38MOL   C137 6871   1.336   1.431   6.205  0.1366 -0.6473  0.2723
   38MOL   C138 6872   1.334   1.547   6.113 -0.2572  0.3758  0.2674
   38MOL   C139 6873   1.297   1.674   6.194 -0.4160 -0.9756 -0.1525
   38MOL   H140 6874   1.415   1.448   6.278 -0.4469 -1.0382  1.0021
   38MOL   H141 6875   1.374   1.347   6.147  2.1027 -0.6746  1.5451
   38MOL   H142 6876   1.252   1.531   6.044  0.4834  0.7506 -0.7133
   38MOL   H143 6877   1.281   1.764   6.134  1.7991 -1.3003 -1.2922
   38MOL   H144 6878   1.199   1.665   6.241 -0.1436 -0.4064  0.5398
   38MOL   H145 6879   1.373   1.705   6.266  0.3179  0.2958 -1.4348
   38MOL   C146 6880   1.464   1.552   6.027 -0.5960  0.2813  0.6155
   38MOL   C147 6881   1.429   1.599   5.879  0.4250 -0.5743 -0.6213
   38MOL   C148 6882   1.545   1.681   5.822  0.4330 -0.8041 -0.2975
   38MOL   H149 6883   1.520   1.627   6.083 -3.5558  1.2294  2.4458
   38MOL   H150 6884   1.527   1.464   6.031  1.0834  1.2392 -3.2521
   38MOL   H151 6885   1.334   1.651   5.875  0.0057 -1.4437 -2.2630
   38MOL   H152 6886   1.635   1.625   5.795  0.2542 -1.0260 -0.4429
   38MOL   H153 6887   1.516   1.731   5.729 -0.1429 -0.0109  0.3082
   38MOL   H154 6888   1.577   1.768   5.879 -0.9746 -0.5400  0.0959
   38MOL   C155 6889   1.397   1.479   5.795 -0.2126 -0.4385  0.3238
   38MOL   C156 6890   1.350   1.499   5.653 -0.0144 -0.5332  0.8139
   38MOL   C157 6891   1.473   1.500   5.556  0.2182  0.4764 -0.6217
   38MOL   H158 6892   1.474   1.403   5.801 -0.9455 -1.3032 -0.9880
   38MOL   H159 6893   1.315   1.431   5.848 -0.9577 -0.4814 -0.8348
   38MOL   H160 6894   1.308   1.600   5.654 -0.7852 -0.8612  1.3991
   38MOL   H161 6895   1.523   1.406   5.581 -1.3411  0.0481  1.0531
   38MOL   H162 6896   1.446   1.491   5.451 -1.5905 -1.9104 -0.0133
   38MOL   H163 6897   1.541   1.583   5.575 -0.7718  1.1974 -0.1772
   38MOL   C164 6898   1.249   1.386   5.613  0.5455 -0.0346 -0.0933
   38MOL   C165 6899   1.112   1.391   5.681 -0.4811 -0.0668  0.6152
   38MOL   C166 6900   1.057   1.529   5.709 -0.1924 -1.1766  0.7168
   38MOL   H167 6901   1.232   1.381   5.505  0.7381  0.0359 -0.1262
   38MOL   H168 6902   1.294   1.289   5.637 -0.2531 -0.6236 -0.9246
   38MOL   H169 6903   1.123   1.343   5.779 -0.7516 -1.9270 -0.2411
   38MOL   H170 6904   0.954   1.533   5.746 -0.0002  0.2333  1.1467
   38MOL   H171 6905   1.120   1.579   5.782  1.0018  0.8586 -1.6394
   38MOL   H172 6906   1.062   1.583   5.615 -0.2530 -2.3013  0.0601
   38MOL   C173 6907   1.008   1.304   5.610 -0.7131  0.1244 -0.1018
   38MOL   C174 6908   0.909   1.242   5.703 -0.6744 -0.8541  0.1284
   38MOL   C175 6909   0.817   1.149   5.637 -0.1213 -0.4733  0.1417
   38MOL   H176 6910   0.964   1.376   5.541  1.4039 -0.3622 -2.0099
   38MOL   H177 6911   1.061   1.234   5.546 -0.8094  0.4500 -0.5446
   38MOL   H178 6912   0.854   1.329   5.741  0.3551  0.9864 -2.4839
   38MOL   H179 6913   0.857   1.051   5.612 -3.9473 -3.1057  3.7291
   38MOL   H180 6914   0.739   1.124   5.708  0.6753 -1.3485  0.7184
   38MOL   H181 6915   0.778   1.190   5.544  0.9557  0.8183  0.2425
   38MOL   H182 6916   0.955   1.194   5.790 -0.1775  1.6468  1.3107
   39MOL     C1 6917   0.172   4.362   6.681  0.0590 -0.4240  0.6797
   39MOL     C2 6918   0.051   4.462   6.674  0.2542  0.2102 -0.5816
   39MOL     C3 6919   0.026   4.493   6.522 -0.1236 -0.3784 -0.3269
   39MOL     H4 6920   0.258   4.377   6.616 -0.3440 -1.0549 -0.0211
   39MOL     H5 6921   0.138   4.259   6.670 -1.4015  0.0887  0.2663
   39MOL     H6 6922   0.084   4.554   6.722  0.6678 -0.5047  0.5189
   39MOL     H7 6923   7.662   4.583   6.516 -1.5915 -1.0986  2.8460
   39MOL     H8 6924   0.123   4.517   6.476 -1.4687  2.4097 -1.8634
   39MOL     H9 6925   7.678   4.414   6.462 -0.7356 -0.6478  0.4792
   39MOL    H10 6926   0.210   4.369   6.783 -1.4662 -0.9711  1.3073
   39MOL    C11 6927   7.620   4.420   6.745  0.1348  0.7343 -0.5633
   39MOL    C12 6928   7.497   4.518   6.742 -0.2963  0.5172 -0.7093
   39MOL    C13 6929   7.407   4.480   6.632 -0.3853  0.0750 -0.2962
   39MOL    H14 6930   7.596   4.320   6.710  1.5422  1.0212 -2.4586
   39MOL    H15 6931   7.645   4.389   6.846  0.3420  1.4321 -0.3950
   39MOL    H16 6932   7.530   4.620   6.723  1.6103 -0.0533 -0.5443
   39MOL    H17 6933   7.306   4.517   6.652 -0.6407 -0.4300 -0.6629
   39MOL    H18 6934   7.435   4.504   6.530 -0.0808  1.3316  0.0684
   39MOL    H19 6935   7.389   4.373   6.642 -0.2996  0.3133  3.0002
   39MOL    C20 6936   7.422   4.533   6.880  0.1514  0.1681  0.1326
   39MOL    C21 6937   7.477   4.648   6.968 -0.3103  0.5450  0.0844
   39MOL    C22 6938   7.407   4.787   6.939  0.1317  0.3459  0.0020
   39MOL    H23 6939   7.316   4.558   6.869  0.2588  0.2192 -0.8562
   39MOL    H24 6940   7.428   4.437   6.931 -1.2426  0.0985  0.1823
   39MOL    H25 6941   7.584   4.657   6.948 -0.1562  0.4884  0.8442
   39MOL    H26 6942   7.447   4.874   6.991  0.2443  1.2575 -1.5474
   39MOL    H27 6943   7.421   4.811   6.833  2.0261  0.3898  0.2522
   39MOL    H28 6944   7.302   4.791   6.966  0.1810 -0.4948  0.3051
   39MOL    C29 6945   7.469   4.622   7.125  0.1127  0.2913 -0.1011
   39MOL    C30 6946   7.568   4.520   7.183 -0.2204  0.4646  0.3047
   39MOL    C31 6947   0.020   4.526   7.127 -0.0831  0.3864 -0.8330
   39MOL    H32 6948   7.491   4.716   7.176  0.8643 -0.4571  0.9703
   39MOL    H33 6949   7.367   4.601   7.157  0.2776  0.8683  0.8158
   39MOL    H34 6950   7.518   4.433   7.141  2.6455 -0.9562 -0.3173
   39MOL    H35 6951   0.101   4.501   7.196  0.1852  1.5467 -0.7179
   39MOL    H36 6952   0.041   4.450   7.052 -2.0886  0.1404 -1.1749
   39MOL    H37 6953   0.044   4.625   7.089  3.0738  0.5705  1.4387
   39MOL    C38 6954   7.568   4.529   7.336  0.5271 -0.0983 -0.0765
   39MOL    C39 6955   7.447   4.454   7.403  0.3665  0.8067  0.9109
   39MOL    C40 6956   7.467   4.304   7.385 -0.1286 -0.5047  0.2636
   39MOL    H41 6957   7.665   4.490   7.367  0.2377  0.7483  2.0122
   39MOL    H42 6958   7.565   4.636   7.356  1.0828  0.0022 -0.5486
   39MOL    H43 6959   7.359   4.474   7.341  0.6024  1.0917  0.6677
   39MOL    H44 6960   7.532   4.274   7.302 -3.1974  1.5187 -3.0138
   39MOL    H45 6961   7.531   4.274   7.467  2.2519  2.4498 -0.4384
   39MOL    H46 6962   7.380   4.238   7.380 -2.0143  1.9025  0.9237
   39MOL    C47 6963   7.418   4.496   7.550 -0.1957 -0.4705 -0.0059
   39MOL    C48 6964   7.288   4.451   7.629  0.6606 -0.6193  0.5814
   39MOL    C49 6965   7.165   4.509   7.563 -0.4037 -0.3711 -0.0381
   39MOL    H50 6966   7.504   4.455   7.605  0.3083 -0.9013 -1.1052
   39MOL    H51 6967   7.431   4.604   7.557  1.1601 -0.5320 -1.4008
   39MOL    H52 6968   7.305   4.503   0.026  2.8790  0.1787 -0.2250
   39MOL    H53 6969   7.188   4.614   7.545 -0.3052  0.2344  3.2675
   39MOL    H54 6970   7.152   4.467   7.463  1.2142 -0.7887 -0.0889
   39MOL    H55 6971   7.080   4.489   7.629 -0.2382  1.7137  0.8416
   39MOL    C56 6972   7.285   4.300   7.643 -0.4675 -0.2312  0.3365
   39MOL    C57 6973   7.204   4.234   0.065 -0.3372  0.1632 -0.7211
   39MOL    C58 6974   7.276   4.274   0.199 -0.0544  0.1720 -0.0239
   39MOL    H59 6975   7.257   4.244   7.553  1.2973 -2.9807  1.4082
   39MOL    H60 6976   7.385   4.267   7.673 -1.4747 -3.9610 -0.1220
   39MOL    H61 6977   7.209   4.126   0.049  0.5772  0.0997 -0.0253
   39MOL    H62 6978   7.279   4.380   0.226  0.3126 -0.0505  0.8604
   39MOL    H63 6979   7.241   4.212   0.281  3.5991 -1.8955  0.0898
   39MOL    H64 6980   7.380   4.242   0.192 -0.3014 -1.2893  2.3228
   39MOL    C65 6981   7.050   4.261   0.081  0.8601  0.0901 -1.0952
   39MOL    C66 6982   6.957   4.244   7.660  0.2477  0.1509  0.2139
   39MOL    C67 6983   6.924   4.091   7.649  0.8501  0.3274 -0.5670
   39MOL    H68 6984   7.005   4.214   0.169  0.6055 -1.3714 -1.9917
   39MOL    H69 6985   7.057   4.367   0.104 -1.7040 -0.3065  1.8209
   39MOL    H70 6986   7.016   4.278   7.574 -0.2744  0.3769 -0.0550
   39MOL    H71 6987   6.865   4.066   7.561 -0.8345  0.7713  0.4099
   39MOL    H72 6988   7.016   4.033   7.643 -0.3058 -1.4050 -2.1931
   39MOL    H73 6989   6.864   4.055   0.035 -0.8775  2.1433 -0.9787
   39MOL    C74 6990   6.836   4.336   7.684 -0.4732 -0.1732  0.6373
   39MOL    C75 6991   6.794   4.420   7.557 -0.3857 -0.3981 -0.5427
   39MOL    C76 6992   6.750   4.322   7.457  0.3478  0.2572 -0.1368
   39MOL    H77 6993   6.748   4.287   0.028  0.2975  0.2327  2.7767
   39MOL    H78 6994   6.872   4.413   0.055  1.1318 -0.3529  0.0334
   39MOL    H79 6995   6.880   4.477   7.521 -0.8203  0.9291  0.4662
   39MOL    H80 6996   6.829   4.248   7.440 -0.2063 -0.2917 -0.3537
   39MOL    H81 6997   6.654   4.282   7.490  0.7181  1.8701  2.9875
   39MOL    H82 6998   6.740   4.364   7.357 -2.6566 -1.8006 -0.7684
   39MOL    C83 6999   6.693   4.532   7.595 -0.4572  0.1134  0.3769
   39MOL    C84 7000   6.642   4.623   7.473 -0.4921  0.3949  0.0143
   39MOL    C85 7001   6.507   4.574   7.422  0.1890  0.6354 -0.7609
   39MOL    H86 7002   6.610   4.485   7.647 -1.2157  0.6129 -0.3543
   39MOL    H87 7003   6.743   4.597   7.667  0.1622 -0.2854  0.3122
   39MOL    H88 7004   6.715   4.609   7.394  0.0263  1.7776  0.2329
   39MOL    H89 7005   6.510   4.471   7.385  1.6810 -0.3644  1.9769
   39MOL    H90 7006   6.437   4.580   7.505 -1.0169 -0.5387 -1.6854
   39MOL    H91 7007   6.460   4.635   7.345 -1.1080 -1.0858 -1.3565
   39MOL    C92 7008   6.624   4.770   7.506  0.0474 -0.7467  0.1282
   39MOL    C93 7009   6.752   4.855   7.532 -0.1778  0.2133 -0.2454
   39MOL    C94 7010   6.855   4.842   7.424  0.3230  0.2707  0.5862
   39MOL    H95 7011   6.568   4.818   7.426 -1.3040 -1.0092  0.9017
   39MOL    H96 7012   6.558   4.779   7.593  1.0984 -0.4617  0.9173
   39MOL    H97 7013   6.802   4.811   7.619  2.2827  1.4219 -0.9965
   39MOL    H98 7014   6.881   4.743   7.387  2.0557  0.1888  1.9758
   39MOL    H99 7015   6.834   4.899   7.333  2.2459 -0.6118 -0.4303
   39MOL   H100 7016   6.946   4.897   7.447  0.7201 -1.0780  2.3350
   39MOL   C101 7017   6.728   5.009   7.558  0.2759 -0.2469 -0.2739
   39MOL   C102 7018   6.612   5.042   7.656  0.4416 -0.4629 -0.3595
   39MOL   C103 7019   6.622   4.968   0.094 -0.7107 -0.8425 -0.1777
   39MOL   H104 7020   6.827   5.026   7.600 -0.3554 -1.0119  1.6250
   39MOL   H105 7021   6.709   5.055   7.462  0.0522  0.5350  0.1438
   39MOL   H106 7022   6.521   5.014   7.603 -0.4142  2.0865 -0.3266
   39MOL   H107 7023   6.632   4.860   0.103 -1.2110 -0.9360 -0.7476
   39MOL   H108 7024   6.712   4.996   0.151 -0.4851  1.2689 -1.5279
   39MOL   H109 7025   6.542   5.008   0.156 -1.6114 -1.9200 -0.6446
   39MOL   C110 7026   6.600   5.195   7.681  0.4056  0.6404  0.1204
   39MOL   C111 7027   6.580   5.291   7.567  0.3925  0.9288  0.2730
   39MOL   C112 7028   6.478   5.231   7.464  0.4471  0.4491 -0.1595
   39MOL   H113 7029   6.521   5.211   0.058 -0.9959  0.8497 -1.3854
   39MOL   H114 7030   6.691   5.222   0.037 -0.0968 -0.7284  1.7574
   39MOL   H115 7031   6.677   5.283   7.517  0.6303 -0.7934  0.9676
   39MOL   H116 7032   6.503   5.129   7.437  1.9003  0.5722  0.6179
   39MOL   H117 7033   6.382   5.230   7.515  1.1993 -0.5945  1.2874
   39MOL   H118 7034   6.468   5.295   7.376  0.2904 -0.9705 -1.1819
   39MOL   C119 7035   6.567   5.432   7.615 -0.0222  0.4417 -0.8325
   39MOL   C120 7036   6.559   5.551   7.520 -0.2819  0.0005 -0.1227
   39MOL   C121 7037   6.499   5.668   7.606 -0.1998  0.0927 -0.5802
   39MOL   H122 7038   6.475   5.436   7.674  1.0140 -1.2179  0.9326
   39MOL   H123 7039   6.646   5.450   7.688 -0.6402  0.6420 -0.2054
   39MOL   H124 7040   6.481   5.528   7.447 -1.7549  0.6172  1.2325
   39MOL   H125 7041   6.567   5.701   7.684  0.7115 -1.4403 -0.6990
   39MOL   H126 7042   6.489   5.759   7.548  3.0228 -0.5148 -2.1872
   39MOL   H127 7043   6.401   5.653   7.651 -0.3338  2.6646  0.0651
   39MOL   C128 7044   6.697   5.578   7.449 -0.1661  0.5938 -0.7179
   39MOL   C129 7045   6.689   5.631   7.307 -0.7772  0.7371  0.7140
   39MOL   C130 7046   6.614   5.766   7.290 -0.0165 -0.3486  0.2596
   39MOL   H131 7047   6.771   5.639   7.501  0.5817  0.9787 -2.2033
   39MOL   H132 7048   6.738   5.478   7.435  1.3306  0.9254  1.0630
   39MOL   H133 7049   6.626   5.562   7.251  0.6266  0.8596 -1.0525
   39MOL   H134 7050   6.602   5.800   7.187  1.5094  0.0470  0.2027
   39MOL   H135 7051   6.522   5.777   7.347  0.0288 -0.1613  0.2949
   39MOL   H136 7052   6.681   5.837   7.338  0.7301  0.4014 -1.8185
   39MOL   C137 7053   6.832   5.630   7.247  0.1794  0.1700 -0.0645
   39MOL   C138 7054   6.856   5.658   7.095 -0.2517 -0.1025  1.1633
   39MOL   C139 7055   7.009   5.640   7.069 -0.2260  0.6022 -0.1198
   39MOL   H140 7056   6.898   5.698   7.302 -0.3819 -0.4983  1.4794
   39MOL   H141 7057   6.867   5.528   7.265  0.5267  0.1456 -0.8697
   39MOL   H142 7058   6.827   5.762   7.085 -0.6856 -0.3762 -0.6330
   39MOL   H143 7059   7.040   5.658   6.966  1.4862 -0.7145  0.1266
   39MOL   H144 7060   7.068   5.715   7.123  1.4804 -0.0805 -0.9889
   39MOL   H145 7061   7.050   5.542   7.097 -2.3701 -0.2740 -0.0020
   39MOL   C146 7062   6.777   5.580   6.996 -0.3282 -0.2245  0.1593
   39MOL   C147 7063   6.779   5.623   6.848  0.4499  0.0160  0.4483
   39MOL   C148 7064   6.713   5.518   6.764  0.1930  0.3909  0.1974
   39MOL   H149 7065   6.810   5.476   7.002 -1.4846 -0.5771  0.5409
   39MOL   H150 7066   6.671   5.572   7.021 -0.4771 -0.6954 -0.6154
   39MOL   H151 7067   6.883   5.609   6.819  0.3605 -2.4621  1.1737
   39MOL   H152 7068   6.605   5.528   6.755  0.3428  0.4284 -1.9440
   39MOL   H153 7069   6.750   5.527   6.662  0.2797 -0.5126  0.1444
   39MOL   H154 7070   6.746   5.419   6.794 -0.0952  1.4812  4.5047
   39MOL   C155 7071   6.735   5.774   6.826 -0.0581 -0.6174  0.1398
   39MOL   C156 7072   6.600   5.835   6.881  0.5250 -0.5463  0.6832
   39MOL   C157 7073   6.618   5.983   6.904  0.5059 -0.2789  0.4525
   39MOL   H158 7074   6.811   5.841   6.865 -0.3636 -2.1651  3.5181
   39MOL   H159 7075   6.734   5.795   6.719 -1.7131 -0.9052  0.0898
   39MOL   H160 7076   6.581   5.780   6.974  1.2903 -1.3086  0.4024
   39MOL   H161 7077   6.548   6.031   6.973  3.0589  3.9542  0.2402
   39MOL   H162 7078   6.711   5.995   6.959 -1.0099 -1.0173  3.2805
   39MOL   H163 7079   6.612   6.041   6.812  1.2784 -0.1343  0.4921
   39MOL   C164 7080   6.477   5.794   6.795  0.5692  0.1133  0.2194
   39MOL   C165 7081   6.340   5.821   6.858  0.3358  0.1991 -0.0614
   39MOL   C166 7082   6.229   5.802   6.756  0.3657  0.6133  1.0784
   39MOL   H167 7083   6.489   5.847   6.700  0.9882  1.0003  0.7613
   39MOL   H168 7084   6.484   5.689   6.766 -1.8796 -0.3132  1.0936
   39MOL   H169 7085   6.341   5.929   6.874  0.9409  0.5704 -2.3997
   39MOL   H170 7086   6.234   5.699   6.721  0.8027  1.3396 -1.0942
   39MOL   H171 7087   6.128   5.806   6.794 -0.7246 -0.8369 -1.5235
   39MOL   H172 7088   6.238   5.882   6.681  2.0944  1.5572  2.2350
   39MOL   C173 7089   6.308   5.739   6.988  0.3308 -0.4339  1.2095
   39MOL   C174 7090   6.308   5.586   6.974 -0.3415 -0.3506 -0.3685
   39MOL   C175 7091   6.292   5.533   7.115 -0.1546 -1.0432 -0.0605
   39MOL   H176 7092   6.389   5.766   7.055  1.9510 -0.9708 -0.5000
   39MOL   H177 7093   6.213   5.776   7.027 -0.1099  1.3660 -1.4390
   39MOL   H178 7094   6.397   5.546   6.925  0.4757  1.4821 -0.4170
   39MOL   H179 7095   6.190   5.563   7.141  0.0288 -1.8465  1.6206
   39MOL   H180 7096   6.305   5.426   7.133 -2.1032 -1.2277  0.3889
   39MOL   H181 7097   6.368   5.584   7.174 -0.6910 -0.6604  0.3045
   39MOL   H182 7098   6.228   5.562   6.904  0.0342  0.4439 -1.0790
   40MOL     C1 7099   3.686   3.220   1.692  0.0375 -0.1030  0.4816
   40MOL     C2 7100   3.757   3.142   1.807  0.3535  0.3668  0.1221
   40MOL     C3 7101   3.813   3.009   1.756 -0.1127 -0.1440 -0.4138
   40MOL     H4 7102   3.632   3.153   1.625 -0.3495  0.7059 -0.0325
   40MOL     H5 7103   3.756   3.277   1.631  0.0355 -0.8458 -0.2220
   40MOL     H6 7104   3.687   3.108   1.883 -0.1000 -0.8887 -0.8370
   40MOL     H7 7105   3.735   2.938   1.729  2.2933 -2.7639 -0.6925
   40MOL     H8 7106   3.880   3.035   1.674 -1.2545  2.2163 -0.6338
   40MOL     H9 7107   3.872   2.971   1.839  0.0377 -0.1818 -0.5381
   40MOL    H10 7108   3.619   3.293   1.738 -0.3224 -1.0967  1.5630
   40MOL    C11 7109   3.855   3.237   1.882 -0.3182  0.4844 -0.4877
   40MOL    C12 7110   3.795   3.372   1.926  0.0691 -0.0279 -0.5693
   40MOL    C13 7111   3.706   3.352   2.049  0.0189  0.2238  0.7121
   40MOL    H14 7112   3.895   3.167   1.956  1.1341 -0.6224 -2.2765
   40MOL    H15 7113   3.936   3.247   1.809 -0.8453  1.3483 -0.9496
   40MOL    H16 7114   3.728   3.422   1.857 -0.7028  0.2292  0.3551
   40MOL    H17 7115   3.638   3.269   2.031 -0.6732  0.3983  2.4649
   40MOL    H18 7116   3.772   3.312   2.125  1.1903 -0.4944 -0.6520
   40MOL    H19 7117   3.655   3.444   2.075 -2.4603 -0.2663 -2.1448
   40MOL    C20 7118   3.907   3.469   1.962 -0.0188 -0.2078  0.3827
   40MOL    C21 7119   3.892   3.622   1.950  0.5030 -0.3570  0.6266
   40MOL    C22 7120   3.777   3.687   2.026  0.2536 -0.3721 -0.2953
   40MOL    H23 7121   3.951   3.456   2.061 -1.9764  2.3866  1.6423
   40MOL    H24 7122   3.992   3.449   1.895 -1.3378 -0.2819 -1.3017
   40MOL    H25 7123   3.865   3.654   1.850  2.2923 -0.4410  0.0885
   40MOL    H26 7124   3.791   3.681   2.134 -0.9807 -0.9098 -0.1562
   40MOL    H27 7125   3.770   3.788   1.986 -0.1476 -1.0655 -2.0294
   40MOL    H28 7126   3.683   3.642   1.995  0.5490  0.3822 -2.3713
   40MOL    C29 7127   4.028   3.692   1.983  0.3143  0.1506  0.0176
   40MOL    C30 7128   4.148   3.671   1.892 -0.0942  0.7585  0.4641
   40MOL    C31 7129   4.112   3.726   1.755  0.4312 -0.8188  0.4569
   40MOL    H32 7130   4.019   3.801   1.982 -0.8567  0.0910  1.7900
   40MOL    H33 7131   4.058   3.675   2.087 -2.3247  0.2025  0.8096
   40MOL    H34 7132   4.172   3.565   1.883  0.5549  0.5609  3.7934
   40MOL    H35 7133   4.112   3.835   1.749 -0.3260 -0.6438  3.0737
   40MOL    H36 7134   4.187   3.692   1.683  1.2978 -0.3319  1.1127
   40MOL    H37 7135   4.015   3.682   1.732 -0.2304  1.4039 -1.2866
   40MOL    C38 7136   4.267   3.742   1.957  0.2420  0.3846  0.6606
   40MOL    C39 7137   4.401   3.736   1.883  0.1903  0.3396  0.4168
   40MOL    C40 7138   4.506   3.837   1.932  0.1339  0.2622  0.1840
   40MOL    H41 7139   4.228   3.844   1.961  1.6561  0.9794 -0.1039
   40MOL    H42 7140   4.284   3.721   2.062  0.3662 -0.5119  0.4615
   40MOL    H43 7141   4.390   3.756   1.776  1.4390 -1.3244 -0.0525
   40MOL    H44 7142   4.539   3.826   2.035 -0.2595  0.2314  0.3061
   40MOL    H45 7143   4.584   3.839   1.855 -0.5393 -1.1157 -0.5568
   40MOL    H46 7144   4.470   3.939   1.935 -1.9440 -0.4427 -0.0513
   40MOL    C47 7145   4.456   3.588   1.878 -0.0478  0.1451 -0.1759
   40MOL    C48 7146   4.596   3.558   1.816  0.5165 -0.2773  0.0977
   40MOL    C49 7147   4.702   3.563   1.924  0.0857 -1.0487 -0.0042
   40MOL    H50 7148   4.449   3.545   1.978 -0.7198  1.2957  0.2844
   40MOL    H51 7149   4.381   3.526   1.830 -2.2047  0.6001  2.4564
   40MOL    H52 7150   4.625   3.623   1.733 -0.8140 -1.7476 -1.5648
   40MOL    H53 7151   4.801   3.532   1.888  0.8617  3.1184 -1.7950
   40MOL    H54 7152   4.712   3.668   1.951 -0.9463 -1.1670  0.8515
   40MOL    H55 7153   4.675   3.501   2.009  0.9070 -0.4944  0.6717
   40MOL    C56 7154   4.605   3.408   1.761 -0.3630  0.2626  0.3888
   40MOL    C57 7155   4.546   3.391   1.623 -0.4294 -0.7382  0.2958
   40MOL    C58 7156   4.630   3.450   1.515  0.2283 -0.1847 -0.9190
   40MOL    H59 7157   4.710   3.382   1.750 -0.7496 -1.0382 -0.3475
   40MOL    H60 7158   4.572   3.334   1.835 -0.1905  0.6897  0.8973
   40MOL    H61 7159   4.451   3.443   1.638 -0.7641 -1.5264  0.9960
   40MOL    H62 7160   4.663   3.548   1.547 -1.5832  0.0437  0.3318
   40MOL    H63 7161   4.712   3.379   1.504 -0.5735 -0.9597 -2.0874
   40MOL    H64 7162   4.576   3.483   1.426 -0.1739  0.2479 -0.5218
   40MOL    C65 7163   4.514   3.237   1.593 -0.1491  0.5879 -0.3016
   40MOL    C66 7164   4.389   3.221   1.503 -0.2480  0.8366 -0.8609
   40MOL    C67 7165   4.391   3.072   1.454 -0.2126 -0.4225  0.0693
   40MOL    H68 7166   4.593   3.184   1.539 -1.0451 -2.6205  1.4089
   40MOL    H69 7167   4.511   3.189   1.691 -0.5777  3.2078  0.9950
   40MOL    H70 7168   4.415   3.285   1.419  0.2829  0.0617 -1.2988
   40MOL    H71 7169   4.492   3.045   1.424 -1.1162 -0.0357 -3.4282
   40MOL    H72 7170   4.358   3.001   1.530 -0.4173  0.6427  0.9967
   40MOL    H73 7171   4.328   3.055   1.367  1.6984  0.7617 -1.5737
   40MOL    C74 7172   4.246   3.258   1.561  0.0612 -0.4662 -0.1967
   40MOL    C75 7173   4.155   3.306   1.443  0.5737 -0.4602  1.1867
   40MOL    C76 7174   4.000   3.313   1.483  0.5585 -0.3485  0.1341
   40MOL    H77 7175   4.202   3.170   1.608 -1.7445 -0.0708 -1.0750
   40MOL    H78 7176   4.250   3.332   1.641 -0.4912 -1.0696  0.3905
   40MOL    H79 7177   4.152   3.224   1.371 -1.8355  0.0521  0.6489
   40MOL    H80 7178   3.969   3.381   1.562 -0.9927 -1.0018  0.1072
   40MOL    H81 7179   3.938   3.325   1.394  0.4779  0.6788  0.3258
   40MOL    H82 7180   3.964   3.213   1.506 -0.7737  0.1051  0.0450
   40MOL    C83 7181   4.190   3.437   1.373 -0.0274 -0.6524  0.2049
   40MOL    C84 7182   4.187   3.425   1.218 -0.1818  0.1150 -0.0581
   40MOL    C85 7183   4.049   3.383   1.174 -0.0860  0.2107 -0.3208
   40MOL    H86 7184   4.118   3.506   1.417  0.8176  0.2071  0.2688
   40MOL    H87 7185   4.285   3.480   1.406  0.1535  0.9769 -2.2369
   40MOL    H88 7186   4.254   3.346   1.184  0.4889  0.2522  0.9091
   40MOL    H89 7187   4.058   3.397   1.066 -1.2132  0.6753 -0.3616
   40MOL    H90 7188   4.022   3.279   1.191 -1.6111  0.4448 -1.2159
   40MOL    H91 7189   3.968   3.452   1.196 -1.4812 -1.7345  0.8486
   40MOL    C92 7190   4.233   3.551   1.146  0.2889  0.3929  0.8384
   40MOL    C93 7191   4.383   3.588   1.168  0.1205 -0.1638  0.4792
   40MOL    C94 7192   4.466   3.498   1.070 -0.1176 -0.0714 -0.8087
   40MOL    H95 7193   4.212   3.540   1.040  0.2375  0.7975  0.8039
   40MOL    H96 7194   4.162   3.628   1.175  0.0584  0.6070 -0.2848
   40MOL    H97 7195   4.411   3.548   1.266  0.1977  0.5288  0.7393
   40MOL    H98 7196   4.566   3.540   1.086  0.7433 -2.2633 -0.2598
   40MOL    H99 7197   4.455   3.393   1.097 -0.3178  0.1828  0.1439
   40MOL   H100 7198   4.445   3.511   0.964  3.7361  2.0631 -1.4075
   40MOL   C101 7199   4.413   3.740   1.157  0.8176  0.3281 -0.0146
   40MOL   C102 7200   4.365   3.832   1.263  0.4456  0.2825  0.0850
   40MOL   C103 7201   4.398   3.782   1.398 -0.3135  0.1812 -0.6712
   40MOL   H104 7202   4.521   3.752   1.147  1.0748 -1.4513  0.3606
   40MOL   H105 7203   4.385   3.771   1.057 -1.6310 -0.1583  0.4982
   40MOL   H106 7204   4.256   3.833   1.255  0.4806  2.4282 -0.4161
   40MOL   H107 7205   4.502   3.768   1.426 -1.0490  0.1657  2.2952
   40MOL   H108 7206   4.368   3.868   1.459 -1.9360 -0.1643 -0.9551
   40MOL   H109 7207   4.339   3.692   1.419  1.4565 -0.5144  1.5008
   40MOL   C110 7208   4.407   3.983   1.249  0.3780  0.7082 -0.0165
   40MOL   C111 7209   4.397   4.044   1.103  0.0027 -0.4352 -0.0738
   40MOL   C112 7210   4.250   4.054   1.061 -0.1591  0.3904  0.2280
   40MOL   H113 7211   4.354   4.051   1.316  1.0981  3.0042 -1.7407
   40MOL   H114 7212   4.511   3.999   1.279  0.9432 -1.7869 -0.5694
   40MOL   H115 7213   4.447   3.979   1.032 -0.8466 -1.2660  0.0787
   40MOL   H116 7214   4.229   4.105   0.967 -0.9820 -0.0964  0.1441
   40MOL   H117 7215   4.204   3.955   1.052  0.4510 -0.1240  2.3432
   40MOL   H118 7216   4.204   4.115   1.138 -0.6798  1.5552 -0.9986
   40MOL   C119 7217   4.463   4.183   1.093  0.0359  0.2949  0.6064
   40MOL   C120 7218   4.615   4.177   1.067  0.0466 -0.0429  0.6307
   40MOL   C121 7219   4.643   4.149   0.919 -0.9913 -0.0510  0.5347
   40MOL   H122 7220   4.417   4.253   1.023  2.9483  1.3517 -0.3155
   40MOL   H123 7221   4.440   4.240   1.183  1.4341  1.1442  0.4402
   40MOL   H124 7222   4.647   4.086   1.118 -2.2793 -1.7675 -0.8761
   40MOL   H125 7223   4.618   4.237   0.859 -0.1629 -0.3514 -0.2543
   40MOL   H126 7224   4.749   4.148   0.893 -1.3321 -0.1472 -0.8849
   40MOL   H127 7225   4.592   4.063   0.876 -1.3058  1.0294 -1.3055
   40MOL   C128 7226   4.697   4.297   1.115  0.5930 -0.2423 -0.0202
   40MOL   C129 7227   4.699   4.319   1.273 -0.0414 -0.2694 -0.3272
   40MOL   C130 7228   4.779   4.221   1.351 -0.0972  0.3905  0.1747
   40MOL   H131 7229   4.797   4.306   1.074  0.9215 -0.8908  0.6298
   40MOL   H132 7230   4.644   4.382   1.071 -0.3486 -0.3222  0.9422
   40MOL   H133 7231   4.594   4.310   1.300  0.1937  1.1921  1.1671
   40MOL   H134 7232   4.765   4.242   1.457  1.5396  1.3860  0.2110
   40MOL   H135 7233   4.750   4.119   1.326 -0.5926  0.3223  1.0113
   40MOL   H136 7234   4.886   4.226   1.328 -0.4988 -0.4176 -1.9562
   40MOL   C137 7235   4.744   4.466   1.305  0.0861  0.7843  0.6854
   40MOL   C138 7236   4.703   4.516   1.444 -0.2149  0.3013  0.0917
   40MOL   C139 7237   4.821   4.561   1.530  0.5576  0.1703 -0.1091
   40MOL   H140 7238   4.851   4.478   1.290 -0.2713  1.4825 -1.5473
   40MOL   H141 7239   4.710   4.536   1.229 -3.4416  0.3574  1.7595
   40MOL   H142 7240   4.667   4.427   1.497  0.2206  1.5857  2.6069
   40MOL   H143 7241   4.853   4.656   1.485  0.6617  0.0154 -0.3596
   40MOL   H144 7242   4.794   4.608   1.625 -0.8968 -0.6049 -0.1333
   40MOL   H145 7243   4.906   4.493   1.536 -0.9186 -1.8983 -2.2903
   40MOL   C146 7244   4.577   4.613   1.438 -0.5918  0.5700  0.2158
   40MOL   C147 7245   4.449   4.568   1.371 -0.0881 -0.3057  0.0923
   40MOL   C148 7246   4.382   4.447   1.448  0.3288 -0.0601 -0.1672
   40MOL   H149 7247   4.554   4.643   1.541 -4.2895  1.3321 -0.7422
   40MOL   H150 7248   4.613   4.703   1.389 -0.2978  0.1858 -0.2702
   40MOL   H151 7249   4.483   4.539   1.271 -0.5708 -0.3320 -0.0659
   40MOL   H152 7250   4.446   4.359   1.451  0.3472 -0.0431 -0.0457
   40MOL   H153 7251   4.348   4.471   1.549  1.3174  2.8858 -0.4706
   40MOL   H154 7252   4.303   4.413   1.381  0.3263  0.6112 -0.5102
   40MOL   C155 7253   4.336   4.676   1.345  0.2822  0.1267  0.4668
   40MOL   C156 7254   4.237   4.646   1.227 -0.1416  0.3507  0.2653
   40MOL   C157 7255   4.134   4.760   1.217  0.4820 -0.2212  0.1595
   40MOL   H158 7256   4.272   4.690   1.432 -0.1193 -0.5911  0.2919
   40MOL   H159 7257   4.376   4.773   1.317  0.1289  0.5890  1.8427
   40MOL   H160 7258   4.179   4.560   1.259  1.0665 -1.5292 -2.4552
   40MOL   H161 7259   4.085   4.780   1.313 -1.2498 -0.0361 -0.7471
   40MOL   H162 7260   4.178   4.855   1.187 -0.2359  0.0281 -0.1046
   40MOL   H163 7261   4.057   4.732   1.146  2.4302  1.6666 -2.8076
   40MOL   C164 7262   4.300   4.604   1.089 -0.2144 -0.7148  0.7738
   40MOL   C165 7263   4.203   4.559   0.978 -0.0527  0.1598  0.0779
   40MOL   C166 7264   4.278   4.564   0.845  0.2652 -0.3649 -0.2796
   40MOL   H167 7265   4.357   4.693   1.063 -0.7006 -0.2605  1.2423
   40MOL   H168 7266   4.373   4.525   1.101 -1.7940 -2.1796  1.0319
   40MOL   H169 7267   4.130   4.638   0.963 -0.0571 -0.1525 -1.6663
   40MOL   H170 7268   4.216   4.553   0.755  0.2029  1.5975 -0.4819
   40MOL   H171 7269   4.328   4.660   0.835  0.0035 -0.1300  0.6615
   40MOL   H172 7270   4.337   4.474   0.826  2.4106  1.0727 -0.4488
   40MOL   C173 7271   4.151   4.417   1.007  0.5300 -0.1435  0.1679
   40MOL   C174 7272   4.036   4.378   0.909  0.1114  0.0491  0.1264
   40MOL   C175 7273   3.960   4.246   0.948  0.1844 -0.1983 -0.1050
   40MOL   H176 7274   4.227   4.339   0.998 -0.4427 -1.0690 -0.2500
   40MOL   H177 7275   4.097   4.410   1.101  0.0895  1.0181  0.0049
   40MOL   H178 7276   4.084   4.364   0.812  0.6335 -0.9511  0.5206
   40MOL   H179 7277   3.913   4.208   0.857  0.7325 -0.7552 -0.1578
   40MOL   H180 7278   4.029   4.165   0.973  3.3116  1.7335 -2.1733
   40MOL   H181 7279   3.888   4.277   1.023  2.7053  0.0565  2.2983
   40MOL   H182 7280   3.967   4.462   0.903 -0.9877 -0.9538 -1.8307
   41MOL     C1 7281   5.774   4.950   6.258 -0.3327 -0.4159  0.0634
   41MOL     C2 7282   5.719   5.097   6.274 -0.0239  0.4664  0.0573
   41MOL     C3 7283   5.768   5.138   6.414 -0.0650 -0.6505  0.2992
   41MOL     H4 7284   5.727   4.887   6.183 -0.6523 -0.7194  0.5215
   41MOL     H5 7285   5.764   4.903   6.355  0.5814  1.6488  1.1937
   41MOL     H6 7286   5.611   5.083   6.272  0.3833 -3.2112 -0.9965
   41MOL     H7 7287   5.725   5.234   6.440  1.5015  0.0642  0.2814
   41MOL     H8 7288   5.721   5.074   6.489 -0.9319 -1.4109 -0.8690
   41MOL     H9 7289   5.876   5.140   6.432 -0.2946  1.1961  1.5712
   41MOL    H10 7290   5.883   4.951   6.248 -0.4741  0.7418 -1.6777
   41MOL    C11 7291   5.780   5.187   6.166 -0.6776  0.1741  0.0020
   41MOL    C12 7292   5.758   5.164   6.013  0.7360  0.1423 -0.2110
   41MOL    C13 7293   5.617   5.191   5.976 -0.6255 -0.6842 -0.0969
   41MOL    H14 7294   5.745   5.285   6.198  0.0438 -0.1203  1.7350
   41MOL    H15 7295   5.887   5.192   6.181 -0.2941 -1.8901 -1.7114
   41MOL    H16 7296   5.779   5.060   5.990 -0.4703  0.3641 -2.4935
   41MOL    H17 7297   5.593   5.297   5.976  0.6720 -0.3850  0.8737
   41MOL    H18 7298   5.603   5.144   5.879  0.0490  0.1016 -0.5760
   41MOL    H19 7299   5.538   5.143   6.035 -3.1788  3.3885  0.0113
   41MOL    C20 7300   5.850   5.251   5.929 -0.8655 -0.4752  0.1750
   41MOL    C21 7301   5.993   5.193   5.909 -0.1810  1.2135  0.5303
   41MOL    C22 7302   5.995   5.067   5.816 -0.3356  0.0037  0.3377
   41MOL    H23 7303   5.818   5.253   5.824  0.7511 -1.2071 -0.3548
   41MOL    H24 7304   5.852   5.349   5.976 -0.6797 -0.3316 -0.1313
   41MOL    H25 7305   6.033   5.160   6.005  0.8950 -1.0396 -0.6292
   41MOL    H26 7306   5.970   5.078   5.710  0.4697 -2.1321 -0.1012
   41MOL    H27 7307   6.094   5.023   5.814  0.3959  1.4909  2.0716
   41MOL    H28 7308   5.944   4.977   5.849  1.9357 -1.6869 -0.6099
   41MOL    C29 7309   6.092   5.297   5.850  0.0703  0.4275 -0.1222
   41MOL    C30 7310   6.133   5.402   5.956  0.4266 -0.4874 -0.0534
   41MOL    C31 7311   6.193   5.348   6.086  0.2246  0.3181 -1.1817
   41MOL    H32 7312   6.180   5.253   5.805 -1.2995 -2.3429 -0.1685
   41MOL    H33 7313   6.045   5.356   5.771  1.5374 -1.3447 -2.3677
   41MOL    H34 7314   6.031   5.436   5.974  1.1845  1.4565  0.6778
   41MOL    H35 7315   6.116   5.303   6.149 -0.1045 -1.0985 -2.5750
   41MOL    H36 7316   6.281   5.287   6.064  0.9472  1.2115 -0.8158
   41MOL    H37 7317   6.227   5.428   6.152  1.5592 -0.3414 -1.0484
   41MOL    C38 7318   6.219   5.508   5.893  0.1442  0.7509  0.0286
   41MOL    C39 7319   6.155   5.608   5.789 -0.0185  0.2254  0.2193
   41MOL    C40 7320   6.025   5.674   5.852  0.1260  0.7671 -0.0029
   41MOL    H41 7321   6.253   5.577   5.970  1.2702  1.8303 -1.3957
   41MOL    H42 7322   6.304   5.461   5.844 -1.2162 -0.2173 -1.4414
   41MOL    H43 7323   6.114   5.546   5.709 -0.0548  1.2190 -0.5414
   41MOL    H44 7324   6.060   5.730   5.938 -0.1176 -0.3796  0.8462
   41MOL    H45 7325   5.972   5.739   5.782 -1.3655  0.0540  0.4270
   41MOL    H46 7326   5.960   5.586   5.862 -0.6820  1.2684 -0.7608
   41MOL    C47 7327   6.254   5.709   5.742 -0.0069  0.4470 -0.6386
   41MOL    C48 7328   6.207   5.814   5.632  0.3616 -0.9642 -0.0077
   41MOL    C49 7329   6.319   5.924   5.615 -0.6623 -0.6146  0.2255
   41MOL    H50 7330   6.277   5.776   5.825 -2.6759  1.0019 -0.3046
   41MOL    H51 7331   6.347   5.662   5.709  1.2796  2.4220  0.0821
   41MOL    H52 7332   6.113   5.857   5.667  0.6721 -0.8202  0.6671
   41MOL    H53 7333   6.274   6.003   5.554  0.6196 -0.1525 -0.1402
   41MOL    H54 7334   6.333   5.973   5.711 -1.9540 -1.6714  0.9850
   41MOL    H55 7335   6.420   5.889   5.593 -0.5892 -0.0897 -0.2881
   41MOL    C56 7336   6.185   5.749   5.485 -0.0414 -0.3465  0.6111
   41MOL    C57 7337   6.092   5.835   5.387 -0.5030  0.6719 -0.6526
   41MOL    C58 7338   6.163   5.840   5.252 -0.5774 -0.0926  0.3223
   41MOL    H59 7339   6.286   5.717   5.457 -0.1665 -0.6224  0.4748
   41MOL    H60 7340   6.144   5.649   5.500  1.7150 -1.2447 -0.2826
   41MOL    H61 7341   6.095   5.934   5.432 -0.2302  1.3384 -2.1118
   41MOL    H62 7342   6.161   5.741   5.207  0.7409  0.2311 -0.4923
   41MOL    H63 7343   6.116   5.898   5.173 -0.4253  1.5566  1.4289
   41MOL    H64 7344   6.269   5.863   5.263 -0.5712 -0.6428  1.4654
   41MOL    C65 7345   5.946   5.785   5.389  0.1865  0.5247  0.2743
   41MOL    C66 7346   5.859   5.803   5.512  0.6405  0.4791  0.5244
   41MOL    C67 7347   5.857   5.950   5.555  0.1192 -0.3814 -0.5385
   41MOL    H68 7348   5.887   5.843   5.318 -0.7275  0.5008  0.9979
   41MOL    H69 7349   5.948   5.685   5.345 -0.6594 -1.6333  4.8241
   41MOL    H70 7350   5.905   5.752   5.595 -1.7563 -1.5381  0.6866
   41MOL    H71 7351   5.955   5.983   5.587 -0.0664 -1.9415  1.6880
   41MOL    H72 7352   5.841   6.021   5.473 -0.4526  0.2649  0.1291
   41MOL    H73 7353   5.789   5.969   5.638  1.3051  1.1363  0.1008
   41MOL    C74 7354   5.713   5.762   5.496 -0.4393 -0.4633 -0.1344
   41MOL    C75 7355   5.696   5.609   5.497 -0.2527  0.2490  0.3422
   41MOL    C76 7356   5.704   5.550   5.642  0.2800  0.0682 -0.0844
   41MOL    H77 7357   5.653   5.801   5.578 -1.2757 -0.4468 -0.7379
   41MOL    H78 7358   5.673   5.817   5.411  1.0972  0.4649 -0.2738
   41MOL    H79 7359   5.781   5.567   5.444 -0.4529  1.0006 -0.5818
   41MOL    H80 7360   5.713   5.442   5.632 -1.6644 -0.2350  1.1700
   41MOL    H81 7361   5.786   5.585   5.705  0.9116 -2.0702  0.3144
   41MOL    H82 7362   5.612   5.571   5.697 -0.6611 -1.9836 -0.8300
   41MOL    C83 7363   5.567   5.551   5.427  0.2159 -0.5837 -0.4361
   41MOL    C84 7364   5.558   5.395   5.392 -0.1936  0.0915 -0.0115
   41MOL    C85 7365   5.420   5.373   5.320  0.3639 -0.0473  0.5029
   41MOL    H86 7366   5.483   5.581   5.489  0.9092 -0.5269  0.4875
   41MOL    H87 7367   5.558   5.608   5.335  0.7136  0.5882  0.2281
   41MOL    H88 7368   5.545   5.340   5.486  0.7625 -0.2525 -0.0717
   41MOL    H89 7369   5.361   5.305   5.381  0.5807 -1.8240 -1.2008
   41MOL    H90 7370   5.361   5.462   5.300 -0.2587 -0.5925 -0.1584
   41MOL    H91 7371   5.435   5.337   5.218 -1.8007 -0.5301  0.3132
   41MOL    C92 7372   5.684   5.326   5.329 -0.0424 -0.1652 -0.2460
   41MOL    C93 7373   5.688   5.179   5.324 -0.5294  0.2679  1.0675
   41MOL    C94 7374   5.786   5.120   5.210 -0.4416  0.0901  0.2662
   41MOL    H95 7375   5.688   5.372   5.230 -1.0523  0.6210  0.0802
   41MOL    H96 7376   5.780   5.355   5.372 -0.0816  2.6482 -1.9534
   41MOL    H97 7377   5.587   5.147   5.299 -0.4487  1.4197 -0.8085
   41MOL    H98 7378   5.776   5.012   5.200  2.6943 -0.2936  0.6977
   41MOL    H99 7379   5.754   5.167   5.116  0.4465 -1.1853 -0.6868
   41MOL   H100 7380   5.890   5.146   5.232  0.4676 -3.1579  0.0785
   41MOL   C101 7381   5.726   5.123   5.458 -0.3102 -0.4827 -0.7193
   41MOL   C102 7382   5.682   4.976   5.482  0.4760  0.1419 -0.1410
   41MOL   C103 7383   5.779   4.896   5.570 -0.6210  0.0032  0.2456
   41MOL   H104 7384   5.833   5.132   5.473 -0.7064  0.7725  1.6904
   41MOL   H105 7385   5.675   5.179   5.537 -1.2704 -1.0560 -0.9192
   41MOL   H106 7386   5.678   4.930   5.383 -1.0109  0.0501 -0.0548
   41MOL   H107 7387   5.749   4.792   5.584  1.1523 -0.6278 -0.4940
   41MOL   H108 7388   5.885   4.901   5.542 -0.1027 -2.5834  1.5347
   41MOL   H109 7389   5.789   4.933   5.673 -0.5117 -0.4409  0.3957
   41MOL   C110 7390   5.531   4.973   5.534  0.1391  0.2240 -0.0569
   41MOL   C111 7391   5.459   4.834   5.544  0.5617 -0.3001  0.1575
   41MOL   C112 7392   5.317   4.867   5.607 -0.0139  0.4646  0.0263
   41MOL   H113 7393   5.537   5.015   5.634 -1.6550 -0.1589  0.2145
   41MOL   H114 7394   5.476   5.037   5.465 -0.5408 -0.5777 -0.2691
   41MOL   H115 7395   5.511   4.776   5.620 -0.3077 -1.1441  0.1043
   41MOL   H116 7396   5.253   4.781   5.626 -1.0731  1.1906 -0.2304
   41MOL   H117 7397   5.342   4.921   5.699 -1.4178  1.3863 -0.1230
   41MOL   H118 7398   5.275   4.937   5.535  1.3153  3.0295  1.6642
   41MOL   C119 7399   5.456   4.760   5.408  0.0642  0.5116  0.5725
   41MOL   C120 7400   5.407   4.613   5.405  0.5017 -0.0661  0.3058
   41MOL   C121 7401   5.346   4.571   5.280  0.2363 -0.2301 -0.3569
   41MOL   H122 7402   5.399   4.819   5.336 -0.1926 -2.4953 -1.8191
   41MOL   H123 7403   5.551   4.776   5.356  0.6194  1.9768  2.0032
   41MOL   H124 7404   5.336   4.599   5.486  1.0960 -1.4585  0.5989
   41MOL   H125 7405   5.415   4.590   5.198  0.6732 -1.0029 -0.1657
   41MOL   H126 7406   5.311   4.468   5.276 -0.7060  0.1477 -3.4441
   41MOL   H127 7407   5.259   4.636   5.264 -0.4133 -0.1285  3.2100
   41MOL   C128 7408   5.530   4.519   5.441 -0.0890  0.3404  0.1742
   41MOL   C129 7409   5.501   4.381   5.513 -0.3124 -0.7142 -0.2461
   41MOL   C130 7410   5.430   4.280   5.418 -0.1529  0.8741 -0.1095
   41MOL   H131 7411   5.585   4.510   5.347 -0.2571  2.5385 -0.1651
   41MOL   H132 7412   5.595   4.574   5.509  3.0859 -1.6797 -1.1364
   41MOL   H133 7413   5.442   4.398   5.603 -1.4834  0.9531 -1.2940
   41MOL   H134 7414   5.497   4.260   5.335  1.4547  1.8287  0.9434
   41MOL   H135 7415   5.410   4.187   5.472  1.8185  0.6455  0.2593
   41MOL   H136 7416   5.327   4.312   5.401 -0.1741  1.0736  0.4003
   41MOL   C137 7417   5.630   4.309   5.575 -0.1929 -0.8837  0.3757
   41MOL   C138 7418   5.712   4.388   5.678  0.5012 -0.4716 -0.1808
   41MOL   C139 7419   5.619   4.449   5.786 -0.4103 -0.0592  0.5350
   41MOL   H140 7420   5.602   4.213   5.620 -1.8206  0.4139  2.2699
   41MOL   H141 7421   5.701   4.276   5.500 -1.8229  1.7091 -2.3803
   41MOL   H142 7422   5.766   4.465   5.625 -0.3653 -0.1108 -0.5469
   41MOL   H143 7423   5.667   4.488   5.876 -0.8621  1.5074  0.1261
   41MOL   H144 7424   5.574   4.543   5.752  0.3516  0.5933  1.2857
   41MOL   H145 7425   5.554   4.372   5.827  0.7127 -0.5484  1.4429
   41MOL   C146 7426   5.813   4.294   5.743  0.1134 -0.9057  0.0097
   41MOL   C147 7427   5.932   4.356   5.829 -0.3659  0.1072  0.3263
   41MOL   C148 7428   5.991   4.251   5.928  0.7289 -0.2505 -0.3639
   41MOL   H149 7429   5.759   4.217   5.799 -2.9709 -0.8509 -2.7048
   41MOL   H150 7430   5.868   4.236   5.669 -0.8784  1.2700 -2.5077
   41MOL   H151 7431   5.891   4.438   5.888 -1.4101  1.1578 -1.7861
   41MOL   H152 7432   5.919   4.214   6.000  1.7721 -1.5102  0.0534
   41MOL   H153 7433   6.047   4.173   5.875  1.5180  0.3490 -0.4119
   41MOL   H154 7434   6.064   4.310   5.983  1.2683 -0.8779 -0.4028
   41MOL   C155 7435   6.043   4.412   5.741 -0.5129  0.4689 -0.0107
   41MOL   C156 7436   6.084   4.555   5.773 -0.0097 -0.5230 -0.2066
   41MOL   C157 7437   5.979   4.656   5.732 -0.3880  0.1651  0.0431
   41MOL   H158 7438   6.133   4.351   5.742 -0.9420 -0.1637  2.2221
   41MOL   H159 7439   6.017   4.414   5.635  2.1029  0.0442 -0.6801
   41MOL   H160 7440   6.171   4.581   5.713  1.3905  0.3188  2.0885
   41MOL   H161 7441   5.928   4.627   5.640  1.4031  0.5370 -1.0729
   41MOL   H162 7442   5.913   4.678   5.816 -0.5868 -0.0834 -0.0464
   41MOL   H163 7443   6.017   4.754   5.704  0.9115 -0.3271  0.0637
   41MOL   C164 7444   6.138   4.571   5.918  0.6549  0.4735  0.4887
   41MOL   C165 7445   6.185   4.717   5.948  0.5201 -0.1776 -0.3541
   41MOL   C166 7446   6.180   4.751   6.101 -0.5889  0.1407  0.1277
   41MOL   H167 7447   6.069   4.540   5.996  1.7229 -1.2877  0.7522
   41MOL   H168 7448   6.218   4.498   5.921  0.9433  0.7965  0.7758
   41MOL   H169 7449   6.108   4.779   5.903  0.0387  0.6971  1.6179
   41MOL   H170 7450   6.154   4.856   6.111  0.4470  0.4332 -0.2225
   41MOL   H171 7451   6.119   4.699   6.175 -0.9748  0.5914  0.1283
   41MOL   H172 7452   6.283   4.740   6.136  0.6000  2.7492 -2.3438
   41MOL   C173 7453   6.318   4.755   5.882 -0.6037 -0.0392 -0.0463
   41MOL   C174 7454   6.354   4.907   5.861  0.6151 -1.1509 -0.0324
   41MOL   C175 7455   6.498   4.938   5.820 -0.0056  0.2508  0.0508
   41MOL   H176 7456   6.398   4.713   5.943  0.0208  1.7997  0.4419
   41MOL   H177 7457   6.320   4.707   5.784 -2.3660  0.0474 -0.1369
   41MOL   H178 7458   6.324   4.976   5.939  0.2257 -0.6507 -0.6206
   41MOL   H179 7459   6.519   5.014   5.745  2.6161  0.2495  0.7255
   41MOL   H180 7460   6.556   4.977   5.903  0.6677 -1.1542  0.2540
   41MOL   H181 7461   6.547   4.852   5.774  1.2668  0.6764  0.5828
   41MOL   H182 7462   6.292   4.936   5.777  0.1974 -1.4644  0.1663
   42MOL     C1 7463   2.825   4.259   5.921 -0.6631  0.1370  0.0968
   42MOL     C2 7464   2.772   4.387   5.854  0.9692  0.7358  0.7537
   42MOL     C3 7465   2.625   4.384   5.811 -0.2646 -0.3943  0.0536
   42MOL     H4 7466   2.928   4.273   5.954 -0.8978 -0.4026  1.0579
   42MOL     H5 7467   2.830   4.172   5.856  1.7208  1.1464 -1.1627
   42MOL     H6 7468   2.826   4.393   5.759  0.3853 -0.7784  0.3130
   42MOL     H7 7469   2.599   4.330   5.720  0.6555 -0.9334  0.1100
   42MOL     H8 7470   2.558   4.343   5.887  1.1364 -2.1189  0.3726
   42MOL     H9 7471   2.585   4.483   5.785 -0.0735 -0.9360 -2.4292
   42MOL    H10 7472   2.772   4.219   6.007  0.1678 -0.5749  0.2829
   42MOL    C11 7473   2.806   4.512   5.941  0.2195  0.5571 -0.5487
   42MOL    C12 7474   2.936   4.581   5.917 -0.6461  0.5444  0.4021
   42MOL    C13 7475   2.943   4.621   5.771 -0.2334 -0.4898  1.0844
   42MOL    H14 7476   2.721   4.581   5.937  0.4734  0.7649 -2.7694
   42MOL    H15 7477   2.802   4.488   6.048 -5.3471 -1.4760 -1.0616
   42MOL    H16 7478   3.009   4.502   5.935 -0.4987  0.0179 -2.2747
   42MOL    H17 7479   3.030   4.683   5.749 -0.4371 -0.0757  1.4485
   42MOL    H18 7480   2.949   4.540   5.698 -0.2431  0.2485  0.2547
   42MOL    H19 7481   2.858   4.683   5.745  0.4401 -0.3803 -0.9607
   42MOL    C20 7482   2.962   4.698   6.015 -0.0375  0.3425  0.1932
   42MOL    C21 7483   3.111   4.733   6.030  0.9127  0.0673  0.1381
   42MOL    C22 7484   3.123   4.875   6.095  0.0238 -0.1484  0.3601
   42MOL    H23 7485   2.910   4.790   5.988  1.0798  1.6972  2.5126
   42MOL    H24 7486   2.918   4.673   6.112 -0.3864  1.4079  0.3199
   42MOL    H25 7487   3.148   4.733   5.927 -0.9741 -1.1248 -0.5677
   42MOL    H26 7488   3.073   4.894   6.190 -0.7936 -1.4600  0.2068
   42MOL    H27 7489   3.225   4.911   6.111  0.5179 -1.4987  0.3599
   42MOL    H28 7490   3.076   4.950   6.033  3.1341  1.2047 -0.4681
   42MOL    C29 7491   3.189   4.633   6.109  0.6965 -0.2132 -0.2460
   42MOL    C30 7492   3.345   4.654   6.106 -0.4149 -0.5865  0.0566
   42MOL    C31 7493   3.420   4.589   6.226  0.2302 -0.3497  0.4822
   42MOL    H32 7494   3.157   4.634   6.213  2.6111  0.9652  0.3612
   42MOL    H33 7495   3.166   4.530   6.083  0.1614  0.2923 -1.7773
   42MOL    H34 7496   3.370   4.759   6.119  0.1908 -0.9480  1.9137
   42MOL    H35 7497   3.523   4.621   6.238  0.3527 -0.7337  0.4765
   42MOL    H36 7498   3.382   4.607   6.327 -1.1161  1.3512 -0.3087
   42MOL    H37 7499   3.412   4.480   6.219 -0.6298 -0.5210  3.2507
   42MOL    C38 7500   3.413   4.607   5.970  0.3481 -0.6498 -0.3731
   42MOL    C39 7501   3.565   4.615   5.955  0.1646 -0.2603  0.0201
   42MOL    C40 7502   3.618   4.530   5.837  0.3012  0.6190  0.3724
   42MOL    H41 7503   3.376   4.505   5.958  0.1851 -0.4757 -1.4362
   42MOL    H42 7504   3.363   4.642   5.879 -2.8791 -2.2464  0.7185
   42MOL    H43 7505   3.608   4.564   6.042 -0.3463 -1.1471 -0.2431
   42MOL    H44 7506   3.590   4.426   5.849  2.7954 -0.1617 -0.2965
   42MOL    H45 7507   3.588   4.565   5.738  1.3753 -0.2127 -0.2461
   42MOL    H46 7508   3.727   4.524   5.841  0.2498  0.7389  2.5601
   42MOL    C47 7509   3.626   4.758   5.959  0.4909 -0.2035 -0.5738
   42MOL    C48 7510   3.781   4.771   5.992  0.1025  0.0778 -0.2493
   42MOL    C49 7511   3.815   4.925   6.003 -0.6573  0.2881 -0.4756
   42MOL    H50 7512   3.604   4.808   5.865 -1.8524  1.2610  0.7182
   42MOL    H51 7513   3.574   4.813   6.038  0.5811 -2.4781  1.1146
   42MOL    H52 7514   3.815   4.722   5.901 -2.6763  1.5722 -2.1814
   42MOL    H53 7515   3.921   4.949   6.011  0.0816 -3.2077  1.3382
   42MOL    H54 7516   3.786   4.979   5.913 -0.7507 -0.8285 -1.1274
   42MOL    H55 7517   3.767   4.976   6.087  1.4626  3.4026 -1.1041
   42MOL    C56 7518   3.835   4.679   6.102 -0.3361  0.5814  0.2864
   42MOL    C57 7519   3.981   4.700   6.143 -0.1371  0.0046 -0.5108
   42MOL    C58 7520   4.009   4.641   6.282  0.1095 -0.6935  0.3598
   42MOL    H59 7521   3.762   4.678   6.184 -0.7162  0.6683 -0.0507
   42MOL    H60 7522   3.815   4.576   6.073  0.5751  0.5622 -0.2722
   42MOL    H61 7523   3.998   4.808   6.151 -1.2315  0.0358  1.9102
   42MOL    H62 7524   3.948   4.692   6.358  1.4336  0.2709  0.7953
   42MOL    H63 7525   3.969   4.540   6.280  1.3253 -1.1663 -1.0079
   42MOL    H64 7526   4.113   4.650   6.314  0.9287  1.3850 -2.7252
   42MOL    C65 7527   4.077   4.640   6.044 -0.3468  0.5727 -0.7818
   42MOL    C66 7528   4.128   4.731   5.933  0.5071 -0.0180  0.0397
   42MOL    C67 7529   4.181   4.864   5.975 -0.2079  0.1420  0.9113
   42MOL    H68 7530   4.173   4.623   6.095 -0.9203  0.8437  0.4012
   42MOL    H69 7531   4.034   4.548   6.006 -2.5394  0.8395  0.9254
   42MOL    H70 7532   4.046   4.741   5.861 -0.4310  1.2401  1.2529
   42MOL    H71 7533   4.128   4.918   6.053 -0.6217  0.0296  0.7072
   42MOL    H72 7534   4.282   4.844   6.012  0.2350  0.6024 -0.0250
   42MOL    H73 7535   4.177   4.929   5.888 -0.1057 -2.9050 -1.4674
   42MOL    C74 7536   4.236   4.656   5.848  0.0442 -0.6741  0.0120
   42MOL    C75 7537   4.192   4.533   5.759  0.3095  0.2530  0.2957
   42MOL    C76 7538   4.087   4.584   5.659 -0.1152  0.1259 -0.1696
   42MOL    H77 7539   4.292   4.721   5.780  0.4243 -2.3787 -1.3334
   42MOL    H78 7540   4.318   4.619   5.909  0.0498 -0.4670  0.1327
   42MOL    H79 7541   4.136   4.468   5.826  0.7473 -1.4417 -0.9492
   42MOL    H80 7542   4.103   4.687   5.629  1.1173 -0.6202 -2.1624
   42MOL    H81 7543   4.083   4.530   5.564 -3.4100  0.1400 -0.0955
   42MOL    H82 7544   3.983   4.588   5.691  0.0550  4.7206  0.1326
   42MOL    C83 7545   4.314   4.469   5.696  0.0977 -0.0741  0.4699
   42MOL    C84 7546   4.301   4.325   5.628 -0.8254 -0.3021 -0.2226
   42MOL    C85 7547   4.385   4.299   5.504 -0.2536  0.2911  0.7349
   42MOL    H86 7548   4.326   4.530   5.607  2.8696  0.4708  1.1776
   42MOL    H87 7549   4.407   4.489   5.749 -0.3245 -0.6524  1.4516
   42MOL    H88 7550   4.197   4.320   5.596 -1.3010 -0.8221  1.3343
   42MOL    H89 7551   4.338   4.234   5.430 -0.3189  0.9209  0.2188
   42MOL    H90 7552   4.410   4.386   5.444 -1.4285 -0.4075 -0.7841
   42MOL    H91 7553   4.485   4.265   5.532 -0.5192 -0.3906  0.8588
   42MOL    C92 7554   4.335   4.232   5.742 -0.3436  0.7286  0.0912
   42MOL    C93 7555   4.349   4.082   5.713 -0.4244  0.4118 -0.6370
   42MOL    C94 7556   4.391   4.004   5.841 -0.0973  0.4232 -0.4590
   42MOL    H95 7557   4.422   4.264   5.800 -0.3440  0.4891  0.2216
   42MOL    H96 7558   4.254   4.252   5.813 -0.2314  2.0744 -0.1504
   42MOL    H97 7559   4.434   4.070   5.646  0.2191 -0.5465  0.3372
   42MOL    H98 7560   4.443   3.914   5.807 -2.5102 -0.7275 -1.2236
   42MOL    H99 7561   4.454   4.064   5.906 -0.7779  1.6770 -0.9408
   42MOL   H100 7562   4.311   3.970   5.906  0.7268 -0.0083  0.3371
   42MOL   C101 7563   4.220   4.024   5.650 -0.2449 -0.6580 -1.0187
   42MOL   C102 7564   4.228   3.880   5.590 -0.1922 -0.5886 -0.0253
   42MOL   C103 7565   4.084   3.806   5.588 -0.2033 -0.2808  0.0923
   42MOL   H104 7566   4.145   4.039   5.728  0.2227 -0.7078 -0.5558
   42MOL   H105 7567   4.184   4.099   5.580 -0.1385  0.3332 -0.0341
   42MOL   H106 7568   4.303   3.827   5.649  1.4911  0.5159 -1.0986
   42MOL   H107 7569   4.018   3.850   5.513  1.2752 -0.4237 -1.3264
   42MOL   H108 7570   4.083   3.698   5.574 -1.5962 -0.2261 -0.3134
   42MOL   H109 7571   4.042   3.814   5.688 -2.0837  1.0343 -0.7786
   42MOL   C110 7572   4.281   3.885   5.441  0.2861 -0.3475 -0.4235
   42MOL   C111 7573   4.314   3.755   5.362 -0.4199 -0.1944  0.1466
   42MOL   C112 7574   4.350   3.788   5.216  0.3215 -0.3902 -0.2978
   42MOL   H113 7575   4.202   3.932   5.383  0.0119 -1.4093 -0.9150
   42MOL   H114 7576   4.367   3.952   5.435  1.1874 -1.6760 -3.4021
   42MOL   H115 7577   4.219   3.703   5.357  0.2747 -1.4654 -0.1560
   42MOL   H116 7578   4.449   3.831   5.210  0.0787  0.5517  1.9859
   42MOL   H117 7579   4.353   3.700   5.152  1.1640 -1.8363  1.6606
   42MOL   H118 7580   4.272   3.852   5.174  0.7140  0.1111 -0.2655
   42MOL   C119 7581   4.418   3.672   5.436  0.3168 -0.3290 -0.0586
   42MOL   C120 7582   4.463   3.533   5.382  0.7247 -0.1087  0.1262
   42MOL   C121 7583   4.582   3.540   5.288 -0.3930  0.1594  0.2603
   42MOL   H122 7584   4.495   3.744   5.462 -1.7901  2.5739 -1.5462
   42MOL   H123 7585   4.377   3.651   5.535 -0.5992 -0.8243 -0.5352
   42MOL   H124 7586   4.379   3.488   5.329 -1.8450  1.9581  2.3355
   42MOL   H125 7587   4.670   3.572   5.345  1.2385 -2.9432 -0.4348
   42MOL   H126 7588   4.593   3.452   5.225  2.1446  2.5787 -2.9097
   42MOL   H127 7589   4.567   3.623   5.218  1.0490 -0.7391 -1.1389
   42MOL   C128 7590   4.489   3.440   5.501 -0.6552 -0.4371 -1.1427
   42MOL   C129 7591   4.531   3.295   5.461  0.5680  0.0520 -0.0666
   42MOL   C130 7592   4.561   3.212   5.593  0.7112  0.3776 -0.6156
   42MOL   H131 7593   4.576   3.473   5.557  0.2868 -1.7271 -1.8077
   42MOL   H132 7594   4.403   3.439   5.568  0.5168 -0.7240  0.3818
   42MOL   H133 7595   4.624   3.307   5.405  2.0351  1.5502  2.5856
   42MOL   H134 7596   4.601   3.115   5.563  2.8069  0.6437  1.2174
   42MOL   H135 7597   4.640   3.256   5.652  0.4467 -0.5546  0.4479
   42MOL   H136 7598   4.469   3.207   5.651  0.7972 -0.6173 -0.5611
   42MOL   C137 7599   4.424   3.220   5.372  0.1511 -0.2774 -0.3751
   42MOL   C138 7600   4.455   3.090   5.298 -0.5365 -0.5723  0.4794
   42MOL   C139 7601   4.588   3.106   5.224  0.2477  0.5593 -0.1982
   42MOL   H140 7602   4.336   3.198   5.433 -1.0457  1.6314 -1.3428
   42MOL   H141 7603   4.382   3.290   5.300 -1.5035  0.1522  0.9737
   42MOL   H142 7604   4.375   3.070   5.226 -2.0473 -0.3603  2.0879
   42MOL   H143 7605   4.579   3.192   5.158 -1.5534  0.4431 -0.1224
   42MOL   H144 7606   4.673   3.124   5.290 -0.3342 -0.0498  0.7170
   42MOL   H145 7607   4.611   3.015   5.169  2.4597  0.7876  0.3114
   42MOL   C146 7608   4.450   2.959   5.384  0.4547 -0.8991  0.5500
   42MOL   C147 7609   4.321   2.931   5.472 -0.6197 -0.2024  1.0990
   42MOL   C148 7610   4.195   2.956   5.384  0.5821 -0.1410  0.0402
   42MOL   H149 7611   4.470   2.877   5.316  1.5286  1.4539 -2.0547
   42MOL   H150 7612   4.541   2.949   5.444 -0.1877  0.2751  1.7421
   42MOL   H151 7613   4.326   2.991   5.563  2.1314  1.0695  0.1514
   42MOL   H152 7614   4.201   2.884   5.303  0.6087 -0.4270  0.2932
   42MOL   H153 7615   4.100   2.939   5.436 -0.4360  0.6012 -1.5458
   42MOL   H154 7616   4.179   3.059   5.354 -0.0039 -0.1460  0.3272
   42MOL   C155 7617   4.338   2.794   5.537  0.3500 -0.1007  0.5654
   42MOL   C156 7618   4.222   2.732   5.618 -0.4926 -0.2707 -0.7092
   42MOL   C157 7619   4.247   2.580   5.646 -0.6120 -0.8780  0.0220
   42MOL   H158 7620   4.355   2.724   5.454  3.8154 -0.6231  1.6656
   42MOL   H159 7621   4.433   2.787   5.588  1.8504  0.5320 -2.0464
   42MOL   H160 7622   4.135   2.735   5.552 -0.3522  0.8925 -0.8543
   42MOL   H161 7623   4.335   2.568   5.709  0.1335  2.0097 -0.4229
   42MOL   H162 7624   4.158   2.542   5.697 -1.3396  1.1025  0.2826
   42MOL   H163 7625   4.254   2.525   5.552  0.8005 -0.1781 -0.2886
   42MOL   C164 7626   4.181   2.808   5.748  0.4262  0.0236 -0.0399
   42MOL   C165 7627   4.056   2.742   5.827 -0.8518  0.1445  0.4109
   42MOL   C166 7628   4.031   2.814   5.953 -0.1650  0.6106  0.4061
   42MOL   H167 7629   4.267   2.819   5.814  0.4205 -2.0524  0.3418
   42MOL   H168 7630   4.147   2.908   5.719 -1.8432 -0.7735 -0.2591
   42MOL   H169 7631   4.079   2.638   5.852 -0.4582  0.0772 -0.2174
   42MOL   H170 7632   4.029   2.922   5.940  2.8933  0.6464 -0.1111
   42MOL   H171 7633   3.939   2.791   6.007  0.0752 -0.3713  0.4091
   42MOL   H172 7634   4.118   2.784   6.012 -1.5399 -0.6116  1.8543
   42MOL   C173 7635   3.929   2.726   5.738 -0.4856  0.0060  0.2380
   42MOL   C174 7636   3.871   2.859   5.694  0.2973  0.0219 -0.0484
   42MOL   C175 7637   3.724   2.862   5.654  0.3273  0.2669  0.1028
   42MOL   H176 7638   3.936   2.662   5.650 -0.8516  3.6184 -2.4978
   42MOL   H177 7639   3.848   2.671   5.787 -2.3004  0.2515 -2.3660
   42MOL   H178 7640   3.937   2.890   5.613  0.5555 -2.1599 -0.6993
   42MOL   H179 7641   3.698   2.960   5.614  1.7539 -0.3049 -2.3358
   42MOL   H180 7642   3.706   2.780   5.584 -2.0479  1.7049 -1.0155
   42MOL   H181 7643   3.661   2.859   5.743  0.2949 -0.0189  0.0717
   42MOL   H182 7644   3.887   2.930   5.776  0.3119 -1.3844  1.1905
   43MOL     C1 7645   0.593   2.925   1.408  0.2746 -0.5561  0.1580
   43MOL     C2 7646   0.514   2.807   1.354 -0.0353  0.3781 -0.9184
   43MOL     C3 7647   0.486   2.707   1.472 -0.3200  0.4162 -0.2067
   43MOL     H4 7648   0.689   2.901   1.455  0.1999 -0.0781  0.5697
   43MOL     H5 7649   0.539   2.974   1.489  0.3271 -1.2690  0.6284
   43MOL     H6 7650   0.570   2.752   1.279  1.1683 -0.6021  0.6596
   43MOL     H7 7651   0.404   2.638   1.450  0.1253  0.2618 -1.4041
   43MOL     H8 7652   0.576   2.647   1.476 -0.3199  0.4949  0.9318
   43MOL     H9 7653   0.483   2.743   1.575  1.8209 -1.0126  0.3793
   43MOL    H10 7654   0.623   3.002   1.336 -0.0525 -0.3630  0.2267
   43MOL    C11 7655   0.378   2.841   1.292 -0.1572  0.1112 -0.7137
   43MOL    C12 7656   0.382   2.931   1.167 -0.6704 -0.2706  0.1024
   43MOL    C13 7657   0.447   2.847   1.060  0.2563 -0.0663 -0.2731
   43MOL    H14 7658   0.332   2.743   1.276  0.4329 -0.6240  1.7597
   43MOL    H15 7659   0.305   2.886   1.359 -0.6670  1.1675 -1.9708
   43MOL    H16 7660   0.440   3.021   1.182 -0.5425 -0.8913  3.7780
   43MOL    H17 7661   0.410   2.746   1.051  1.2651 -0.2276 -2.9884
   43MOL    H18 7662   0.423   2.890   0.963  0.4485  0.0576 -0.2673
   43MOL    H19 7663   0.556   2.839   1.057  0.2653  0.0012 -0.1461
   43MOL    C20 7664   0.242   2.971   1.111  1.4771 -0.6262  0.3177
   43MOL    C21 7665   0.161   3.071   1.197 -0.1448  0.1328  0.4095
   43MOL    C22 7666   0.245   3.194   1.223 -0.6290  0.3833  0.0234
   43MOL    H23 7667   0.246   3.019   1.012 -0.4931  0.8893  0.9406
   43MOL    H24 7668   0.181   2.883   1.097  1.3210 -0.4548 -0.0899
   43MOL    H25 7669   0.131   3.017   1.287 -1.3782 -0.1271 -0.1368
   43MOL    H26 7670   0.292   3.231   1.132  0.9555  0.8747  1.0114
   43MOL    H27 7671   0.188   3.280   1.258  0.4815  0.7055  1.0672
   43MOL    H28 7672   0.320   3.166   1.297  0.2381 -0.2685 -1.0846
   43MOL    C29 7673   0.025   3.120   1.135 -0.2031  0.0354 -0.4774
   43MOL    C30 7674   7.614   3.016   1.093  0.3006 -0.0675 -0.1905
   43MOL    C31 7675   7.508   3.016   1.208 -0.0312 -0.2345 -0.1284
   43MOL    H32 7676   7.672   3.188   1.204 -0.5297 -0.0843 -0.5975
   43MOL    H33 7677   0.040   3.191   1.054 -1.6632  1.8197  0.7839
   43MOL    H34 7678   7.665   2.921   1.107  1.0039  0.1164 -1.4348
   43MOL    H35 7679   7.573   3.002   1.295  2.5145  1.8612 -1.6140
   43MOL    H36 7680   7.451   3.106   1.226  1.5376  0.3696  2.0237
   43MOL    H37 7681   7.443   2.928   1.209  0.4772 -0.6190 -0.7312
   43MOL    C38 7682   7.556   3.032   0.946  0.2350  0.5135 -0.6202
   43MOL    C39 7683   7.650   2.980   0.832  0.8157 -0.0892  0.7219
   43MOL    C40 7684   7.602   2.839   0.791  0.3596 -0.0754 -0.2363
   43MOL    H41 7685   7.457   2.989   0.932 -0.6979  2.5622 -0.3890
   43MOL    H42 7686   7.525   3.136   0.942 -0.0021  0.5198  1.0105
   43MOL    H43 7687   0.053   2.975   0.874  1.7912 -1.4638 -1.6741
   43MOL    H44 7688   7.570   2.788   0.882 -3.2415 -0.0742 -1.4321
   43MOL    H45 7689   7.526   2.835   0.713 -2.2424 -1.9593  2.2929
   43MOL    H46 7690   7.681   2.777   0.750 -0.1372 -0.7752 -0.1367
   43MOL    C47 7691   7.650   3.080   0.711  0.6877 -0.0978 -0.1092
   43MOL    C48 7692   0.039   3.033   0.594  0.3321  0.0745  0.4151
   43MOL    C49 7693   7.645   2.987   0.479  0.4149  0.2855  0.3279
   43MOL    H50 7694   7.547   3.089   0.676 -0.4922 -2.9275  2.4654
   43MOL    H51 7695   7.678   3.181   0.741 -1.5150 -0.3286  2.8936
   43MOL    H52 7696   0.087   2.940   0.622  0.2866  0.0362  0.3666
   43MOL    H53 7697   0.018   2.949   0.405  0.4547  0.8376  0.0825
   43MOL    H54 7698   7.591   2.903   0.522  0.5615  1.9052  3.8850
   43MOL    H55 7699   7.588   3.074   0.445  3.0861  1.1523 -2.1014
   43MOL    C56 7700   0.141   3.135   0.542  0.8941  0.4566 -1.0892
   43MOL    C57 7701   0.275   3.151   0.624  0.4138  1.0443  0.2530
   43MOL    C58 7702   0.260   3.230   0.751  0.2774  0.2252 -0.2449
   43MOL    H59 7703   0.169   3.102   0.442  1.9002  0.8168 -0.9330
   43MOL    H60 7704   0.092   3.232   0.536 -0.1725 -0.0602 -0.8335
   43MOL    H61 7705   0.335   3.213   0.557  1.8146  0.3459  0.8407
   43MOL    H62 7706   0.352   3.244   0.807 -0.2483 -1.4663  1.0902
   43MOL    H63 7707   0.240   3.336   0.739 -2.1256 -0.0790  0.7712
   43MOL    H64 7708   0.183   3.190   0.818 -0.0567  1.4912  0.1404
   43MOL    C65 7709   0.354   3.020   0.641 -0.0565 -0.3112 -0.1586
   43MOL    C66 7710   0.396   2.938   0.519  0.1279 -0.3407 -0.0381
   43MOL    C67 7711   0.473   3.033   0.434  0.0226 -0.3054 -0.1613
   43MOL    H68 7712   0.435   3.036   0.713  0.4442 -1.3165 -0.4824
   43MOL    H69 7713   0.285   2.957   0.697  1.1062 -1.0457  0.4653
   43MOL    H70 7714   0.309   2.898   0.467 -2.6993  2.2923  2.4260
   43MOL    H71 7715   0.552   3.087   0.486 -0.3818 -1.4485  1.7186
   43MOL    H72 7716   0.524   2.980   0.353 -1.0957  2.1184 -2.5266
   43MOL    H73 7717   0.410   3.106   0.383  0.0575  0.0748  0.3434
   43MOL    C74 7718   0.485   2.817   0.572  0.3714  0.6904  0.0610
   43MOL    C75 7719   0.419   2.675   0.573  0.2782  0.2953  0.0241
   43MOL    C76 7720   0.343   2.653   0.709  0.2372 -0.1797 -0.6482
   43MOL    H77 7721   0.574   2.809   0.510  0.9280  2.3036  0.6353
   43MOL    H78 7722   0.537   2.836   0.665 -1.5674 -3.9404  2.2674
   43MOL    H79 7723   0.507   2.612   0.579  1.2221  1.4710 -1.3352
   43MOL    H80 7724   0.285   2.563   0.728 -1.2533  0.7421 -0.7559
   43MOL    H81 7725   0.426   2.652   0.779  0.7533 -3.6525 -1.1968
   43MOL    H82 7726   0.269   2.731   0.726  0.6292 -0.1389  0.9384
   43MOL    C83 7727   0.347   2.619   0.448 -0.3893  0.7461 -0.5838
   43MOL    C84 7728   0.322   2.468   0.447  0.0641  0.1919 -0.2755
   43MOL    C85 7729   0.252   2.431   0.312 -0.6581  0.3376 -0.2012
   43MOL    H86 7730   0.256   2.676   0.433 -1.9410 -1.3053  0.8178
   43MOL    H87 7731   0.417   2.640   0.366 -1.9710  1.1501 -1.8515
   43MOL    H88 7732   0.243   2.457   0.522  1.4711 -0.3960  1.1414
   43MOL    H89 7733   0.254   2.325   0.287  0.8167 -0.5330  3.2929
   43MOL    H90 7734   0.143   2.428   0.321 -0.6343 -1.4131 -0.2097
   43MOL    H91 7735   0.297   2.482   0.228 -1.6423  2.4322  0.5194
   43MOL    C92 7736   0.444   2.384   0.466  0.4965  0.1770  0.1875
   43MOL    C93 7737   0.424   2.247   0.540  0.1441  0.2382  0.2305
   43MOL    C94 7738   0.550   2.156   0.522  0.5553  0.7793  0.2442
   43MOL    H95 7739   0.488   2.357   0.369  3.0637  0.3285  1.2835
   43MOL    H96 7740   0.533   2.428   0.509 -0.0444  1.2751  0.1886
   43MOL    H97 7741   0.338   2.197   0.496 -0.1514  1.1444 -0.2285
   43MOL    H98 7742   0.640   2.204   0.560  2.5431 -1.7235 -1.1568
   43MOL    H99 7743   0.529   2.065   0.578 -1.7464  0.4037 -1.1501
   43MOL   H100 7744   0.564   2.133   0.416  2.3438  0.9934  0.4218
   43MOL   C101 7745   0.401   2.268   0.690 -0.0022 -0.2280  0.0066
   43MOL   C102 7746   0.333   2.158   0.778  0.3714  0.3201  0.5188
   43MOL   C103 7747   0.398   2.155   0.919  0.5468 -0.5531  0.0609
   43MOL   H104 7748   0.486   2.305   0.748 -0.8534  0.2032  0.9945
   43MOL   H105 7749   0.329   2.349   0.696  0.5740  0.1782  1.6890
   43MOL   H106 7750   0.340   2.060   0.731  1.0633  0.8805 -0.5626
   43MOL   H107 7751   0.502   2.123   0.918  1.9306  3.5503  0.9580
   43MOL   H108 7752   0.404   2.256   0.961 -0.3138 -1.0833  1.5279
   43MOL   H109 7753   0.348   2.088   0.990  0.8289 -0.5502  0.2646
   43MOL   C110 7754   0.184   2.179   0.776  0.2847  0.0444  0.0174
   43MOL   C111 7755   0.104   2.067   0.850  0.3480 -0.2223  0.5112
   43MOL   C112 7756   0.032   2.126   0.973  0.4261 -0.1788 -0.1437
   43MOL   H113 7757   0.153   2.277   0.814 -0.4399 -0.2385  0.1562
   43MOL   H114 7758   0.142   2.194   0.676  0.2074 -1.0559 -0.1166
   43MOL   H115 7759   0.177   1.995   0.885  1.3299  0.5965  0.1739
   43MOL   H116 7760   7.639   2.184   0.951  1.2983  1.2858  0.0432
   43MOL   H117 7761   7.697   2.056   1.049  1.4896  0.4769  0.9434
   43MOL   H118 7762   0.089   2.197   1.033  0.2996  1.3330 -1.7628
   43MOL   C119 7763   0.001   1.995   0.758 -0.0857  0.0132 -0.1584
   43MOL   C120 7764   0.071   1.919   0.636  0.9375 -0.0530  0.0332
   43MOL   C121 7765   0.149   1.792   0.688  0.6751 -0.0493  0.1018
   43MOL   H122 7766   7.649   1.917   0.815  2.4822 -2.1148 -0.7775
   43MOL   H123 7767   7.617   2.055   0.717 -0.1041  0.5930  0.7292
   43MOL   H124 7768   0.147   1.991   0.607  2.5132 -1.9846 -0.7937
   43MOL   H125 7769   0.079   1.708   0.690  0.0459  0.4397 -0.9399
   43MOL   H126 7770   0.227   1.758   0.620  2.5371  2.6464  0.8288
   43MOL   H127 7771   0.180   1.799   0.792 -1.1065  0.0612  0.6481
   43MOL   C128 7772   7.670   1.898   0.512 -0.5156  0.0995 -0.7144
   43MOL   C129 7773   0.033   1.856   0.375  0.6269  0.0412 -0.6301
   43MOL   C130 7774   7.603   1.824   0.284  0.1608 -0.3243 -0.1317
   43MOL   H131 7775   7.593   1.830   0.550 -3.3871  3.6682  0.1855
   43MOL   H132 7776   7.612   1.989   0.499  1.6916  1.7145  0.5819
   43MOL   H133 7777   0.087   1.761   0.382  0.4538  0.1169  2.1392
   43MOL   H134 7778   7.627   1.780   0.187  1.6593  1.0263 -0.3987
   43MOL   H135 7779   7.536   1.764   0.345 -1.3275  1.8896  0.4776
   43MOL   H136 7780   7.549   1.910   0.245  0.3438 -0.1653 -0.0381
   43MOL   C137 7781   0.130   1.958   0.321  0.4277  0.2070 -0.5436
   43MOL   C138 7782   0.194   1.938   0.177 -0.0809 -0.2802 -0.0174
   43MOL   C139 7783   0.116   2.021   0.073  0.2550 -0.9985  0.3027
   43MOL   H140 7784   0.096   2.060   0.338  1.3471  0.5030 -0.4431
   43MOL   H141 7785   0.209   1.947   0.396 -1.3489  1.2379  1.5527
   43MOL   H142 7786   0.170   1.833   0.160 -1.2785  0.1564 -1.1116
   43MOL   H143 7787   0.160   2.121   0.070 -0.4862 -0.6163  1.4851
   43MOL   H144 7788   0.126   1.970   7.675 -0.7468  2.3032 -1.6391
   43MOL   H145 7789   0.009   2.031   0.095  0.6869  0.1702  1.9998
   43MOL   C146 7790   0.348   1.955   0.162 -0.0396  0.6929 -1.0024
   43MOL   C147 7791   0.436   1.835   0.179  0.4598  0.1498 -0.5042
   43MOL   C148 7792   0.444   1.771   0.318  0.2071 -0.0367 -0.1508
   43MOL   H149 7793   0.380   2.010   0.074  0.0165  1.9616 -0.2101
   43MOL   H150 7794   0.383   2.020   0.242  0.2723 -2.0091  1.1422
   43MOL   H151 7795   0.536   1.871   0.157  0.9632 -0.1566  1.2147
   43MOL   H152 7796   0.534   1.712   0.340 -1.4988 -1.2759  4.0259
   43MOL   H153 7797   0.452   1.848   0.395 -0.4935 -0.7199  0.6186
   43MOL   H154 7798   0.358   1.716   0.355 -1.0953  0.4245 -2.4431
   43MOL   C155 7799   0.410   1.725   0.066  0.4228  0.6076 -0.4474
   43MOL   C156 7800   0.435   1.769   7.618  0.2335  0.3213  0.2890
   43MOL   C157 7801   0.557   1.857   7.605 -0.3548 -0.0687  0.2797
   43MOL   H158 7802   0.483   1.645   0.077 -1.6266 -1.2288  0.0878
   43MOL   H159 7803   0.311   1.682   0.077 -0.0614  2.1668  1.6348
   43MOL   H160 7804   0.348   1.830   7.596  0.9498  0.6313 -1.7789
   43MOL   H161 7805   0.597   1.877   7.506 -0.0009 -0.3317  0.3674
   43MOL   H162 7806   0.536   1.958   7.640 -0.8259 -0.3487  0.8159
   43MOL   H163 7807   0.636   1.824   7.673  0.3919 -0.4976 -0.7924
   43MOL   C164 7808   0.439   1.648   7.517  0.2074 -0.2638 -0.9059
   43MOL   C165 7809   0.327   1.544   7.522 -0.0576 -0.0940  0.4371
   43MOL   C166 7810   0.201   1.613   7.466  0.0352 -0.4133  1.5604
   43MOL   H167 7811   0.442   1.693   7.418 -0.5475 -0.0810 -0.8472
   43MOL   H168 7812   0.538   1.603   7.529 -0.1176 -0.9015 -0.6001
   43MOL   H169 7813   0.306   1.511   7.623  0.3075  1.5408  1.0699
   43MOL   H170 7814   0.216   1.673   7.377 -4.5979 -1.0700  0.2027
   43MOL   H171 7815   0.125   1.542   7.433 -0.2159  1.3927 -1.9852
   43MOL   H172 7816   0.148   1.677   7.536 -2.8481  1.1097 -1.8855
   43MOL   C173 7817   0.365   1.421   7.446 -0.4159  0.3869  0.1908
   43MOL   C174 7818   0.345   1.426   7.290 -0.2109 -0.4625 -0.0065
   43MOL   C175 7819   0.325   1.282   7.233  0.3048  0.4881  0.2774
   43MOL   H176 7820   0.467   1.384   7.463 -0.7594 -0.9429 -0.6304
   43MOL   H177 7821   0.305   1.338   7.484 -2.0111  0.4858 -2.0196
   43MOL   H178 7822   0.406   1.493   7.230  0.1468 -0.7885 -0.0077
   43MOL   H179 7823   0.244   1.230   7.284  0.9231 -0.5143  0.2454
   43MOL   H180 7824   0.284   1.294   7.133  2.1725  3.0269 -0.2501
   43MOL   H181 7825   0.414   1.218   7.227  0.6763  1.1631 -2.3331
   43MOL   H182 7826   0.246   1.464   7.265 -1.3598 -2.9611  0.6078
   44MOL     C1 7827   5.164   3.369   0.860 -0.0182  0.0774  0.5597
   44MOL     C2 7828   5.235   3.353   0.728 -0.1374 -0.5868  0.0373
   44MOL     C3 7829   5.343   3.462   0.708  0.3974  0.1421 -0.2914
   44MOL     H4 7830   5.239   3.365   0.938  0.0119 -2.8013  0.4695
   44MOL     H5 7831   5.090   3.288   0.869  0.4707 -0.3628  0.6463
   44MOL     H6 7832   5.156   3.368   0.654 -0.5671  0.2092  0.6527
   44MOL     H7 7833   5.295   3.560   0.713 -0.2231  0.0230 -3.2241
   44MOL     H8 7834   5.430   3.447   0.772  0.8224 -0.1834 -0.9406
   44MOL     H9 7835   5.370   3.451   0.603 -0.3586  1.7430 -0.6747
   44MOL    H10 7836   5.103   3.459   0.872 -0.7708  0.0266 -2.4607
   44MOL    C11 7837   5.302   3.215   0.701 -0.4629  0.1918  0.6238
   44MOL    C12 7838   5.195   3.096   0.693  0.0683  0.2699  0.1768
   44MOL    C13 7839   5.101   3.114   0.576 -0.2053  0.1551 -0.9032
   44MOL    H14 7840   5.349   3.212   0.603 -0.8297  0.3289  0.4452
   44MOL    H15 7841   5.383   3.207   0.774  1.8688  1.7081 -1.7089
   44MOL    H16 7842   5.140   3.092   0.787  0.3051 -0.0254  0.3027
   44MOL    H17 7843   5.037   3.202   0.581  1.4064  1.2472  1.5377
   44MOL    H18 7844   5.154   3.119   0.481 -2.7198 -0.2955 -2.3550
   44MOL    H19 7845   5.026   3.038   0.555  1.7809 -2.1881  0.2046
   44MOL    C20 7846   5.266   2.951   0.688  0.1495 -0.1096  0.6773
   44MOL    C21 7847   5.345   2.900   0.813  0.1993  0.8551  0.0553
   44MOL    C22 7848   5.250   2.876   0.928  0.9708 -0.2671 -0.0841
   44MOL    H23 7849   5.182   2.888   0.660 -0.0832  1.0537 -1.3523
   44MOL    H24 7850   5.338   2.942   0.606  1.4915  0.0256  1.8268
   44MOL    H25 7851   5.419   2.972   0.849  0.1159  0.0970  1.7895
   44MOL    H26 7852   5.236   2.963   0.991  1.3213  1.3302 -2.1681
   44MOL    H27 7853   5.151   2.844   0.894  1.1697  0.4368 -1.3696
   44MOL    H28 7854   5.278   2.795   0.995  1.0953 -2.1717 -2.3627
   44MOL    C29 7855   5.429   2.769   0.787 -0.2313  0.4829 -0.1464
   44MOL    C30 7856   5.564   2.784   0.708 -1.0664  0.2762 -0.3667
   44MOL    C31 7857   5.672   2.855   0.789  0.1297  0.0130  0.1797
   44MOL    H32 7858   5.439   2.728   0.888  1.8214  2.3450  0.4423
   44MOL    H33 7859   5.375   2.691   0.734  0.9170  0.5863 -1.4910
   44MOL    H34 7860   5.541   2.845   0.621 -1.2891 -0.4273 -0.7981
   44MOL    H35 7861   5.755   2.858   0.717  1.0446  3.7179  1.2905
   44MOL    H36 7862   5.658   2.961   0.811 -1.3786  0.0152 -0.7192
   44MOL    H37 7863   5.711   2.815   0.882 -0.4016  1.6510  1.1119
   44MOL    C38 7864   5.624   2.654   0.646  0.6968 -0.0095  0.2360
   44MOL    C39 7865   5.656   2.541   0.748 -0.3218  0.2174  0.2048
   44MOL    C40 7866   5.535   2.442   0.757  0.2591  0.4501  0.8285
   44MOL    H41 7867   5.543   2.616   0.584  0.2593  2.1342 -0.5575
   44MOL    H42 7868   5.704   2.669   0.573  1.0451  1.3928  0.8862
   44MOL    H43 7869   5.673   2.588   0.845  1.4807  1.4990 -0.6873
   44MOL    H44 7870   5.511   2.406   0.657  0.7793 -0.0487  0.8798
   44MOL    H45 7871   5.556   2.348   0.808  0.9647  0.0109 -0.2473
   44MOL    H46 7872   5.449   2.496   0.797 -1.8004 -2.3812  0.3498
   44MOL    C47 7873   5.794   2.468   0.724 -0.7400 -0.6069  0.1856
   44MOL    C48 7874   5.923   2.551   0.742  0.2119  0.2448 -0.6587
   44MOL    C49 7875   5.949   2.600   0.887  0.2075  0.7822  0.0774
   44MOL    H50 7876   5.809   2.384   0.792  1.3944 -1.0539 -0.7628
   44MOL    H51 7877   5.787   2.412   0.630 -0.1779 -2.4044  1.2009
   44MOL    H52 7878   5.910   2.637   0.676  0.0649 -0.4334 -1.5212
   44MOL    H53 7879   5.925   2.513   0.948 -1.0130 -1.6735 -3.7138
   44MOL    H54 7880   6.044   2.646   0.914  1.4947 -0.9720 -1.3646
   44MOL    H55 7881   5.883   2.681   0.918  1.4826  1.6312  0.5971
   44MOL    C56 7882   6.047   2.476   0.691  0.0979  0.1660  0.7302
   44MOL    C57 7883   6.063   2.441   0.536  0.5622 -0.2466 -0.0859
   44MOL    C58 7884   6.078   2.574   0.451 -0.5405 -0.1808 -0.3352
   44MOL    H59 7885   6.134   2.538   0.710  1.0761 -1.0262  0.2061
   44MOL    H60 7886   6.053   2.385   0.751 -2.7441 -0.1875  0.5448
   44MOL    H61 7887   5.983   2.382   0.490  1.4731 -0.6528 -1.1693
   44MOL    H62 7888   6.086   2.531   0.352  2.1868 -2.0752  0.6474
   44MOL    H63 7889   5.988   2.635   0.446 -0.2653  0.0665 -2.5393
   44MOL    H64 7890   6.169   2.633   0.467 -0.7540  0.2553 -0.7339
   44MOL    C65 7891   6.196   2.370   0.501 -0.5254 -0.1261 -0.1165
   44MOL    C66 7892   6.215   2.229   0.551  0.2454 -0.3441 -0.1007
   44MOL    C67 7893   6.098   2.140   0.505  0.1268  0.4696 -0.2311
   44MOL    H68 7894   6.206   2.360   0.393  0.4941  2.1431 -0.2516
   44MOL    H69 7895   6.283   2.427   0.533 -1.7112  2.1487 -0.8320
   44MOL    H70 7896   6.212   2.216   0.659 -1.1150 -3.2236 -0.4466
   44MOL    H71 7897   6.007   2.153   0.564  1.3062  0.1416  1.7320
   44MOL    H72 7898   6.072   2.145   0.400  0.3382  2.0812 -0.2099
   44MOL    H73 7899   6.108   2.034   0.530  0.1620  0.4141 -0.4784
   44MOL    C74 7900   6.350   2.167   0.492 -0.1322 -0.2974 -0.2738
   44MOL    C75 7901   6.432   2.080   0.595  0.3275  0.6632  0.6031
   44MOL    C76 7902   6.357   1.956   0.642  0.4100 -0.6807 -0.1051
   44MOL    H77 7903   6.323   2.111   0.402 -2.6732  0.5120 -0.0530
   44MOL    H78 7904   6.415   2.250   0.466  1.2753 -1.5358 -0.7987
   44MOL    H79 7905   6.449   2.141   0.683 -2.3954  1.9455  0.2913
   44MOL    H80 7906   6.267   1.993   0.691 -0.5954 -1.1856 -1.5401
   44MOL    H81 7907   6.319   1.890   0.565 -1.1746 -0.2329  0.2902
   44MOL    H82 7908   6.420   1.905   0.716  2.4574  0.1705 -1.2080
   44MOL    C83 7909   6.559   2.029   0.531 -1.0505 -0.4924 -0.0203
   44MOL    C84 7910   6.686   2.105   0.596  0.4721 -0.5203  0.8226
   44MOL    C85 7911   6.709   2.044   0.732  0.6757 -0.2741  0.0726
   44MOL    H86 7912   6.584   1.924   0.547  0.0671  0.0940  2.2383
   44MOL    H87 7913   6.562   2.023   0.422 -1.7201  1.4257 -0.1576
   44MOL    H88 7914   6.654   2.207   0.615 -0.3047 -0.6466  0.2469
   44MOL    H89 7915   6.739   1.941   0.715  0.6631 -0.1180 -0.9203
   44MOL    H90 7916   6.790   2.087   0.791  0.5596 -1.1211  0.8498
   44MOL    H91 7917   6.619   2.056   0.792  2.3817 -0.2148  2.7213
   44MOL    C92 7918   6.811   2.087   0.513  0.4794  0.2848  0.1954
   44MOL    C93 7919   6.815   2.193   0.396 -0.0937 -0.4866 -0.5122
   44MOL    C94 7920   6.856   2.331   0.459 -0.2712  0.0205  0.4543
   44MOL    H95 7921   6.904   2.090   0.570  1.8428 -0.9734 -1.8914
   44MOL    H96 7922   6.813   1.985   0.474  0.6380  0.0304  0.8684
   44MOL    H97 7923   6.727   2.209   0.334 -1.0335 -1.9283  0.4204
   44MOL    H98 7924   6.775   2.379   0.514 -0.2775  2.6460 -1.7333
   44MOL    H99 7925   6.935   2.311   0.531 -0.0684 -0.7281  0.0305
   44MOL   H100 7926   6.887   2.402   0.382 -0.2231 -1.1738 -0.6517
   44MOL   C101 7927   6.915   2.155   0.293 -0.2282  0.3228 -0.2333
   44MOL   C102 7928   6.892   2.019   0.214  0.3510  0.4212  0.7251
   44MOL   C103 7929   6.748   2.005   0.150 -0.1180  0.2328 -0.8840
   44MOL   H104 7930   6.921   2.228   0.213  0.9833  1.5466  0.9389
   44MOL   H105 7931   7.012   2.154   0.343  0.0332  2.5019 -0.6575
   44MOL   H106 7932   6.903   1.931   0.278  1.5552 -0.6696 -0.9312
   44MOL   H107 7933   6.670   2.015   0.226  0.1379  3.1228 -0.9410
   44MOL   H108 7934   6.726   2.092   0.089 -0.0484  1.3239  0.6046
   44MOL   H109 7935   6.737   1.919   0.084 -0.2709 -0.4118 -0.0328
   44MOL   C110 7936   7.008   2.000   0.118 -0.2939 -0.2735 -0.8568
   44MOL   C111 7937   7.154   1.974   0.172  0.0367 -0.1717  0.2681
   44MOL   C112 7938   7.174   1.837   0.213 -0.5202  0.2531  0.4495
   44MOL   H113 7939   6.983   1.919   0.051  0.7172 -0.0805 -1.4777
   44MOL   H114 7940   6.994   2.077   0.042  0.3551 -2.7358 -3.5299
   44MOL   H115 7941   7.174   2.044   0.253 -1.3253 -0.4058  0.8249
   44MOL   H116 7942   7.271   1.834   0.262  0.0665  0.5456 -0.6956
   44MOL   H117 7943   7.099   1.820   0.291 -0.9660 -2.2090 -0.4707
   44MOL   H118 7944   7.148   1.771   0.130 -3.1305  1.7731 -0.0200
   44MOL   C119 7945   7.269   2.001   0.079 -0.0044  0.0912  0.1508
   44MOL   C120 7946   7.270   2.148   0.027 -0.0294  0.1505 -0.8086
   44MOL   C121 7947   7.293   2.249   0.151 -0.1750 -0.0624  0.4097
   44MOL   H122 7948   7.367   1.965   0.111  1.0338  1.9868 -0.8067
   44MOL   H123 7949   7.252   1.945   7.685 -0.0623 -1.5873  1.1573
   44MOL   H124 7950   7.180   2.188   7.679 -0.7114  2.6766  2.5750
   44MOL   H125 7951   7.368   2.217   0.223  0.3167  0.4214  0.1266
   44MOL   H126 7952   7.321   2.351   0.122  2.1169 -0.2351  1.9092
   44MOL   H127 7953   7.212   2.259   0.222 -0.2418  0.1218  0.3088
   44MOL   C128 7954   7.382   2.182   7.619 -0.6412  0.0289  0.2546
   44MOL   C129 7955   7.373   2.128   7.478 -0.3050  0.7699  0.0218
   44MOL   C130 7956   7.250   2.190   7.418 -0.5435 -0.3019  0.1508
   44MOL   H131 7957   7.394   2.290   7.626 -2.2849  0.2172  0.1536
   44MOL   H132 7958   7.474   2.144   7.664  0.7377  0.5124 -2.0672
   44MOL   H133 7959   7.363   2.021   7.496  3.5897  0.6644  2.2195
   44MOL   H134 7960   7.247   2.158   7.313  0.5906 -0.5555  0.1924
   44MOL   H135 7961   7.152   2.165   7.460 -0.8291  1.8425  0.8087
   44MOL   H136 7962   7.250   2.299   7.414  1.3496 -0.3122 -0.2058
   44MOL   C137 7963   7.499   2.171   7.391 -0.8822 -0.2377 -0.1419
   44MOL   C138 7964   7.644   2.102   7.426 -0.1002 -0.0191  0.2598
   44MOL   C139 7965   7.640   1.947   7.418  0.3356  0.1721 -0.6196
   44MOL   H140 7966   7.476   2.144   7.288 -1.7346  0.0852 -0.0351
   44MOL   H141 7967   7.496   2.280   7.396  0.5017 -0.2030  0.1448
   44MOL   H142 7968   7.668   2.133   7.528 -0.6727 -0.8527  0.6507
   44MOL   H143 7969   7.661   1.920   7.315  1.8174 -4.3664  0.7482
   44MOL   H144 7970   0.022   1.913   7.485  0.7772 -1.3951 -1.8978
   44MOL   H145 7971   7.543   1.905   7.444  0.1015 -0.4494 -2.4076
   44MOL   C146 7972   0.048   2.156   7.330 -0.5144  0.3971 -0.8479
   44MOL   C147 7973   0.191   2.156   7.385 -0.2451  0.0946 -0.6002
   44MOL   C148 7974   0.264   2.018   7.367 -0.0375 -0.5837 -0.0090
   44MOL   H149 7975   0.057   2.109   7.232 -1.9309  0.0619 -0.8320
   44MOL   H150 7976   0.015   2.259   7.317 -1.2111  0.2864 -0.0460
   44MOL   H151 7977   0.181   2.186   7.490 -0.7599  1.8836 -1.1430
   44MOL   H152 7978   0.244   1.970   7.271 -3.1630 -0.6563  0.6089
   44MOL   H153 7979   0.371   2.036   7.366 -0.4105  1.9050  0.5847
   44MOL   H154 7980   0.240   1.952   7.450  0.7805 -0.6871  0.1461
   44MOL   C155 7981   0.255   2.280   7.317  0.1186  0.4815  0.4641
   44MOL   C156 7982   0.400   2.308   7.352  0.5260  0.4089 -0.0597
   44MOL   C157 7983   0.451   2.433   7.269 -0.5334  0.3006  0.0278
   44MOL   H158 7984   0.246   2.275   7.208  0.6973 -1.5983  0.4985
   44MOL   H159 7985   0.192   2.365   7.341  0.2809  0.3054  1.5465
   44MOL   H160 7986   0.468   2.230   7.320  1.6481  1.6845 -0.8560
   44MOL   H161 7987   0.418   2.524   7.318 -3.7004 -0.5448 -0.4615
   44MOL   H162 7988   0.559   2.420   7.267 -0.0220  3.9570  0.3411
   44MOL   H163 7989   0.418   2.450   7.167  2.0304  2.7203 -0.4843
   44MOL   C164 7990   0.422   2.327   7.499 -0.4720 -0.5191 -0.2789
   44MOL   C165 7991   0.569   2.366   7.543 -0.7899  0.1345 -0.4482
   44MOL   C166 7992   0.566   2.428   7.683 -0.3348 -0.4477 -0.3867
   44MOL   H167 7993   0.352   2.403   7.535  0.3098  1.5042 -2.8876
   44MOL   H168 7994   0.394   2.236   7.552 -1.5706  1.0784  1.9692
   44MOL   H169 7995   0.600   2.448   7.478  2.2289  0.4044  1.2755
   44MOL   H170 7996   0.667   2.424   0.026  0.3451 -1.7188 -2.1584
   44MOL   H171 7997   0.515   2.525   7.687 -0.4664 -0.4014 -2.5700
   44MOL   H172 7998   0.522   2.357   0.056 -2.3150  1.5046  0.4211
   44MOL   C173 7999   0.677   2.257   7.527 -0.4357  0.2866 -0.4131
   44MOL   C174 8000   0.815   2.306   7.484 -0.7921 -0.2356 -0.3164
   44MOL   C175 8001   0.924   2.199   7.461  0.2210  0.4151 -0.0215
   44MOL   H176 8002   0.678   2.194   7.616  1.3860  1.7112  0.6147
   44MOL   H177 8003   0.643   2.181   7.458  0.2802  0.6809 -1.2091
   44MOL   H178 8004   0.866   2.371   7.555 -1.3435 -0.1841  0.0320
   44MOL   H179 8005   0.915   2.129   7.544 -1.6787  2.2442  1.3692
   44MOL   H180 8006   0.919   2.165   7.358  0.0301 -2.6150  0.9500
   44MOL   H181 8007   1.025   2.238   7.472 -0.3020  1.0518  2.9402
   44MOL   H182 8008   0.814   2.369   7.394 -0.0359  1.4743  0.8425
   45MOL     C1 8009   5.721   2.357   6.362 -0.0192 -0.3618  0.1939
   45MOL     C2 8010   5.695   2.427   6.227  0.0428  0.1145  0.3951
   45MOL     C3 8011   5.763   2.353   6.109  0.2863 -0.0340 -0.5108
   45MOL     H4 8012   5.821   2.316   6.374  0.2829  0.1166 -0.5965
   45MOL     H5 8013   5.647   2.277   6.362  0.0716 -0.4593  1.9000
   45MOL     H6 8014   5.748   2.522   6.238  0.0505 -0.0757  2.2668
   45MOL     H7 8015   5.856   2.305   6.139  1.1779  1.0949 -1.4159
   45MOL     H8 8016   5.703   2.272   6.066  2.0250 -1.4681 -0.2974
   45MOL     H9 8017   5.788   2.420   6.027  0.2972  2.0028  1.1258
   45MOL    H10 8018   5.710   2.430   6.442 -0.0758 -0.2971  0.1274
   45MOL    C11 8019   5.548   2.453   6.193 -0.2330 -0.1090  0.3330
   45MOL    C12 8020   5.468   2.558   6.280 -0.2027  0.1922  0.3920
   45MOL    C13 8021   5.524   2.698   6.266 -0.0388 -0.9470  0.0886
   45MOL    H14 8022   5.567   2.497   6.096 -1.7882  2.0034  0.9559
   45MOL    H15 8023   5.498   2.356   6.194 -0.1191 -0.1879 -1.3213
   45MOL    H16 8024   5.484   2.538   6.386 -0.5059 -0.4441  0.3244
   45MOL    H17 8025   5.632   2.693   6.254 -0.1415  0.6367 -1.7488
   45MOL    H18 8026   5.482   2.755   6.184 -0.1117 -1.4050 -0.1928
   45MOL    H19 8027   5.498   2.754   6.356  0.7764 -1.9894  0.9954
   45MOL    C20 8028   5.315   2.564   6.250 -0.4729  0.7846 -0.7493
   45MOL    C21 8029   5.230   2.442   6.291  0.2754  0.0949  0.0180
   45MOL    C22 8030   5.213   2.436   6.441  0.9412 -0.1237  0.2222
   45MOL    H23 8031   5.287   2.661   6.291  2.5242  2.0759 -1.6672
   45MOL    H24 8032   5.311   2.588   6.143 -0.7760 -0.8524 -1.1110
   45MOL    H25 8033   5.281   2.349   6.267 -0.2658 -0.0634 -0.5374
   45MOL    H26 8034   5.298   2.461   6.505  0.1725  1.4894  0.6447
   45MOL    H27 8035   5.147   2.515   6.475  2.3348  0.3733  1.8391
   45MOL    H28 8036   5.169   2.342   6.475 -0.0408 -0.5638 -2.1482
   45MOL    C29 8037   5.088   2.447   6.219  0.3846 -0.3671  0.1258
   45MOL    C30 8038   5.082   2.383   6.077 -0.1846  0.2226 -0.7014
   45MOL    C31 8039   5.115   2.233   6.073 -0.4924  0.4804 -0.6773
   45MOL    H32 8040   5.019   2.388   6.279 -0.9271  0.9158 -0.1098
   45MOL    H33 8041   5.051   2.550   6.225 -1.8197 -1.1438  0.1434
   45MOL    H34 8042   5.167   2.432   6.029  1.0306  0.2994  1.4556
   45MOL    H35 8043   5.079   2.187   5.981  3.0109 -0.0748 -1.8188
   45MOL    H36 8044   5.222   2.214   6.063 -0.6663 -1.8477  1.5846
   45MOL    H37 8045   5.084   2.185   6.165 -1.8221  2.2942 -0.1339
   45MOL    C38 8046   4.944   2.409   6.008 -0.5519 -0.3072  0.1384
   45MOL    C39 8047   4.926   2.542   5.920 -0.5750 -0.6255  0.2536
   45MOL    C40 8048   4.971   2.511   5.777 -0.4302 -0.4944  0.1606
   45MOL    H41 8049   4.920   2.322   5.948 -0.1426 -0.8462  0.7401
   45MOL    H42 8050   4.876   2.411   6.093  0.1933  1.4856  0.7281
   45MOL    H43 8051   5.001   2.611   5.959 -0.3512 -1.1706  0.8019
   45MOL    H44 8052   5.074   2.487   5.751 -0.3567  1.2447 -1.1980
   45MOL    H45 8053   4.916   2.427   5.735  2.1437 -1.2187 -1.9593
   45MOL    H46 8054   4.963   2.599   5.714  0.0162 -1.6629 -1.5614
   45MOL    C47 8055   4.785   2.607   5.934 -0.0147  0.0972 -0.2001
   45MOL    C48 8056   4.744   2.735   5.867  0.3252 -0.2354  0.6708
   45MOL    C49 8057   4.594   2.759   5.845  0.4229  0.7157 -0.9024
   45MOL    H50 8058   4.719   2.524   5.912  0.0090 -0.0246  0.1838
   45MOL    H51 8059   4.766   2.632   6.039 -1.9298  0.9639 -0.7437
   45MOL    H52 8060   4.790   2.732   5.768 -0.4687  1.4703  0.2483
   45MOL    H53 8061   4.578   2.836   5.771  1.3471  2.3458  0.5453
   45MOL    H54 8062   4.541   2.671   5.808  1.0124 -0.2397  0.4799
   45MOL    H55 8063   4.554   2.788   5.942  1.4483 -2.1605  0.4621
   45MOL    C56 8064   4.813   2.863   5.916 -0.9679 -0.3346 -0.1901
   45MOL    C57 8065   4.960   2.891   5.869 -0.2061 -0.8560  0.6758
   45MOL    C58 8066   4.954   2.988   5.749  0.5227 -0.6487 -0.2502
   45MOL    H59 8067   4.757   2.949   5.881 -0.3957  1.2774  2.7135
   45MOL    H60 8068   4.817   2.866   6.025  0.9633  1.9728 -0.2686
   45MOL    H61 8069   5.004   2.802   5.825 -2.1933 -0.1800 -2.9433
   45MOL    H62 8070   4.876   2.973   5.674 -0.3499 -0.9185  0.7048
   45MOL    H63 8071   4.946   3.088   5.792  0.5050  0.1085 -1.9788
   45MOL    H64 8072   5.046   2.986   5.691 -1.2262 -0.4683 -3.1698
   45MOL    C65 8073   5.050   2.931   5.986  0.9395  0.6553 -0.0991
   45MOL    C66 8074   5.194   2.963   5.953 -0.0713  0.3687  0.1907
   45MOL    C67 8075   5.270   2.989   6.088 -0.5758 -0.0339  0.2701
   45MOL    H68 8076   5.020   3.030   6.022 -1.0976 -0.0745  0.2628
   45MOL    H69 8077   5.051   2.863   6.072 -1.4162  0.0399 -0.5477
   45MOL    H70 8078   5.198   3.051   5.889 -1.9430 -1.7943 -2.9900
   45MOL    H71 8079   5.364   3.040   6.066  0.0688 -1.5676 -0.5875
   45MOL    H72 8080   5.209   3.052   6.152 -1.3026 -2.4562  2.0300
   45MOL    H73 8081   5.291   2.904   6.152 -0.8767  0.1935  0.6722
   45MOL    C74 8082   5.270   2.839   5.879 -0.2200  0.1820 -0.0149
   45MOL    C75 8083   5.426   2.862   5.858  0.6416  0.3790 -0.2773
   45MOL    C76 8084   5.499   2.730   5.814 -0.4661 -0.6592 -0.0693
   45MOL    H77 8085   5.254   2.744   5.929  1.3722  1.0753  2.2860
   45MOL    H78 8086   5.220   2.811   5.787  0.0791 -3.7407  0.9165
   45MOL    H79 8087   5.468   2.892   5.954  1.9665  0.0850 -0.7412
   45MOL    H80 8088   5.605   2.740   5.789 -0.7025  1.7291 -0.2885
   45MOL    H81 8089   5.482   2.657   5.893 -1.7063 -0.3501 -0.0460
   45MOL    H82 8090   5.447   2.695   5.725 -1.5410 -0.3580  0.4377
   45MOL    C83 8091   5.440   2.986   5.761 -0.0376  0.5847  0.8395
   45MOL    C84 8092   5.572   3.018   5.694 -0.2310 -0.8766 -0.8837
   45MOL    C85 8093   5.552   3.129   5.588  0.2510 -0.3728  0.5601
   45MOL    H86 8094   5.366   2.974   5.682  0.1635  0.2989  0.6911
   45MOL    H87 8095   5.395   3.077   5.802 -1.4658  0.9978 -1.5389
   45MOL    H88 8096   5.617   2.931   5.646 -0.0726 -0.8627 -0.7628
   45MOL    H89 8097   5.640   3.131   5.523 -0.1622 -1.6411 -0.0530
   45MOL    H90 8098   5.467   3.119   5.520  0.2756  3.4129 -0.1366
   45MOL    H91 8099   5.535   3.227   5.634 -1.1253 -0.7911  0.9838
   45MOL    C92 8100   5.668   3.055   5.809 -0.2602 -0.1583  0.2710
   45MOL    C93 8101   5.800   2.976   5.831 -0.0411  0.2294 -0.0546
   45MOL    C94 8102   5.906   2.996   5.716  1.1649 -0.2747 -0.0067
   45MOL    H95 8103   5.702   3.158   5.793 -0.8001 -0.0682 -0.2913
   45MOL    H96 8104   5.627   3.057   5.910  0.2536 -1.5142  0.5162
   45MOL    H97 8105   5.777   2.870   5.824 -1.7047  0.6279 -1.0303
   45MOL    H98 8106   5.958   2.901   5.701 -0.4465 -1.1419 -0.1758
   45MOL    H99 8107   5.865   3.017   5.617 -2.3595 -0.7954  1.2753
   45MOL   H100 8108   5.981   3.071   5.742 -0.0454  1.1137 -0.4455
   45MOL   C101 8109   5.882   2.980   5.968  0.3929 -0.2245  0.4068
   45MOL   C102 8110   5.821   2.893   6.082 -0.1511  0.2993 -0.5561
   45MOL   C103 8111   5.884   2.749   6.089  0.5362  0.3510 -0.1519
   45MOL   H104 8112   5.985   2.951   5.948 -0.0967 -2.3726  0.9414
   45MOL   H105 8113   5.882   3.086   5.994 -1.8088 -0.0374 -0.2580
   45MOL   H106 8114   5.715   2.890   6.057 -0.2961 -0.9534  0.1762
   45MOL   H107 8115   5.844   2.695   6.004 -0.4127  0.4496  0.2300
   45MOL   H108 8116   5.993   2.740   6.086  0.5498  0.8508 -1.5400
   45MOL   H109 8117   5.864   2.699   6.184  0.7847  2.4281  1.0421
   45MOL   C110 8118   5.825   2.966   6.220  0.0413  0.1379  0.3383
   45MOL   C111 8119   5.735   3.092   6.218  0.1775  0.5401 -0.2572
   45MOL   C112 8120   5.583   3.050   6.230 -0.2853 -0.2274  0.5278
   45MOL   H113 8121   5.798   2.897   6.300 -1.6303  2.1495  1.5783
   45MOL   H114 8122   5.927   3.003   6.225 -0.2046  0.9531 -0.4037
   45MOL   H115 8123   5.756   3.146   6.125 -0.8111  0.5819 -0.4661
   45MOL   H116 8124   5.561   3.003   6.326 -1.6551 -0.7811 -0.0411
   45MOL   H117 8125   5.540   3.150   6.219 -0.7837 -0.1994  2.5356
   45MOL   H118 8126   5.561   2.996   6.138 -0.2042 -1.3157  1.1413
   45MOL   C119 8127   5.770   3.194   6.332  0.1006 -0.6338 -0.7854
   45MOL   C120 8128   5.899   3.274   6.317 -0.4647  0.1866  0.2262
   45MOL   C121 8129   5.878   3.430   6.314  0.4728 -0.9055 -0.0243
   45MOL   H122 8130   5.682   3.258   6.333  0.5181 -0.0582 -0.7582
   45MOL   H123 8131   5.757   3.143   6.427  0.1732  0.4708 -0.1698
   45MOL   H124 8132   5.944   3.250   6.221  1.4168  0.8507  0.9085
   45MOL   H125 8133   5.973   3.477   6.285  0.2805 -0.1999  0.4774
   45MOL   H126 8134   5.806   3.444   6.233 -0.4377  0.7149  1.0457
   45MOL   H127 8135   5.840   3.484   6.401  0.2714 -0.3968 -0.4202
   45MOL   C128 8136   6.006   3.236   6.422  0.1099  0.4143  0.1125
   45MOL   C129 8137   6.150   3.264   6.401 -0.8165 -0.3829  0.0519
   45MOL   C130 8138   6.225   3.288   6.535  0.7168 -0.3593  0.2407
   45MOL   H131 8139   5.967   3.280   6.514  0.7483  0.3933  0.3933
   45MOL   H132 8140   6.002   3.133   6.456 -0.0794  0.8232  1.3550
   45MOL   H133 8141   6.168   3.356   6.346 -0.3455 -1.2559 -1.2775
   45MOL   H134 8142   6.170   3.372   6.579 -0.5092  0.6821 -3.1644
   45MOL   H135 8143   6.203   3.207   6.605 -0.9809  0.0019  0.1580
   45MOL   H136 8144   6.330   3.309   6.516  0.0499  0.7248 -2.4401
   45MOL   C137 8145   6.216   3.158   6.311 -0.2606  0.1845  0.3507
   45MOL   C138 8146   6.309   3.211   6.197  0.2287 -0.1889  0.3566
   45MOL   C139 8147   6.426   3.283   6.257 -0.3143  0.4851  0.1097
   45MOL   H140 8148   6.280   3.100   6.378  1.3329 -1.8416 -2.8137
   45MOL   H141 8149   6.133   3.097   6.277 -0.6351  1.0010 -0.2165
   45MOL   H142 8150   6.264   3.298   6.149  0.3116  0.8471  2.1161
   45MOL   H143 8151   6.403   3.371   6.318  0.8358  0.1496  1.0497
   45MOL   H144 8152   6.484   3.205   6.306  1.8358  0.6764 -2.0175
   45MOL   H145 8153   6.481   3.332   6.176 -1.6764 -1.6617 -2.1925
   45MOL   C146 8154   6.335   3.108   6.085  0.0622  0.2432  0.8578
   45MOL   C147 8155   6.433   2.998   6.121 -0.4640 -0.6059 -0.5190
   45MOL   C148 8156   6.379   2.905   6.226  0.3385 -0.3480  0.3144
   45MOL   H149 8157   6.247   3.063   6.041 -0.4930  0.9845  1.2019
   45MOL   H150 8158   6.388   3.158   6.003 -0.2726  0.8645  1.0182
   45MOL   H151 8159   6.532   3.032   6.151 -1.0074 -0.4082  1.0946
   45MOL   H152 8160   6.397   2.949   6.324 -2.0170 -1.2654  1.1896
   45MOL   H153 8161   6.270   2.905   6.224  0.2630  0.3443  3.0569
   45MOL   H154 8162   6.396   2.797   6.221  0.1683 -0.2802 -2.2696
   45MOL   C155 8163   6.481   2.904   6.009 -0.1081  0.4388  0.3042
   45MOL   C156 8164   6.608   2.814   6.046 -0.1455  0.3004  0.0096
   45MOL   C157 8165   6.612   2.689   5.953 -0.0675 -0.4039  0.5171
   45MOL   H158 8166   6.399   2.838   5.979 -0.5408  0.4578  1.4217
   45MOL   H159 8167   6.493   2.957   5.915  2.9978  0.4073  0.6359
   45MOL   H160 8168   6.593   2.768   6.143  0.2004 -2.3324 -1.1400
   45MOL   H161 8169   6.697   2.622   5.968 -0.4076 -1.2664 -1.2853
   45MOL   H162 8170   6.528   2.620   5.967 -1.0696  0.6945 -0.0113
   45MOL   H163 8171   6.615   2.716   5.848 -0.4702 -1.3991  0.2429
   45MOL   C164 8172   6.744   2.890   6.047 -0.4080 -0.2220  0.5498
   45MOL   C165 8173   6.815   2.909   6.180  0.1785  0.5852 -0.4943
   45MOL   C166 8174   6.869   2.784   6.244 -0.1493  0.2383 -0.4213
   45MOL   H167 8175   6.811   2.854   5.969  0.5604  1.6670  0.4730
   45MOL   H168 8176   6.718   2.988   6.006 -1.7858 -1.0201 -0.5458
   45MOL   H169 8177   6.740   2.941   6.252  2.1069 -2.3027  2.9571
   45MOL   H170 8178   6.946   2.748   6.176 -2.6310  0.2924 -3.3756
   45MOL   H171 8179   6.896   2.793   6.349  0.1269  3.2962 -0.7043
   45MOL   H172 8180   6.792   2.707   6.245  1.0420 -0.9484  1.3897
   45MOL   C173 8181   6.915   3.025   6.182 -0.4070  0.6239 -0.2694
   45MOL   C174 8182   6.861   3.168   6.170 -0.2269  0.8478 -1.0995
   45MOL   C175 8183   6.984   3.258   6.190  0.4373 -0.5980 -0.5777
   45MOL   H176 8184   6.937   3.025   6.289  3.5663  1.5159 -1.0157
   45MOL   H177 8185   7.006   3.002   6.126 -1.0640 -2.1302 -0.2607
   45MOL   H178 8186   6.796   3.202   6.251  0.0963 -0.6695 -0.1994
   45MOL   H179 8187   6.952   3.361   6.175 -0.0574 -0.4346  1.4062
   45MOL   H180 8188   7.030   3.254   6.289 -2.0168  0.1108  0.6089
   45MOL   H181 8189   7.061   3.230   6.118  1.8014  1.6617 -0.0350
   45MOL   H182 8190   6.817   3.194   6.073 -1.8584  0.1553 -0.5611
   46MOL     C1 8191   0.208   2.380   3.096  0.1750  0.3601  0.3255
   46MOL     C2 8192   0.261   2.387   3.240 -0.3840  0.4273 -0.2193
   46MOL     C3 8193   0.175   2.500   3.312 -0.5684  0.3241  0.2048
   46MOL     H4 8194   0.272   2.330   3.024 -3.1758 -1.0633 -1.7408
   46MOL     H5 8195   0.199   2.479   3.051 -0.9360 -0.0192 -0.2929
   46MOL     H6 8196   0.363   2.423   3.238 -0.4220  0.4924 -1.0019
   46MOL     H7 8197   0.197   2.597   3.267  2.7798 -1.7345 -2.8564
   46MOL     H8 8198   0.067   2.482   3.310 -0.1874 -2.0975 -0.7816
   46MOL     H9 8199   0.205   2.497   3.416  0.1324  0.2330  0.0014
   46MOL    H10 8200   0.114   2.326   3.087 -0.4050  1.7291 -1.9889
   46MOL    C11 8201   0.238   2.253   3.306 -0.3041 -0.2418  0.3883
   46MOL    C12 8202   0.339   2.142   3.263 -0.0819 -0.1829  0.4059
   46MOL    C13 8203   0.447   2.143   3.360  0.3074 -0.1212 -0.1927
   46MOL    H14 8204   0.268   2.272   3.409  1.6779 -1.3107  0.0218
   46MOL    H15 8205   0.135   2.216   3.306 -0.6702  0.7309 -0.9487
   46MOL    H16 8206   0.375   2.178   3.167 -0.0143  1.3817  0.9975
   46MOL    H17 8207   0.426   2.110   3.462 -0.9293 -3.4943 -1.4762
   46MOL    H18 8208   0.543   2.101   3.331 -0.1278 -1.8221  0.7428
   46MOL    H19 8209   0.483   2.246   3.372 -1.9174  0.8559 -1.7029
   46MOL    C20 8210   0.270   2.006   3.233 -0.2952  0.0212  0.4804
   46MOL    C21 8211   0.181   2.005   3.106 -0.3422 -0.7252 -0.6728
   46MOL    C22 8212   0.262   1.990   2.975 -0.2258  0.1244  0.2955
   46MOL    H23 8213   0.349   1.932   3.219  0.3793  0.7963  0.1588
   46MOL    H24 8214   0.205   1.987   3.318  0.7731 -1.0597  1.0733
   46MOL    H25 8215   0.140   2.105   3.098  0.4721 -0.2000  1.5055
   46MOL    H26 8216   0.306   1.892   2.962  0.3787  0.6637 -1.9698
   46MOL    H27 8217   0.212   2.018   2.882 -0.3141 -1.4471 -0.1478
   46MOL    H28 8218   0.342   2.064   2.975 -0.6001  0.5356  0.2283
   46MOL    C29 8219   0.067   1.908   3.104  0.2306  0.2868 -0.0377
   46MOL    C30 8220   7.642   1.954   3.195 -0.2893  0.4749  0.0200
   46MOL    C31 8221   7.549   2.048   3.118 -1.0421  0.5771  0.0865
   46MOL    H32 8222   0.032   1.904   3.001  1.8167 -1.2023 -0.5320
   46MOL    H33 8223   0.104   1.810   3.133  0.1387  1.1055  2.9877
   46MOL    H34 8224   7.675   2.009   3.284 -0.2805 -0.7913  0.8089
   46MOL    H35 8225   7.513   2.012   3.022  0.2650  1.0921 -0.6125
   46MOL    H36 8226   7.457   2.073   3.170 -1.1583 -1.0970  0.7220
   46MOL    H37 8227   7.597   2.144   3.097 -0.3848 -0.0493 -1.3680
   46MOL    C38 8228   7.554   1.835   3.243 -0.9198  0.0238  0.3975
   46MOL    C39 8229   7.618   1.753   3.357  0.7998  0.5795  0.1100
   46MOL    C40 8230   7.659   1.835   3.483 -0.8549  0.5162  0.0492
   46MOL    H41 8231   7.462   1.881   3.281 -1.9943 -1.8253  0.1050
   46MOL    H42 8232   7.523   1.768   3.163 -0.1722  1.3531 -1.0451
   46MOL    H43 8233   0.013   1.704   3.324  0.1117 -2.0894  1.9787
   46MOL    H44 8234   0.052   1.890   3.458 -0.7128 -0.5791 -1.9586
   46MOL    H45 8235   7.582   1.910   3.503  0.4697  1.4909  1.6415
   46MOL    H46 8236   7.670   1.770   3.569  1.8852  1.4304  0.4521
   46MOL    C47 8237   7.526   1.633   3.400 -0.0748 -0.1972 -0.3036
   46MOL    C48 8238   7.605   1.496   3.424  0.3225 -0.1152  0.3820
   46MOL    C49 8239   7.525   1.398   3.518 -0.0977  0.5314 -0.1687
   46MOL    H50 8240   7.480   1.670   3.491 -0.3055  0.0033 -0.5014
   46MOL    H51 8241   7.450   1.605   3.327  0.2037 -0.4748 -0.4916
   46MOL    H52 8242   7.695   1.519   3.482 -0.8413 -0.0275  2.1651
   46MOL    H53 8243   7.431   1.382   3.465 -0.6394 -1.0313  1.2255
   46MOL    H54 8244   7.570   1.302   3.541 -1.8772 -0.4632 -0.7618
   46MOL    H55 8245   7.512   1.439   3.618 -2.7661 -0.2361 -0.1711
   46MOL    C56 8246   7.656   1.439   3.295  0.1327 -0.3689  0.0575
   46MOL    C57 8247   0.030   1.303   3.302  0.0207 -0.0935  0.1518
   46MOL    C58 8248   0.018   1.248   3.160 -0.4425 -0.6091 -0.2936
   46MOL    H59 8249   7.562   1.413   3.245  0.7180 -2.2109 -0.1311
   46MOL    H60 8250   0.021   1.504   3.235  0.4707 -0.5110  0.2569
   46MOL    H61 8251   7.667   1.236   3.363 -0.5375  0.2725  0.0086
   46MOL    H62 8252   0.075   1.155   3.153 -0.2710 -0.4654 -0.9028
   46MOL    H63 8253   7.614   1.237   3.122 -1.2826  0.5932  1.5372
   46MOL    H64 8254   0.062   1.314   3.085 -2.3157  0.4248 -0.4877
   46MOL    C65 8255   0.172   1.304   3.358 -0.3742 -0.2723 -0.7213
   46MOL    C66 8256   0.218   1.166   3.407  0.0601 -0.6486 -0.0800
   46MOL    C67 8257   0.374   1.159   3.423  0.3705 -0.3608 -0.2721
   46MOL    H68 8258   0.248   1.357   3.300 -0.6435  1.4955  0.5295
   46MOL    H69 8259   0.181   1.375   3.440  0.7006 -0.5515 -0.5888
   46MOL    H70 8260   0.198   1.096   3.326  1.0194  1.0117 -1.7892
   46MOL    H71 8261   0.396   1.055   3.447  3.4521  0.2893 -0.0948
   46MOL    H72 8262   0.436   1.201   3.344 -0.4468 -1.0565 -1.2958
   46MOL    H73 8263   0.398   1.223   3.507  2.0223  1.9272 -2.4344
   46MOL    C74 8264   0.141   1.125   3.540  0.4837 -0.3312  0.1949
   46MOL    C75 8265   0.134   0.971   3.553 -0.6766  0.3869 -0.0635
   46MOL    C76 8266   0.138   0.916   3.698 -0.2469 -0.2531  0.4618
   46MOL    H77 8267   0.189   1.166   3.629  1.3965 -1.1064  0.0647
   46MOL    H78 8268   0.037   1.155   3.554 -0.3948 -3.1025  0.0194
   46MOL    H79 8269   0.230   0.944   3.509 -0.0873  2.5007 -0.1179
   46MOL    H80 8270   0.161   0.810   3.694  0.2006 -0.1098 -1.1138
   46MOL    H81 8271   0.210   0.952   3.771 -1.7936  1.2546  1.3035
   46MOL    H82 8272   0.041   0.930   3.748 -0.2157 -1.1551  0.7916
   46MOL    C83 8273   0.015   0.925   3.467 -0.5417  0.0285 -0.2656
   46MOL    C84 8274   0.020   0.781   3.416  0.1114 -0.0122  0.6125
   46MOL    C85 8275   0.025   0.669   3.522 -0.3087  0.8900 -1.0000
   46MOL    H86 8276   7.614   0.934   3.513 -0.5443  0.6772 -0.4001
   46MOL    H87 8277   0.010   0.983   3.375 -2.5622  0.2665 -0.0198
   46MOL    H88 8278   0.113   0.772   3.359 -1.2216 -0.9766 -1.4788
   46MOL    H89 8279   7.686   0.572   3.488 -1.6825  1.8265 -2.3312
   46MOL    H90 8280   0.127   0.643   3.550 -1.0078  0.0984  0.8709
   46MOL    H91 8281   7.672   0.698   3.614 -0.7679  0.2278 -1.0360
   46MOL    C92 8282   7.610   0.759   3.303  0.4960  0.5750 -0.7046
   46MOL    C93 8283   7.464   0.784   3.334 -0.1252  0.0651 -0.0956
   46MOL    C94 8284   7.387   0.788   3.196  0.2699 -0.0396 -0.7910
   46MOL    H95 8285   7.636   0.826   3.220 -3.7173  1.0305 -1.7699
   46MOL    H96 8286   7.620   0.659   3.262 -0.8447  0.3336 -0.4501
   46MOL    H97 8287   7.460   0.884   3.377 -0.3681  1.3119 -2.9121
   46MOL    H98 8288   7.426   0.877   3.147  3.7030  0.4036  2.5394
   46MOL    H99 8289   7.398   0.695   3.140 -1.4476 -2.4826  2.7430
   46MOL   H100 8290   7.279   0.803   3.201  0.0937 -0.7967 -2.0908
   46MOL   C101 8291   7.399   0.684   3.437 -0.0109 -0.1149  0.2255
   46MOL   C102 8292   7.256   0.723   3.490 -0.5434 -0.6772  1.4260
   46MOL   C103 8293   7.216   0.608   3.577  0.5229 -0.0917  0.7061
   46MOL   H104 8294   7.417   0.585   3.396  1.3654  0.1760  0.0969
   46MOL   H105 8295   7.465   0.681   3.524  2.2392 -2.8198 -1.5042
   46MOL   H106 8296   7.183   0.731   3.409  0.7059 -0.3862  0.3131
   46MOL   H107 8297   7.108   0.612   3.588  0.0721 -1.9575 -2.3773
   46MOL   H108 8298   7.231   0.509   3.533  0.4686  0.5696 -0.8290
   46MOL   H109 8299   7.267   0.604   3.673 -2.5249 -0.0176  2.3984
   46MOL   C110 8300   7.267   0.860   3.566  0.5091  0.5849 -0.8273
   46MOL   C111 8301   7.131   0.893   3.633 -0.7882 -0.1929 -0.5925
   46MOL   C112 8302   7.140   1.025   3.717  0.4326 -0.0257  0.3281
   46MOL   H113 8303   7.347   0.863   3.641  1.1159  1.1323 -1.4866
   46MOL   H114 8304   7.295   0.939   3.497 -1.4599  1.0634 -1.0788
   46MOL   H115 8305   7.120   0.817   3.710  0.4215 -2.1339 -2.2886
   46MOL   H116 8306   7.064   1.029   3.794 -1.2345 -0.5397 -1.2490
   46MOL   H117 8307   7.239   1.014   3.762  0.4761  0.2994  0.3106
   46MOL   H118 8308   7.115   1.115   3.660  0.2097 -1.2788 -1.6218
   46MOL   C119 8309   7.015   0.912   3.528 -0.3370 -0.5026  0.2168
   46MOL   C120 8310   6.877   0.947   3.584 -0.4930 -0.0631  0.7242
   46MOL   C121 8311   6.764   0.973   3.475 -0.3981  0.3684  0.0976
   46MOL   H122 8312   7.043   0.988   3.456  0.1926  0.3557  1.3192
   46MOL   H123 8313   7.007   0.829   3.458  1.4951 -1.6376  1.3216
   46MOL   H124 8314   6.880   1.038   3.643  1.5146  0.5657 -0.2979
   46MOL   H125 8315   6.816   1.016   3.390  0.8154  0.6937  0.9966
   46MOL   H126 8316   6.708   0.883   3.448 -1.1011  0.9045 -0.2387
   46MOL   H127 8317   6.685   1.037   3.514 -0.3688 -0.8549  2.2705
   46MOL   C128 8318   6.831   0.843   3.688  0.2880  0.9891 -0.0988
   46MOL   C129 8319   6.693   0.864   3.759  0.3024 -0.5954 -0.5428
   46MOL   C130 8320   6.632   0.730   3.799 -0.5615  0.3071 -0.4416
   46MOL   H131 8321   6.830   0.739   3.654 -3.6812  0.8389  0.2100
   46MOL   H132 8322   6.905   0.833   3.767 -1.2131  0.3687  1.2539
   46MOL   H133 8323   6.628   0.899   3.678 -0.6533 -1.1092 -0.0114
   46MOL   H134 8324   6.537   0.726   3.853  0.1574 -1.9012  0.7419
   46MOL   H135 8325   6.613   0.677   3.706  2.1197 -0.9137 -0.3497
   46MOL   H136 8326   6.698   0.669   3.861 -0.4195 -1.2599 -2.1030
   46MOL   C137 8327   6.709   0.964   3.874  0.6044 -0.1545 -0.3882
   46MOL   C138 8328   6.588   1.047   3.899  0.1019  0.1861 -0.3121
   46MOL   C139 8329   6.524   0.992   4.021  0.3943  0.3900  0.1918
   46MOL   H140 8330   6.744   0.918   3.966 -0.6936 -0.3567  0.0182
   46MOL   H141 8331   6.791   1.031   3.849 -0.9094  0.5152 -3.9716
   46MOL   H142 8332   6.524   1.034   3.812  2.8334 -4.1810 -1.8773
   46MOL   H143 8333   6.439   1.051   4.053  0.9379  1.0517  0.4264
   46MOL   H144 8334   6.485   0.892   4.002 -1.2336  0.6589  1.9538
   46MOL   H145 8335   6.585   0.986   4.111 -1.2951  0.3820  1.3556
   46MOL   C146 8336   6.609   1.204   3.920  0.0318 -0.5975  0.0214
   46MOL   C147 8337   6.656   1.287   3.799  0.2140  0.0939  0.1713
   46MOL   C148 8338   6.532   1.284   3.704  0.5499 -0.0962 -0.2547
   46MOL   H149 8339   6.522   1.255   3.960 -0.0538  1.5890 -2.8193
   46MOL   H150 8340   6.677   1.215   4.005  0.7905 -0.4922 -0.5967
   46MOL   H151 8341   6.745   1.233   3.766  0.5442  0.2499  0.8014
   46MOL   H152 8342   6.441   1.297   3.761 -1.3364 -0.5138 -3.0330
   46MOL   H153 8343   6.543   1.370   3.638 -0.6190  0.3845  0.1786
   46MOL   H154 8344   6.538   1.194   3.641  1.6808  0.2246 -0.6195
   46MOL   C155 8345   6.704   1.427   3.832  0.3995 -0.1799 -0.0909
   46MOL   C156 8346   6.790   1.487   3.723 -0.3018 -0.3364  0.7169
   46MOL   C157 8347   6.788   1.638   3.733 -0.4315 -0.3099 -0.5529
   46MOL   H158 8348   6.614   1.484   3.855  1.5555  1.1707  1.1977
   46MOL   H159 8349   6.744   1.418   3.933 -2.6306  0.9364  1.2835
   46MOL   H160 8350   6.754   1.467   3.622 -0.5953 -2.0604  1.1483
   46MOL   H161 8351   6.840   1.688   3.652 -0.0707  2.3758  1.2817
   46MOL   H162 8352   6.684   1.670   3.733 -0.2564  0.3134  1.3675
   46MOL   H163 8353   6.832   1.671   3.827 -1.2682 -0.0672 -0.2436
   46MOL   C164 8354   6.933   1.432   3.733  0.7709 -0.0743 -0.7389
   46MOL   C165 8355   7.023   1.445   3.607 -0.2704 -0.4002 -0.2323
   46MOL   C166 8356   7.168   1.439   3.649 -0.7449 -1.4006  0.6323
   46MOL   H167 8357   6.976   1.487   3.817 -1.0592  0.8090 -0.3498
   46MOL   H168 8358   6.929   1.330   3.769 -1.0644 -0.1282 -1.0816
   46MOL   H169 8359   7.004   1.540   3.557 -3.5710 -2.2357 -2.6534
   46MOL   H170 8360   7.204   1.504   3.728  2.9379 -3.5997  0.8897
   46MOL   H171 8361   7.188   1.335   3.675 -0.0334 -1.1148  1.2421
   46MOL   H172 8362   7.225   1.466   3.560 -3.0824  0.5273 -0.3429
   46MOL   C173 8363   6.995   1.340   3.496  0.4511  0.4397  0.2834
   46MOL   C174 8364   7.026   1.371   3.352 -0.4749 -0.0853  0.4552
   46MOL   C175 8365   6.951   1.274   3.255  0.3826  0.5966  0.3112
   46MOL   H176 8366   7.046   1.245   3.513 -0.7965 -0.3418 -0.2978
   46MOL   H177 8367   6.887   1.325   3.498  0.8733 -2.9517  1.4879
   46MOL   H178 8368   7.133   1.383   3.335  0.0852 -3.7069  0.8805
   46MOL   H179 8369   6.968   1.174   3.295 -1.6347  0.5969  1.2273
   46MOL   H180 8370   6.845   1.290   3.238 -0.1850 -1.4852  1.6714
   46MOL   H181 8371   6.986   1.280   3.152 -0.0817 -3.9430 -0.2231
   46MOL   H182 8372   6.985   1.468   3.328 -1.2834 -0.5063  0.1223
   47MOL     C1 8373   4.733   2.008   6.439  0.0280 -0.0023 -0.3951
   47MOL     C2 8374   4.746   1.933   6.300  0.4244 -0.2839 -0.2066
   47MOL     C3 8375   4.869   1.843   6.303  0.4909  0.0166  0.0923
   47MOL     H4 8376   4.835   2.039   6.459 -0.3692  0.0998  1.5162
   47MOL     H5 8377   4.698   1.933   6.510 -0.1480  1.1184  0.7039
   47MOL     H6 8378   4.757   2.004   6.218  2.7681 -2.4734 -1.8752
   47MOL     H7 8379   4.877   1.799   6.402 -1.3841  0.5380  0.5046
   47MOL     H8 8380   4.856   1.759   6.235 -0.4733 -1.3274  1.8878
   47MOL     H9 8381   4.960   1.901   6.289  0.1591  0.6086  0.3874
   47MOL    H10 8382   4.663   2.091   6.445  2.2484  1.8216  0.7379
   47MOL    C11 8383   4.621   1.856   6.257 -0.0152 -0.2641  0.8808
   47MOL    C12 8384   4.482   1.908   6.293 -0.1169  0.6232  0.2226
   47MOL    C13 8385   4.447   2.015   6.194 -0.9421 -0.2393  0.2663
   47MOL    H14 8386   4.625   1.827   6.152 -2.1224 -2.0391  1.2479
   47MOL    H15 8387   4.627   1.759   6.305 -3.0760 -0.4383  1.0422
   47MOL    H16 8388   4.485   1.964   6.386 -1.5235 -0.0555  0.6951
   47MOL    H17 8389   4.459   1.972   6.094  0.8125  0.0415  0.3533
   47MOL    H18 8390   4.347   2.046   6.226 -0.2028  0.8167  1.5387
   47MOL    H19 8391   4.510   2.102   6.208 -0.7639  0.3117 -3.4116
   47MOL    C20 8392   4.374   1.797   6.291 -0.0479  0.4022 -0.6477
   47MOL    C21 8393   4.362   1.706   6.414  0.1990 -0.4524  0.9522
   47MOL    C22 8394   4.333   1.786   6.545  0.1556  0.7813  0.9514
   47MOL    H23 8395   4.278   1.847   6.275  0.4241  0.9942 -1.6214
   47MOL    H24 8396   4.382   1.732   6.204  0.0786  1.2818 -1.2933
   47MOL    H25 8397   4.460   1.660   6.427  0.6119  0.1521 -0.0145
   47MOL    H26 8398   4.236   1.823   6.577 -0.2369  0.2340  0.4056
   47MOL    H27 8399   4.355   1.721   6.629  1.5978 -1.6973 -1.2603
   47MOL    H28 8400   4.408   1.865   6.557  2.0289 -0.7091 -0.5116
   47MOL    C29 8401   4.256   1.594   6.402  0.6214  0.1345 -0.4399
   47MOL    C30 8402   4.265   1.480   6.512  0.5239 -0.1480 -0.0022
   47MOL    C31 8403   4.142   1.390   6.504 -0.4794  0.0009  0.7945
   47MOL    H32 8404   4.162   1.649   6.416  0.2084 -0.3020 -1.4631
   47MOL    H33 8405   4.264   1.547   6.304  2.6866 -0.5542  0.0507
   47MOL    H34 8406   4.247   1.535   6.605  0.3418 -1.8985  1.0216
   47MOL    H35 8407   4.054   1.454   6.520 -0.5597  0.4734 -1.3441
   47MOL    H36 8408   4.138   1.343   6.406 -2.3717  0.6771  0.5214
   47MOL    H37 8409   4.138   1.313   6.581 -0.4047  1.2780  2.0957
   47MOL    C38 8410   4.394   1.398   6.507 -0.3542 -0.4596 -0.6067
   47MOL    C39 8411   4.407   1.301   6.624  0.4294  0.3059  0.2689
   47MOL    C40 8412   4.517   1.190   6.588 -1.5818  0.5556 -0.8591
   47MOL    H41 8413   4.404   1.344   6.412  0.6134 -0.4014 -0.5376
   47MOL    H42 8414   4.480   1.463   6.516 -0.0892 -0.9993  0.9772
   47MOL    H43 8415   4.314   1.245   6.622  1.6402 -1.7236  0.1460
   47MOL    H44 8416   4.616   1.234   6.573 -1.9629  1.8055  0.2539
   47MOL    H45 8417   4.523   1.119   6.671  1.3387 -0.4960 -1.8884
   47MOL    H46 8418   4.478   1.129   6.506 -0.1133 -0.9359 -0.4877
   47MOL    C47 8419   4.436   1.375   6.752  0.4137 -0.0155  0.3207
   47MOL    C48 8420   4.442   1.295   6.884 -0.1847  0.2078  0.8144
   47MOL    C49 8421   4.589   1.306   6.925 -0.1252  0.8411  0.2672
   47MOL    H50 8422   4.530   1.428   6.737 -0.0143  1.2151  1.8645
   47MOL    H51 8423   4.359   1.450   6.768  1.2531  1.1099 -0.7822
   47MOL    H52 8424   4.427   1.190   6.856 -0.3760 -0.1871  2.3655
   47MOL    H53 8425   4.619   1.407   6.955  2.1932 -0.4125  2.3597
   47MOL    H54 8426   4.596   1.255   7.021 -2.2726 -0.9184 -0.4784
   47MOL    H55 8427   4.665   1.266   6.858 -2.4651  0.6293 -2.3464
   47MOL    C56 8428   4.362   1.351   7.006  0.6383  0.1886 -0.2233
   47MOL    C57 8429   4.213   1.316   6.985 -0.2504 -0.5723  0.3626
   47MOL    C58 8430   4.174   1.167   7.004 -0.3976  0.2292  0.1286
   47MOL    H59 8431   4.383   1.312   7.105 -3.1810  1.1254  1.0335
   47MOL    H60 8432   4.378   1.457   6.989 -0.0544  0.3535  0.1460
   47MOL    H61 8433   4.193   1.333   6.879  1.0005 -0.7404  0.0916
   47MOL    H62 8434   4.165   1.138   7.108 -0.8715 -1.2445 -0.3193
   47MOL    H63 8435   4.078   1.148   6.955  0.4549 -0.1748 -1.4194
   47MOL    H64 8436   4.251   1.105   6.958 -1.0880  0.1633 -0.9717
   47MOL    C65 8437   4.119   1.407   7.056  0.8143  0.0402  0.3401
   47MOL    C66 8438   4.112   1.547   6.985 -0.2061 -0.2511 -0.9809
   47MOL    C67 8439   4.025   1.550   6.849  0.1067  0.2370 -0.4551
   47MOL    H68 8440   4.015   1.378   7.040  0.1067  3.2606 -1.3295
   47MOL    H69 8441   4.156   1.406   7.158  0.1502  0.9114  0.5992
   47MOL    H70 8442   4.214   1.565   6.953 -0.2152 -0.8970 -1.3766
   47MOL    H71 8443   3.920   1.527   6.866  0.5375  0.4645  2.7284
   47MOL    H72 8444   4.030   1.649   6.804 -0.5091  1.0393  1.2141
   47MOL    H73 8445   4.070   1.487   6.772 -0.2773  0.5322 -0.9242
   47MOL    C74 8446   4.078   1.655   7.080 -0.2169  0.9316 -0.0141
   47MOL    C75 8447   4.097   1.799   7.025 -0.2637  0.1628 -0.3742
   47MOL    C76 8448   3.965   1.857   6.987 -0.3411  0.0525 -0.0137
   47MOL    H77 8449   3.973   1.638   7.106 -0.0014  3.2820  2.6978
   47MOL    H78 8450   4.131   1.649   7.175 -1.3029  0.3892  0.5674
   47MOL    H79 8451   4.169   1.787   6.945  0.0193  0.3415 -0.1446
   47MOL    H80 8452   3.911   1.871   7.081  0.2419  2.2658  0.0182
   47MOL    H81 8453   3.986   1.954   6.941 -0.7289 -0.1319 -0.5764
   47MOL    H82 8454   3.899   1.808   6.916  0.4317  1.9551 -2.1188
   47MOL    C83 8455   4.170   1.892   7.118  0.1688 -0.0786 -0.7607
   47MOL    C84 8456   4.319   1.915   7.094  0.0694  0.3932  0.5631
   47MOL    C85 8457   4.352   2.050   7.165 -0.3767  0.0884  0.8068
   47MOL    H86 8458   4.117   1.987   7.110 -0.8049 -0.6251 -0.7654
   47MOL    H87 8459   4.154   1.856   7.219 -0.5131  0.7069 -0.5818
   47MOL    H88 8460   4.334   1.937   6.989  0.0855  1.2632  0.7420
   47MOL    H89 8461   4.343   2.029   7.271  0.9649  0.4156  1.0023
   47MOL    H90 8462   4.451   2.075   7.127  0.2642 -0.4613  2.0803
   47MOL    H91 8463   4.295   2.132   7.120  0.7303 -0.3845 -1.5282
   47MOL    C92 8464   4.408   1.797   7.133 -0.5369 -0.3940 -0.1930
   47MOL    C93 8465   4.555   1.790   7.077 -0.3582 -0.4220  0.1829
   47MOL    C94 8466   4.628   1.692   7.168 -0.3482  0.0756 -0.1971
   47MOL    H95 8467   4.417   1.790   7.241  0.7901 -2.2691 -0.4004
   47MOL    H96 8468   4.352   1.706   7.109  0.4709 -0.2916 -3.1652
   47MOL    H97 8469   4.600   1.889   7.078 -3.1553  0.9085 -1.2592
   47MOL    H98 8470   4.607   1.586   7.150  1.6150 -0.3482 -0.1621
   47MOL    H99 8471   4.736   1.690   7.151 -0.1419  1.6793  0.8134
   47MOL   H100 8472   4.629   1.713   7.275 -1.3436 -3.0294  0.4878
   47MOL   C101 8473   4.565   1.746   6.927 -0.1797  0.0606 -0.5733
   47MOL   C102 8474   4.702   1.752   6.858  0.5030 -0.0904 -0.5746
   47MOL   C103 8475   4.681   1.714   6.710  0.5091  0.5067  0.1963
   47MOL   H104 8476   4.516   1.650   6.912  0.8153 -0.3717 -1.0954
   47MOL   H105 8477   4.500   1.818   6.877  1.5887  0.9529 -1.6422
   47MOL   H106 8478   4.775   1.680   6.895  0.4755  0.7356  1.1641
   47MOL   H107 8479   4.627   1.621   6.692  0.6230  0.3740  0.5566
   47MOL   H108 8480   4.623   1.793   6.663  0.8340  0.9042  0.4561
   47MOL   H109 8481   4.774   1.714   6.652 -0.2366 -0.9552 -1.0377
   47MOL   C110 8482   4.760   1.897   6.866 -0.7131 -0.0895  0.1692
   47MOL   C111 8483   4.903   1.926   6.804  0.6225  0.0028  0.1683
   47MOL   C112 8484   4.927   2.077   6.804 -0.6191 -0.2210  0.1645
   47MOL   H113 8485   4.692   1.968   6.818  0.5260  1.3536  0.5141
   47MOL   H114 8486   4.768   1.944   6.965  0.2370 -1.3179  0.6858
   47MOL   H115 8487   4.896   1.892   6.701 -1.3119 -0.3741  0.3965
   47MOL   H116 8488   4.944   2.121   6.902 -1.4408  2.1852 -0.7472
   47MOL   H117 8489   5.011   2.111   6.743 -2.7154 -0.2743 -2.8764
   47MOL   H118 8490   4.846   2.136   6.762  1.1311 -0.4041 -3.7070
   47MOL   C119 8491   5.007   1.843   6.878  0.8609 -0.0156 -0.1598
   47MOL   C120 8492   5.145   1.839   6.815  0.4058  0.8106 -0.1133
   47MOL   C121 8493   5.237   1.791   6.924 -0.0487 -0.0661  0.3068
   47MOL   H122 8494   5.020   1.886   6.978  2.2668  1.0284 -0.7781
   47MOL   H123 8495   4.975   1.740   6.894 -0.7598  0.4835 -0.0463
   47MOL   H124 8496   5.166   1.939   6.777  0.1502 -0.1711 -2.9252
   47MOL   H125 8497   5.220   1.847   7.015 -2.9327  1.9428 -1.3950
   47MOL   H126 8498   5.227   1.683   6.934 -3.2219 -0.1300 -2.8004
   47MOL   H127 8499   5.341   1.814   6.899 -0.4686  0.6163 -0.8320
   47MOL   C128 8500   5.135   1.750   6.686  0.0968 -0.5667 -0.6531
   47MOL   C129 8501   5.269   1.749   6.605  0.3914  0.2022 -0.0395
   47MOL   C130 8502   5.258   1.634   6.505  0.1048  0.2249 -0.1387
   47MOL   H131 8503   5.108   1.647   6.712  0.3124 -0.0604  1.7385
   47MOL   H132 8504   5.064   1.793   6.616 -1.1018  0.7970  1.3451
   47MOL   H133 8505   5.341   1.724   6.682 -1.0868 -1.4487  0.8619
   47MOL   H134 8506   5.178   1.667   6.438  0.3772  2.7364  0.7273
   47MOL   H135 8507   5.351   1.627   6.449  0.1557 -2.3670  0.1964
   47MOL   H136 8508   5.233   1.537   6.549  0.3301  0.0978 -0.2891
   47MOL   C137 8509   5.302   1.882   6.539  0.2960  0.5014  1.4437
   47MOL   C138 8510   5.432   1.889   6.452  0.3372 -0.0058 -0.3545
   47MOL   C139 8511   5.432   2.032   6.385  0.2915 -0.0963  0.2967
   47MOL   H140 8512   5.212   1.912   6.484 -0.5224  1.1343  3.0888
   47MOL   H141 8513   5.311   1.957   6.617 -2.0959  2.5891 -0.1789
   47MOL   H142 8514   5.430   1.810   6.377  2.5447  0.4917 -0.9829
   47MOL   H143 8515   5.350   2.060   6.318  0.3543  0.8541  0.6202
   47MOL   H144 8516   5.435   2.099   6.471  0.2640 -1.0895  1.0738
   47MOL   H145 8517   5.528   2.048   6.334 -0.2614  1.7775 -0.2089
   47MOL   C146 8518   5.554   1.864   6.546 -0.8782 -0.2979  0.2818
   47MOL   C147 8519   5.698   1.865   6.485 -0.6847 -0.2908  0.6335
   47MOL   C148 8520   5.788   1.838   6.606 -0.1811  0.0216 -0.0047
   47MOL   H149 8521   5.546   1.937   6.626 -1.9441 -0.7443  0.5892
   47MOL   H150 8522   5.541   1.763   6.586 -1.2630 -0.5738 -0.5374
   47MOL   H151 8523   5.719   1.965   6.447 -1.8038 -0.2422  0.1135
   47MOL   H152 8524   5.781   1.900   6.696  2.0425 -0.3905  0.4807
   47MOL   H153 8525   5.800   1.735   6.639 -0.0317 -0.2513 -0.9145
   47MOL   H154 8526   5.889   1.846   6.568 -0.3974  0.3247 -0.5213
   47MOL   C155 8527   5.710   1.768   6.368  0.4259 -0.5152 -0.0644
   47MOL   C156 8528   5.847   1.744   6.308 -0.1376  0.2606  0.2856
   47MOL   C157 8529   5.844   1.624   6.208 -0.5606  0.4162 -0.5237
   47MOL   H158 8530   5.677   1.673   6.410  1.8147 -0.8838  0.2440
   47MOL   H159 8531   5.642   1.802   6.290  1.6443  2.2399  0.0178
   47MOL   H160 8532   5.917   1.716   6.387  1.3847 -2.2091 -1.8511
   47MOL   H161 8533   5.943   1.600   6.170 -0.0868  1.2068  0.1881
   47MOL   H162 8534   5.815   1.529   6.253  0.0995  0.2888 -0.3583
   47MOL   H163 8535   5.790   1.640   6.115  1.5328  1.0139 -1.6668
   47MOL   C164 8536   5.902   1.875   6.244 -0.0256  0.0345 -0.9513
   47MOL   C165 8537   6.036   1.866   6.182  0.0328 -0.1105 -0.9098
   47MOL   C166 8538   6.070   2.002   6.119 -0.1693  0.2501 -0.2029
   47MOL   H167 8539   5.825   1.928   6.188 -2.9190 -1.5186  1.4161
   47MOL   H168 8540   5.915   1.945   6.327 -0.0029 -1.4637  0.3185
   47MOL   H169 8541   6.017   1.792   6.105 -1.4055 -1.4809  0.7239
   47MOL   H170 8542   6.001   2.043   6.046  0.5370 -0.4275 -1.2560
   47MOL   H171 8543   6.069   2.081   6.195 -3.4015 -0.5521  0.6611
   47MOL   H172 8544   6.167   1.999   6.069 -1.5357 -3.0430 -2.8359
   47MOL   C173 8545   6.150   1.804   6.267 -0.2811 -0.2342  0.0105
   47MOL   C174 8546   6.261   1.741   6.174  0.6060 -0.0975  0.3669
   47MOL   C175 8547   6.377   1.694   6.260  0.1071  0.3950  0.3665
   47MOL   H176 8548   6.172   1.878   6.344  2.7619  0.4723 -1.4322
   47MOL   H177 8549   6.111   1.724   6.330 -1.8687  1.1307  0.7784
   47MOL   H178 8550   6.298   1.810   6.099 -0.7956  1.7972  1.3770
   47MOL   H179 8551   6.452   1.653   6.191  0.7703  3.0183 -0.5281
   47MOL   H180 8552   6.423   1.769   6.324  0.6837 -0.0068  0.4297
   47MOL   H181 8553   6.344   1.618   6.330 -0.3899 -0.6181 -0.9348
   47MOL   H182 8554   6.214   1.653   6.130  2.3761 -0.1362 -1.5143
   48MOL     C1 8555   5.636   0.106   6.935 -0.1618  0.1676 -1.1083
   48MOL     C2 8556   5.673   0.120   6.790  0.0624  0.2326  0.1196
   48MOL     C3 8557   5.675   0.264   6.738 -0.1036  0.1586 -0.2976
   48MOL     H4 8558   5.620   7.697   6.950 -1.9353  0.3539 -1.6132
   48MOL     H5 8559   5.547   0.166   6.954  1.0220  2.6447 -3.1163
   48MOL     H6 8560   5.591   0.072   6.737  1.8748 -3.1119  0.1521
   48MOL     H7 8561   5.576   0.310   6.749 -0.7176 -0.9406 -1.1343
   48MOL     H8 8562   5.736   0.345   6.780  0.8797 -1.1639  0.8601
   48MOL     H9 8563   5.706   0.275   6.635 -0.7303  0.9964 -0.4082
   48MOL    H10 8564   5.720   0.129   7.001 -2.7646  1.3922  1.9171
   48MOL    C11 8565   5.798   0.042   6.765 -0.8127 -0.1895  0.1483
   48MOL    C12 8566   5.838   0.020   6.619 -0.3737  0.0765  0.1217
   48MOL    C13 8567   5.988   7.665   6.611 -0.5920  0.2624  0.7183
   48MOL    H14 8568   5.874   0.107   6.809 -0.4995 -0.7007  0.3622
   48MOL    H15 8569   5.798   7.643   6.817  2.1206 -0.1018  0.3899
   48MOL    H16 8570   5.853   0.112   6.563  1.1583 -1.5360 -2.2028
   48MOL    H17 8571   5.982   7.558   6.627  2.2446  0.2378  1.8695
   48MOL    H18 8572   6.031   7.693   6.515 -0.0702 -1.5129  0.4118
   48MOL    H19 8573   6.039   0.021   6.692  0.5586 -1.7238  1.3302
   48MOL    C20 8574   5.744   7.617   6.552 -0.6563 -0.4173  0.5658
   48MOL    C21 8575   5.748   7.623   6.395 -0.2508  0.9986  0.4148
   48MOL    C22 8576   5.706   7.494   6.330  0.4415  0.2893  0.3502
   48MOL    H23 8577   5.765   7.515   6.584  1.6171 -0.4918 -1.0429
   48MOL    H24 8578   5.647   7.634   6.598 -0.3527  1.3781  0.5814
   48MOL    H25 8579   5.852   7.642   6.370  0.2937 -1.8561  0.3389
   48MOL    H26 8580   5.778   7.413   6.340  1.2436  0.4935 -3.1735
   48MOL    H27 8581   5.601   7.479   6.356  1.3045 -0.0852  3.9745
   48MOL    H28 8582   5.703   7.516   6.224  0.3934 -1.5760 -0.0459
   48MOL    C29 8583   5.678   0.052   6.353  0.1358  0.3219  0.8258
   48MOL    C30 8584   5.757   0.154   6.268  0.5712 -0.7273  0.0366
   48MOL    C31 8585   5.828   0.099   6.139 -0.2891 -0.8664 -0.0064
   48MOL    H32 8586   5.598   0.020   6.287  1.7191 -0.3218 -0.8049
   48MOL    H33 8587   5.627   0.106   6.433 -0.0724 -0.0267  0.9279
   48MOL    H34 8588   5.848   0.184   6.320  0.5311 -0.9677  0.2436
   48MOL    H35 8589   5.755   0.046   6.078  0.8427 -1.7687 -0.5810
   48MOL    H36 8590   5.875   0.173   6.076 -2.2952 -0.0134 -0.5527
   48MOL    H37 8591   5.916   0.039   6.163 -1.8807 -3.6348 -0.7839
   48MOL    C38 8592   5.682   0.281   6.226  0.2683 -0.5003  1.4494
   48MOL    C39 8593   5.650   0.388   6.334  0.4283 -0.4289  0.2414
   48MOL    C40 8594   5.784   0.444   6.388 -0.1497  0.4451 -0.5340
   48MOL    H41 8595   5.740   0.325   6.145  0.4530  0.0312  1.8638
   48MOL    H42 8596   5.585   0.243   6.194  0.3520  0.8485 -0.4796
   48MOL    H43 8597   5.596   0.338   6.414 -1.7870 -0.2617 -1.1135
   48MOL    H44 8598   5.848   0.485   6.310  0.2173 -0.2938 -0.6249
   48MOL    H45 8599   5.754   0.500   6.477 -1.3231 -3.1074  1.3808
   48MOL    H46 8600   5.836   0.360   6.432 -1.5736 -0.2109 -0.0753
   48MOL    C47 8601   5.558   0.499   6.283  0.7100  0.6078 -0.1043
   48MOL    C48 8602   5.525   0.615   6.374 -0.1530 -0.3571  1.0962
   48MOL    C49 8603   5.464   0.725   6.298  0.2013 -0.2047 -0.6875
   48MOL    H50 8604   5.603   0.537   6.191  2.4335 -0.1535  0.4004
   48MOL    H51 8605   5.468   0.444   6.257  0.1430  1.2710  0.4560
   48MOL    H52 8606   5.621   0.648   6.414 -0.4585  1.6699  0.2281
   48MOL    H53 8607   5.551   0.776   6.258  0.1673  1.0327  0.7362
   48MOL    H54 8608   5.389   0.703   6.222  1.1237 -0.3161 -1.5773
   48MOL    H55 8609   5.414   0.796   6.364 -0.3472 -0.0869 -1.2246
   48MOL    C56 8610   5.443   0.572   6.489 -0.2234 -0.0722  0.4428
   48MOL    C57 8611   5.454   0.668   6.607 -0.1494  0.0628  0.0096
   48MOL    C58 8612   5.318   0.736   6.632 -0.2535  0.0363  0.2156
   48MOL    H59 8613   5.338   0.552   6.469 -0.0249 -0.0466 -0.6518
   48MOL    H60 8614   5.496   0.480   6.515  3.4383  1.7638 -0.1474
   48MOL    H61 8615   5.538   0.736   6.596  1.3387 -1.4217  1.7492
   48MOL    H62 8616   5.276   0.797   6.552  0.8497  2.0738  1.1615
   48MOL    H63 8617   5.246   0.659   6.660 -1.3891  0.6664 -0.9196
   48MOL    H64 8618   5.319   0.802   6.718 -0.7148 -0.9681  1.0065
   48MOL    C65 8619   5.501   0.589   6.732  0.8320 -1.1179 -0.2643
   48MOL    C66 8620   5.533   0.663   6.866 -0.4033 -0.1641  0.3336
   48MOL    C67 8621   5.535   0.557   6.981 -0.7041  0.8310  0.1705
   48MOL    H68 8622   5.420   0.519   6.752  0.5353 -0.3369  1.2440
   48MOL    H69 8623   5.596   0.539   6.716  0.7001 -0.7764 -2.3999
   48MOL    H70 8624   5.457   0.736   6.896 -0.1712  0.2730 -0.1423
   48MOL    H71 8625   5.434   0.522   7.004 -0.8556  1.7932  1.0511
   48MOL    H72 8626   5.594   0.471   6.951 -1.1392  1.0957 -1.4642
   48MOL    H73 8627   5.583   0.587   7.074  0.3384 -1.0177  0.2367
   48MOL    C74 8628   5.675   0.733   6.858  0.6392 -0.4137 -0.0749
   48MOL    C75 8629   5.704   0.809   6.985 -1.3227 -0.5042 -0.4198
   48MOL    C76 8630   5.850   0.860   6.982  0.1747 -0.0968 -0.3317
   48MOL    H77 8631   5.752   0.662   6.829  1.8259  0.1317  1.6468
   48MOL    H78 8632   5.677   0.806   6.777  0.1524  0.0510  0.3261
   48MOL    H79 8633   5.719   0.744   7.071  0.5219 -0.8053 -0.9376
   48MOL    H80 8634   5.926   0.795   6.938  1.0982  0.2481  0.7211
   48MOL    H81 8635   5.840   0.939   6.907 -3.9080  1.3724  1.6464
   48MOL    H82 8636   5.880   0.912   7.073  1.2577  0.5944 -1.0643
   48MOL    C83 8637   5.600   0.922   7.038  0.1866  0.2697  0.1439
   48MOL    C84 8638   5.626   0.978   7.174  0.3248 -0.1907 -0.0656
   48MOL    C85 8639   5.524   1.096   7.193  0.3167 -0.3003  0.1760
   48MOL    H86 8640   5.603   0.997   6.959  2.2166 -1.4833 -1.5014
   48MOL    H87 8641   5.500   0.880   7.041 -0.3772  1.5433 -0.7323
   48MOL    H88 8642   5.726   1.021   7.173  0.2640 -0.0183  0.7133
   48MOL    H89 8643   5.534   1.173   7.116  0.6778 -0.7872 -0.2683
   48MOL    H90 8644   5.419   1.067   7.186 -0.1022  1.3143 -0.5390
   48MOL    H91 8645   5.542   1.141   7.291  0.4852 -0.2632  0.1280
   48MOL    C92 8646   5.618   0.876   7.288 -0.3579 -0.1696  0.4117
   48MOL    C93 8647   5.726   0.888   7.401 -0.0357 -0.3206  0.1261
   48MOL    C94 8648   5.720   1.017   7.488  0.5203  0.7466  0.5696
   48MOL    H95 8649   5.520   0.882   7.335 -0.7652 -3.4440  0.1036
   48MOL    H96 8650   5.613   0.774   7.250 -0.3824  0.6328 -1.8273
   48MOL    H97 8651   5.827   0.874   7.362 -1.0003 -2.7480 -1.6720
   48MOL    H98 8652   5.616   1.046   7.499 -0.1786 -0.4633 -2.3043
   48MOL    H99 8653   5.772   1.001   7.582  1.4150 -1.8707 -0.3212
   48MOL   H100 8654   5.771   1.102   7.442  0.8319 -0.1163 -0.6933
   48MOL   C101 8655   5.706   0.766   7.496 -0.5817  0.3977 -0.3076
   48MOL   C102 8656   5.788   0.641   7.461  1.4095  0.8904  0.3336
   48MOL   C103 8657   5.935   0.657   7.503 -0.2457 -0.1020 -0.0757
   48MOL   H104 8658   5.717   0.795   7.601  0.7257  0.4804 -0.4701
   48MOL   H105 8659   5.599   0.742   7.493 -0.5709  0.0725  1.4362
   48MOL   H106 8660   5.785   0.627   7.353 -0.4550 -0.9236  0.6009
   48MOL   H107 8661   5.951   0.684   7.607 -2.6976  2.3044 -0.2591
   48MOL   H108 8662   5.982   0.561   7.482 -0.1680 -0.0435 -0.1666
   48MOL   H109 8663   5.988   0.734   7.447 -0.0830 -0.3959 -0.3225
   48MOL   C110 8664   5.725   0.512   7.521 -0.0552  0.4330 -0.0245
   48MOL   C111 8665   5.592   0.468   7.464  0.2950 -0.2477 -0.3941
   48MOL   C112 8666   5.614   0.394   7.328 -0.1457 -0.1799 -0.6912
   48MOL   H113 8667   5.795   0.428   7.514  1.5439  1.8385 -1.0445
   48MOL   H114 8668   5.716   0.535   7.627  1.1098 -0.8834  0.3841
   48MOL   H115 8669   5.533   0.560   7.457  0.2409 -0.2035  0.6395
   48MOL   H116 8670   5.647   0.457   7.245 -1.1370 -0.0952 -1.0312
   48MOL   H117 8671   5.690   0.317   7.338 -0.2502  0.0072  1.8306
   48MOL   H118 8672   5.524   0.351   7.284 -1.7202  0.6511  1.6137
   48MOL   C119 8673   5.518   0.372   7.562  0.1222  0.0977  0.3267
   48MOL   C120 8674   5.373   0.387   7.534 -0.0122  0.3030 -0.2658
   48MOL   C121 8675   5.289   0.267   7.595  0.2298 -0.0686 -0.7559
   48MOL   H122 8676   5.542   0.269   7.538  1.7305  0.8543 -1.3866
   48MOL   H123 8677   5.543   0.377   7.668  1.4043  2.6594 -0.0503
   48MOL   H124 8678   5.358   0.383   7.426  0.8000  2.6818 -0.4924
   48MOL   H125 8679   5.183   0.279   7.573  0.5299  1.3547 -1.5190
   48MOL   H126 8680   5.317   0.178   7.539  0.0387  0.2387 -1.3348
   48MOL   H127 8681   5.307   0.251   0.004  3.0582 -3.2195 -1.6333
   48MOL   C128 8682   5.318   0.524   7.584  0.1082 -0.1907  0.2348
   48MOL   C129 8683   5.218   0.601   7.496  0.8324 -0.0761  0.2190
   48MOL   C130 8684   5.292   0.658   7.384 -0.6325  0.1607  0.0086
   48MOL   H131 8685   5.263   0.493   7.673  0.9041 -0.9659  0.4642
   48MOL   H132 8686   5.401   0.585   7.620 -0.0501 -0.1906  0.6022
   48MOL   H133 8687   5.187   0.683   7.561  0.4602 -0.6684  0.7994
   48MOL   H134 8688   5.338   0.592   7.310  0.1144  0.3334  0.3103
   48MOL   H135 8689   5.228   0.719   7.321  0.7003  1.5583 -0.0370
   48MOL   H136 8690   5.365   0.734   7.414  1.5516 -0.6220 -3.0017
   48MOL   C137 8691   5.091   0.519   7.466 -1.1148 -0.7715  0.3352
   48MOL   C138 8692   4.975   0.590   7.397 -0.3365 -0.8382 -0.5679
   48MOL   C139 8693   4.874   0.492   7.338  0.7532 -0.3751  0.3624
   48MOL   H140 8694   5.119   0.438   7.398  2.1663  0.2678  0.3457
   48MOL   H141 8695   5.045   0.475   7.554 -2.0728  0.0112  0.2273
   48MOL   H142 8696   5.009   0.645   7.309 -0.1328  0.5618  0.3827
   48MOL   H143 8697   4.898   0.441   7.245  0.5802 -0.3808  0.3213
   48MOL   H144 8698   4.849   0.418   7.414 -0.3920 -1.5405 -1.1175
   48MOL   H145 8699   4.788   0.550   7.304  0.8695 -0.4482 -0.0626
   48MOL   C146 8700   4.909   0.684   7.501  0.2523 -0.2866  0.0816
   48MOL   C147 8701   4.859   0.822   7.450  0.2896  0.0041  0.1911
   48MOL   C148 8702   4.706   0.830   7.451 -0.1468 -0.0304  0.4031
   48MOL   H149 8703   4.830   0.631   7.553  0.1460 -1.0978 -0.8973
   48MOL   H150 8704   4.979   0.705   7.582 -0.7713  3.1079  0.1810
   48MOL   H151 8705   4.900   0.840   7.351 -1.2372  1.1937 -0.2340
   48MOL   H152 8706   4.655   0.799   7.542 -0.0048 -2.8013 -0.4151
   48MOL   H153 8707   4.668   0.924   7.411  0.9302  0.1537 -0.2154
   48MOL   H154 8708   4.676   0.766   7.368 -0.0474  1.8209 -1.0746
   48MOL   C155 8709   4.912   0.941   7.533 -0.1240 -0.6657 -0.1510
   48MOL   C156 8710   5.058   0.986   7.527 -0.9519  0.2629  0.3531
   48MOL   C157 8711   5.098   1.013   7.380  0.1546 -0.0439 -0.5377
   48MOL   H158 8712   4.845   1.025   7.513  0.8593  0.5288  1.5204
   48MOL   H159 8713   4.886   0.913   7.635 -0.9075  2.7321  0.6557
   48MOL   H160 8714   5.120   0.905   7.565  1.5821  1.3298 -1.3407
   48MOL   H161 8715   5.118   0.919   7.328 -1.2894  0.7703 -2.6180
   48MOL   H162 8716   5.022   1.078   7.337  0.4066 -0.0995 -1.0698
   48MOL   H163 8717   5.194   1.064   7.374  1.0005 -1.6600 -1.0666
   48MOL   C164 8718   5.090   1.119   7.606  0.1232 -0.0495  0.6454
   48MOL   C165 8719   5.238   1.135   7.647  0.1787 -0.1164  0.3298
   48MOL   C166 8720   5.270   1.277   7.682 -0.5639 -0.5279 -0.0170
   48MOL   H167 8721   5.063   1.208   7.549  3.0044  1.0440  0.9144
   48MOL   H168 8722   5.028   1.131   7.695 -0.2544 -0.0644  0.3877
   48MOL   H169 8723   5.311   1.107   7.571 -0.0678 -1.1757  0.4712
   48MOL   H170 8724   5.264   1.341   7.594 -2.0878  2.7251  2.3408
   48MOL   H171 8725   5.209   1.337   0.053  0.4721  0.5127  0.0191
   48MOL   H172 8726   5.368   1.284   0.032  0.3025 -0.7763 -1.7429
   48MOL   C173 8727   5.262   1.048   0.074 -0.1268 -0.4058 -0.2785
   48MOL   C174 8728   5.405   1.009   0.096  0.2209 -0.1138 -0.4561
   48MOL   C175 8729   5.440   0.863   0.048 -0.0851 -0.2134 -0.2497
   48MOL   H176 8730   5.220   1.116   0.148 -1.3998 -0.9117 -0.5251
   48MOL   H177 8731   5.187   0.969   0.077 -1.2666  0.6978  2.8319
   48MOL   H178 8732   5.421   1.019   0.203 -1.3766  1.9607 -0.3824
   48MOL   H179 8733   5.433   0.847   7.638  3.6577  0.3561 -0.6219
   48MOL   H180 8734   5.536   0.830   0.086 -0.3137 -1.6987 -0.9522
   48MOL   H181 8735   5.361   0.805   0.096 -0.1014 -0.0826 -0.1163
   48MOL   H182 8736   5.468   1.083   0.047 -1.1614  1.5867  0.3072
   49MOL     C1 8737   6.151   5.427   5.050  0.5246  1.0045 -0.1535
   49MOL     C2 8738   6.304   5.423   5.027  0.4178  0.2253  0.4597
   49MOL     C3 8739   6.348   5.552   4.954  0.1867 -0.0640 -0.0791
   49MOL     H4 8740   6.107   5.327   5.056  1.6941  0.3768 -1.5775
   49MOL     H5 8741   6.098   5.475   4.967  1.7825  1.9845 -0.4025
   49MOL     H6 8742   6.322   5.334   4.966 -0.9439 -0.2706  0.7479
   49MOL     H7 8743   6.357   5.637   5.022  0.0187  0.9076 -1.2675
   49MOL     H8 8744   6.441   5.543   4.898  0.1544  0.2499 -0.1855
   49MOL     H9 8745   6.267   5.588   4.891  1.0690  1.6910 -0.2464
   49MOL    H10 8746   6.138   5.476   5.146 -0.7574 -2.7695  1.7316
   49MOL    C11 8747   6.387   5.395   5.153 -0.2577  0.1626 -0.6892
   49MOL    C12 8748   6.361   5.272   5.240 -0.3802  0.5081  0.4766
   49MOL    C13 8749   6.380   5.143   5.154 -0.0810 -0.0451  0.3479
   49MOL    H14 8750   6.488   5.385   5.113  0.0223  2.3949 -0.5819
   49MOL    H15 8751   6.389   5.480   5.220 -1.0051 -1.3077  1.2609
   49MOL    H16 8752   6.254   5.278   5.257 -0.8226  4.1835 -2.8120
   49MOL    H17 8753   6.383   5.053   5.215  1.2697 -1.0487 -1.1586
   49MOL    H18 8754   6.291   5.135   5.091 -0.6396 -0.7228  1.2118
   49MOL    H19 8755   6.469   5.147   5.091  0.6441  0.0425  1.3710
   49MOL    C20 8756   6.446   5.277   5.366 -0.6072 -0.5048  0.8330
   49MOL    C21 8757   6.397   5.377   5.472  0.5321  0.0605 -0.3336
   49MOL    C22 8758   6.257   5.335   5.518 -0.1727  0.1123 -0.5299
   49MOL    H23 8759   6.458   5.178   5.411 -1.3762 -1.0001 -0.0462
   49MOL    H24 8760   6.548   5.302   5.337 -1.0660  0.6549  0.1897
   49MOL    H25 8761   6.390   5.475   5.423 -0.3824 -1.4508 -3.3768
   49MOL    H26 8762   6.233   5.403   5.599 -0.1248  2.2619 -2.2747
   49MOL    H27 8763   6.174   5.358   5.450 -1.6042 -0.0787  1.1311
   49MOL    H28 8764   6.246   5.232   5.552 -0.9352  1.0305  2.0857
   49MOL    C29 8765   6.490   5.374   5.595  0.1077  0.3835 -0.0585
   49MOL    C30 8766   6.627   5.436   5.587 -0.8316  0.0953 -0.5233
   49MOL    C31 8767   6.608   5.583   5.556  0.2174 -0.6774 -0.2076
   49MOL    H32 8768   6.435   5.432   5.669  2.5315  0.8737  1.4107
   49MOL    H33 8769   6.490   5.272   5.634 -0.1665  0.3347 -0.1814
   49MOL    H34 8770   6.680   5.382   5.508  0.3613  0.4364  0.0322
   49MOL    H35 8771   6.554   5.615   5.645  0.5263  0.3607 -0.3896
   49MOL    H36 8772   6.699   5.642   5.565 -0.2679 -0.0301  0.6147
   49MOL    H37 8773   6.574   5.612   5.457  1.9269  0.0163 -0.6202
   49MOL    C38 8774   6.718   5.389   5.706 -0.3956 -0.0114 -0.1195
   49MOL    C39 8775   6.740   5.485   5.825  0.4387  0.6659  0.4598
   49MOL    C40 8776   6.619   5.479   5.921  0.0695 -0.8068 -0.1733
   49MOL    H41 8777   6.696   5.290   5.746  2.1087 -0.8807 -0.7610
   49MOL    H42 8778   6.817   5.380   5.660  0.1528 -0.4884  1.1174
   49MOL    H43 8779   6.744   5.591   5.802 -0.1174  0.4021 -0.9243
   49MOL    H44 8780   6.653   5.543   6.003  0.8440 -0.7427 -0.5361
   49MOL    H45 8781   6.528   5.513   5.873 -0.5400  1.7845  2.6418
   49MOL    H46 8782   6.603   5.375   5.952  2.0751 -1.7665 -2.1988
   49MOL    C47 8783   6.874   5.458   5.902  0.4465  0.1434 -0.0867
   49MOL    C48 8784   7.009   5.504   5.839 -0.0266  0.7053 -0.6503
   49MOL    C49 8785   7.036   5.645   5.854 -0.0364  0.0341 -0.3547
   49MOL    H50 8786   6.882   5.512   5.996 -0.2386  0.3397 -0.1413
   49MOL    H51 8787   6.876   5.351   5.924  1.8196  0.1337 -0.1801
   49MOL    H52 8788   6.996   5.489   5.732  0.4064  0.2468 -0.6360
   49MOL    H53 8789   7.081   5.660   5.952 -0.1313 -1.4529 -0.0759
   49MOL    H54 8790   7.110   5.677   5.782  0.0117 -0.3896 -0.4949
   49MOL    H55 8791   6.944   5.703   5.839  1.1793  2.0698 -0.0915
   49MOL    C56 8792   7.128   5.417   5.888 -0.7404  0.2837 -0.8164
   49MOL    C57 8793   7.265   5.452   5.822  0.4640 -0.2796 -0.1731
   49MOL    C58 8794   7.356   5.520   5.925 -0.4623  0.2303  0.1076
   49MOL    H59 8795   7.146   5.417   5.996  0.2170  2.6338 -0.9475
   49MOL    H60 8796   7.094   5.316   5.866 -0.8381 -0.4365  2.3671
   49MOL    H61 8797   7.248   5.515   5.734  0.0573  1.1971  0.9365
   49MOL    H62 8798   7.395   5.448   5.998  0.6297  1.4488  0.7471
   49MOL    H63 8799   7.440   5.552   5.864 -1.0422 -2.0338 -1.9587
   49MOL    H64 8800   7.304   5.604   5.970 -0.2123  0.2663  0.3304
   49MOL    C65 8801   7.322   5.318   5.770 -0.0236  0.3437  0.6183
   49MOL    C66 8802   7.465   5.319   5.714 -0.2603 -0.6309 -0.3666
   49MOL    C67 8803   7.499   5.172   5.671  0.5040 -0.2338 -0.2035
   49MOL    H68 8804   7.328   5.237   5.843  2.8677  1.1452  1.3205
   49MOL    H69 8805   7.254   5.272   5.698 -1.2584 -1.3381  2.7593
   49MOL    H70 8806   7.535   5.354   5.789  0.0290 -2.9055  0.4563
   49MOL    H71 8807   7.430   5.136   5.594 -0.0722  1.6980 -0.6145
   49MOL    H72 8808   7.603   5.163   5.638  0.6838  0.5780  0.1248
   49MOL    H73 8809   7.485   5.109   5.758  0.4078  0.9110  0.6200
   49MOL    C74 8810   7.480   5.414   5.592 -0.5346 -1.0580 -0.8513
   49MOL    C75 8811   7.624   5.418   5.540  0.0266 -0.2625 -0.0466
   49MOL    C76 8812   7.644   5.332   5.414  0.4145  0.0562  0.3196
   49MOL    H77 8813   7.415   5.386   5.509  0.4035  0.3300 -2.0599
   49MOL    H78 8814   7.437   5.508   5.625 -0.4609 -1.4006  0.2448
   49MOL    H79 8815   7.694   5.396   5.620  0.0455 -0.2950 -0.0729
   49MOL    H80 8816   7.632   5.225   5.433  1.3379 -0.3485 -1.2907
   49MOL    H81 8817   7.580   5.359   5.330  1.0281 -1.3302 -0.6209
   49MOL    H82 8818   0.050   5.341   5.380  0.1521 -1.6540 -0.9995
   49MOL    C83 8819   7.681   5.562   5.501  0.0876  0.1087  0.1555
   49MOL    C84 8820   7.641   5.669   5.598 -0.2782 -0.4369 -0.4434
   49MOL    C85 8821   0.003   5.646   5.737  0.1919  0.0848  0.2770
   49MOL    H86 8822   0.091   5.550   5.492 -0.1279 -2.5603  0.4712
   49MOL    H87 8823   7.636   5.593   5.406 -0.1410  0.0682  0.2497
   49MOL    H88 8824   7.536   5.674   5.625  0.2427 -3.1722  2.4206
   49MOL    H89 8825   0.006   5.734   5.801 -0.2866 -0.1857  0.6748
   49MOL    H90 8826   7.650   5.568   5.794 -1.0593 -0.1751 -1.1295
   49MOL    H91 8827   0.104   5.606   5.733 -0.5751 -1.9503  0.9784
   49MOL    C92 8828   7.691   5.809   5.555 -0.6320  0.5021  0.4848
   49MOL    C93 8829   7.657   5.929   5.637 -0.3254  0.3017 -0.4009
   49MOL    C94 8830   0.035   6.040   5.577 -0.0507 -0.7164 -0.1578
   49MOL    H95 8831   0.102   5.797   5.562 -0.7461  0.1117  1.6649
   49MOL    H96 8832   7.676   5.830   5.449  0.7943  0.5759  0.2885
   49MOL    H97 8833   7.694   5.914   5.739  0.0430  2.0298 -0.2644
   49MOL    H98 8834   0.143   6.026   5.586 -0.0220  0.3207  1.1692
   49MOL    H99 8835   0.008   6.051   5.472 -5.9157 -0.6042  1.1587
   49MOL   H100 8836   0.015   6.140   5.615 -3.0390 -1.2111 -0.2928
   49MOL   C101 8837   7.502   5.951   5.640  0.0649 -0.2036 -0.2232
   49MOL   C102 8838   7.461   6.081   5.723 -0.2216 -0.3520  0.3888
   49MOL   C103 8839   7.319   6.123   5.706 -0.9288  0.3771  0.6311
   49MOL   H104 8840   7.475   5.966   5.536 -0.4149 -0.8793 -0.1949
   49MOL   H105 8841   7.438   5.870   5.675 -2.6847  1.6303 -0.8097
   49MOL   H106 8842   7.512   6.162   5.673  1.0266 -1.4566 -0.1463
   49MOL   H107 8843   7.253   6.044   5.739  1.2058 -0.5310  2.8720
   49MOL   H108 8844   7.289   6.209   5.765  1.3001  1.9956 -0.5085
   49MOL   H109 8845   7.291   6.131   5.600  1.1258 -1.3033 -0.0718
   49MOL   C110 8846   7.495   6.059   5.872 -0.2571  0.3172 -0.5154
   49MOL   C111 8847   7.472   6.181   5.964  0.0809 -0.3784  0.2788
   49MOL   C112 8848   7.506   6.150   6.112  0.1018 -0.1727 -0.7650
   49MOL   H113 8849   7.423   5.985   5.907 -0.5902  1.0763  0.4449
   49MOL   H114 8850   7.600   6.033   5.886 -0.2770 -0.2901 -1.4565
   49MOL   H115 8851   7.367   6.206   5.969  0.1196 -0.2046  0.2149
   49MOL   H116 8852   7.611   6.144   6.139 -0.8664 -3.9260  2.5971
   49MOL   H117 8853   7.476   6.230   6.180  2.1826  0.1189 -0.1521
   49MOL   H118 8854   7.453   6.061   6.146  0.8997 -0.9335 -1.4881
   49MOL   C119 8855   7.560   6.299   5.910 -0.3753  0.0713  0.4244
   49MOL   C120 8856   7.576   6.429   5.994 -0.5795 -0.6086 -0.3043
   49MOL   C121 8857   7.696   6.512   5.944  0.2294 -0.2526 -0.6032
   49MOL   H122 8858   7.656   6.253   5.886 -0.7025 -0.2774 -0.2240
   49MOL   H123 8859   7.521   6.333   5.814 -0.0051 -0.2544  0.1576
   49MOL   H124 8860   7.600   6.400   6.097  2.8510 -0.9980 -1.1394
   49MOL   H125 8861   0.082   6.444   5.924 -0.9371 -1.2745 -2.1114
   49MOL   H126 8862   7.674   6.565   5.851 -1.7079 -1.7491 -1.0369
   49MOL   H127 8863   0.023   6.580   6.025  0.6199 -1.3975  0.2619
   49MOL   C128 8864   7.445   6.511   6.013 -0.1946  0.2812  0.1261
   49MOL   C129 8865   7.454   6.638   6.098 -0.2104  0.1940 -0.4932
   49MOL   C130 8866   7.315   6.705   6.103  0.3522 -0.3559  0.7256
   49MOL   H131 8867   7.405   6.547   5.918  1.2689  0.5048 -0.4110
   49MOL   H132 8868   7.361   6.459   6.059 -1.7319  0.2195 -2.5950
   49MOL   H133 8869   7.523   6.711   6.057 -0.3503 -0.1171 -1.2822
   49MOL   H134 8870   7.306   6.796   6.161  0.6425 -0.8151  1.4971
   49MOL   H135 8871   7.278   6.722   6.001 -0.7883  0.8871  1.3275
   49MOL   H136 8872   7.240   6.629   6.124 -0.5494 -0.1905 -1.6698
   49MOL   C137 8873   7.498   6.622   6.252 -0.2874  0.3490 -0.3907
   49MOL   C138 8874   7.539   6.757   6.328  0.8806  0.6512 -0.3075
   49MOL   C139 8875   7.577   6.742   6.475  0.0318 -0.6580  0.4667
   49MOL   H140 8876   7.422   6.563   6.303 -3.1627  3.2942 -1.0373
   49MOL   H141 8877   7.587   6.562   6.270 -1.4651 -1.6959 -1.2234
   49MOL   H142 8878   7.452   6.822   6.318  0.6114  0.3693  0.1959
   49MOL   H143 8879   7.545   6.644   6.511  0.5725 -0.4370  1.5855
   49MOL   H144 8880   7.683   6.749   6.502 -0.2232  1.1888  1.0181
   49MOL   H145 8881   7.519   6.812   6.533  0.0792 -0.8359  0.7281
   49MOL   C146 8882   7.656   6.826   6.253 -0.1749  0.4572  0.1915
   49MOL   C147 8883   7.617   6.961   6.176  0.4595  0.2261 -0.6824
   49MOL   C148 8884   7.594   7.073   6.283  0.2888  0.1924 -1.2867
   49MOL   H149 8885   0.030   6.861   6.327  0.3045 -1.5211  0.7127
   49MOL   H150 8886   0.013   6.756   6.190 -0.1433  0.2870  0.4045
   49MOL   H151 8887   7.516   6.948   6.137  0.2716 -0.8521  0.1265
   49MOL   H152 8888   7.496   7.077   6.331  1.0394  0.3718  0.2617
   49MOL   H153 8889   7.668   7.087   6.361 -1.5876 -1.1911  0.7991
   49MOL   H154 8890   7.598   7.159   6.216 -2.4814 -0.1892 -1.9995
   49MOL   C155 8891   0.018   7.000   6.059  0.4112  0.0980 -0.9066
   49MOL   C156 8892   7.691   6.921   5.926  0.2378 -0.2380 -0.4393
   49MOL   C157 8893   7.549   6.956   5.872  0.0543 -0.5398  0.0773
   49MOL   H158 8894   0.015   7.106   6.035 -0.8263  0.3191  0.2014
   49MOL   H159 8895   0.125   7.003   6.082  0.3761  2.9294 -0.9749
   49MOL   H160 8896   7.690   6.816   5.953 -0.3040 -0.0972  0.1155
   49MOL   H161 8897   7.468   6.910   5.930 -1.2041  1.5678  0.0479
   49MOL   H162 8898   7.536   7.064   5.878  0.2065 -0.6168  2.1338
   49MOL   H163 8899   7.524   6.919   5.772  0.9965  0.8579 -0.6857
   49MOL   C164 8900   0.096   6.954   5.808  0.5600 -0.4617 -0.1377
   49MOL   C165 8901   0.240   6.910   5.839  0.9166  0.1814  1.0763
   49MOL   C166 8902   0.264   6.763   5.887  1.0459  0.5740 -0.1901
   49MOL   H167 8903   0.051   6.906   5.721 -0.4742  1.1742 -0.5357
   49MOL   H168 8904   0.092   7.062   5.790 -0.9334 -0.5854 -0.5869
   49MOL   H169 8905   0.271   6.981   5.916 -0.1924  1.9235 -0.0416
   49MOL   H170 8906   0.365   6.764   5.929  1.3639 -0.2123 -0.9151
   49MOL   H171 8907   0.207   6.735   5.975  4.0924 -0.1167  1.6664
   49MOL   H172 8908   0.250   6.686   5.811  1.1452  1.3981 -1.0502
   49MOL   C173 8909   0.323   6.949   5.716  0.2923 -0.3198 -0.0764
   49MOL   C174 8910   0.466   6.978   5.754  0.0780  1.0008  0.1992
   49MOL   C175 8911   0.542   7.033   5.631  0.0566 -0.0889 -0.0897
   49MOL   H176 8912   0.327   6.868   5.643 -1.1597 -0.2546 -0.2564
   49MOL   H177 8913   0.276   7.034   5.666  2.8670  1.1493 -0.0387
   49MOL   H178 8914   0.501   6.880   5.787 -2.7303  0.5163  1.8884
   49MOL   H179 8915   0.497   7.115   5.577 -0.7089 -1.5350 -1.6938
   49MOL   H180 8916   0.635   7.072   5.672 -0.8391  0.9625  0.9688
   49MOL   H181 8917   0.553   6.947   5.565 -1.9897 -0.4760  0.0304
   49MOL   H182 8918   0.477   7.047   5.837  0.9391  0.0188  0.8994
   50MOL     C1 8919   5.960   4.549   0.014  0.3615 -0.3827 -0.0635
   50MOL     C2 8920   5.994   4.562   0.162  0.3245  0.1421  0.0591
   50MOL     C3 8921   6.032   4.428   0.214 -0.1719  0.4738  0.2949
   50MOL     H4 8922   5.906   4.638   7.678  1.3265  0.5796  0.8974
   50MOL     H5 8923   5.898   4.463   7.686 -1.0585  0.3184  0.9401
   50MOL     H6 8924   5.907   4.599   0.215  0.8578  0.0159  1.0457
   50MOL     H7 8925   6.046   4.428   0.322 -2.2044  1.6152  0.5952
   50MOL     H8 8926   5.945   4.366   0.195  1.6396 -1.7532 -0.9674
   50MOL     H9 8927   6.116   4.388   0.157 -1.5185 -2.0632  0.0489
   50MOL    H10 8928   6.048   4.539   7.648  2.8029  0.8211  3.0463
   50MOL    C11 8929   6.106   4.667   0.180  0.8839 -0.1933  0.4668
   50MOL    C12 8930   6.076   4.807   0.137  0.2337 -0.2183 -0.5294
   50MOL    C13 8931   5.977   4.867   0.238 -0.2013 -0.0188  0.5837
   50MOL    H14 8932   6.140   4.669   0.284  1.4627 -1.0669  0.2893
   50MOL    H15 8933   6.198   4.632   0.135  0.4551  0.0956 -0.6412
   50MOL    H16 8934   6.022   4.803   0.043 -0.9226  0.5773  0.0912
   50MOL    H17 8935   6.025   4.872   0.336  0.8125 -1.6446  0.1897
   50MOL    H18 8936   5.951   4.972   0.228 -1.8045 -0.3377  1.3652
   50MOL    H19 8937   5.888   4.805   0.235 -0.6414  0.4804  2.8361
   50MOL    C20 8938   6.213   4.884   0.124 -0.6319  0.2212 -0.3812
   50MOL    C21 8939   6.223   4.992   0.024 -0.2877  0.0597  0.0542
   50MOL    C22 8940   6.226   4.939   7.576 -0.2561 -0.8275 -0.0347
   50MOL    H23 8941   6.257   4.915   0.219  1.1974 -2.6020 -0.2525
   50MOL    H24 8942   6.289   4.820   0.080  2.1519  2.4827  0.9538
   50MOL    H25 8943   6.324   5.030   0.035 -0.6095  0.7664  0.6100
   50MOL    H26 8944   6.137   4.876   7.568 -2.1824  1.5752  1.8621
   50MOL    H27 8945   6.236   5.014   7.498 -1.9758 -0.1192  0.4113
   50MOL    H28 8946   6.312   4.873   7.563  0.5914  0.2891 -0.0848
   50MOL    C29 8947   6.126   5.114   0.048  0.6952  0.1703 -0.6396
   50MOL    C30 8948   6.130   5.189   0.184 -0.2844 -0.2369 -0.3586
   50MOL    C31 8949   6.249   5.278   0.191  0.3272 -0.2480  0.0767
   50MOL    H32 8950   6.135   5.192   7.669 -0.3659 -0.0749 -1.0237
   50MOL    H33 8951   6.027   5.076   0.025  0.1845  1.3104 -0.3448
   50MOL    H34 8952   6.151   5.107   0.252 -0.4491  0.0013 -0.0163
   50MOL    H35 8953   6.233   5.358   0.119 -1.2913  1.0872  1.8873
   50MOL    H36 8954   6.256   5.327   0.287 -1.1386 -2.3662  1.3134
   50MOL    H37 8955   6.342   5.223   0.179  0.3409 -0.0811 -0.6099
   50MOL    C38 8956   6.001   5.271   0.222  0.1404  0.0514  0.4587
   50MOL    C39 8957   5.990   5.321   0.366  0.7105 -0.6370 -0.1283
   50MOL    C40 8958   5.890   5.436   0.380 -0.2529 -1.4236 -0.4721
   50MOL    H41 8959   5.989   5.354   0.152 -1.3543 -0.3469  0.2136
   50MOL    H42 8960   5.918   5.203   0.200  3.0572 -4.6150  3.1836
   50MOL    H43 8961   6.085   5.364   0.400  0.4218 -0.1777  0.1007
   50MOL    H44 8962   5.895   5.515   0.304  1.8080  0.3450  1.4126
   50MOL    H45 8963   5.789   5.395   0.376 -2.1289  2.7816  0.9908
   50MOL    H46 8964   5.900   5.502   0.466  1.5076 -0.2136 -1.5526
   50MOL    C47 8965   5.948   5.207   0.466 -0.8742 -0.0621  0.0555
   50MOL    C48 8966   5.965   5.235   0.620 -0.9396 -0.5054  0.6624
   50MOL    C49 8967   5.835   5.232   0.701 -0.7419  0.6307 -0.3493
   50MOL    H50 8968   5.840   5.188   0.464 -1.3197  1.9311  2.4002
   50MOL    H51 8969   6.001   5.118   0.433 -2.6943 -1.9642  2.0437
   50MOL    H52 8970   5.989   5.339   0.640  1.4530 -0.7687 -0.6923
   50MOL    H53 8971   5.812   5.127   0.720  0.7445  0.2738 -0.4221
   50MOL    H54 8972   5.857   5.277   0.797 -1.4492 -0.9128  0.5572
   50MOL    H55 8973   5.754   5.281   0.648 -1.4547 -0.1705 -0.0002
   50MOL    C56 8974   6.076   5.150   0.687  0.4880  0.1863  0.2632
   50MOL    C57 8975   6.222   5.165   0.645  0.0332 -0.5862  0.1124
   50MOL    C58 8976   6.267   5.307   0.641  0.5407 -0.6283 -0.4639
   50MOL    H59 8977   6.072   5.152   0.796 -2.9542 -0.4783  0.1915
   50MOL    H60 8978   6.043   5.047   0.676  0.4212  0.3626 -1.3368
   50MOL    H61 8979   6.225   5.142   0.539 -2.6057 -0.0737 -0.0957
   50MOL    H62 8980   6.299   5.340   0.740 -2.4283 -3.5644  1.5780
   50MOL    H63 8981   6.358   5.308   0.581  0.6429 -0.5616 -0.3080
   50MOL    H64 8982   6.189   5.369   0.598 -0.4148 -1.4558  0.0723
   50MOL    C65 8983   6.326   5.076   0.717 -0.3090 -0.4458  0.6494
   50MOL    C66 8984   6.288   4.923   0.728  0.5523 -0.2926 -0.3001
   50MOL    C67 8985   6.259   4.864   0.593  0.3754 -0.3651 -0.3123
   50MOL    H68 8986   6.424   5.102   0.675 -1.9558  0.5331 -2.7792
   50MOL    H69 8987   6.342   5.129   0.811 -0.2045 -0.5615  0.6975
   50MOL    H70 8988   6.199   4.910   0.790  0.4894  1.2046 -0.0596
   50MOL    H71 8989   6.173   4.915   0.549 -0.2244 -0.1619  1.0741
   50MOL    H72 8990   6.339   4.885   0.522  1.2963  0.4740  0.9524
   50MOL    H73 8991   6.238   4.757   0.599 -3.3083  0.2678 -0.6497
   50MOL    C74 8992   6.408   4.847   0.792 -0.4520 -0.9236  0.1933
   50MOL    C75 8993   6.430   4.871   0.941  0.2628 -0.0790  0.3372
   50MOL    C76 8994   6.309   4.851   1.026  0.4315 -0.2409  0.2845
   50MOL    H77 8995   6.398   4.741   0.769  1.1086 -0.8506 -0.9211
   50MOL    H78 8996   6.499   4.872   0.738 -0.4166 -2.3811 -0.4606
   50MOL    H79 8997   6.468   4.973   0.948  0.9285 -0.3549  0.7854
   50MOL    H80 8998   6.331   4.847   1.133  0.4777 -0.0383  0.2817
   50MOL    H81 8999   6.239   4.934   1.015 -2.1037 -2.3600 -0.0341
   50MOL    H82 9000   6.258   4.760   0.994  1.9526 -0.4789 -1.5464
   50MOL    C83 9001   6.543   4.766   0.998  0.1544  0.7243 -0.2991
   50MOL    C84 9002   6.585   4.754   1.146  0.3182 -0.1712 -0.8900
   50MOL    C85 9003   6.701   4.658   1.169 -0.7420  0.1328 -0.0245
   50MOL    H86 9004   6.506   4.666   0.975 -1.5662  1.0883  0.8132
   50MOL    H87 9005   6.634   4.778   0.939 -0.1695 -1.9369 -1.4260
   50MOL    H88 9006   6.497   4.714   1.198 -0.1225 -0.0135 -1.5047
   50MOL    H89 9007   6.794   4.676   1.115  0.5236 -0.5323  1.8626
   50MOL    H90 9008   6.725   4.654   1.275  1.9007  1.3801 -0.5202
   50MOL    H91 9009   6.676   4.554   1.147 -2.3223 -0.0535  2.5124
   50MOL    C92 9010   6.607   4.897   1.201 -0.4292 -1.0016 -0.7105
   50MOL    C93 9011   6.631   4.914   1.353  0.2090  0.5101 -0.8212
   50MOL    C94 9012   6.690   5.055   1.385 -0.6290  0.3913 -0.2784
   50MOL    H95 9013   6.685   4.939   1.137  1.0315 -1.5359  0.7034
   50MOL    H96 9014   6.526   4.968   1.184 -0.1646  0.1002  2.4151
   50MOL    H97 9015   6.695   4.834   1.391  1.2514  1.7653  0.0851
   50MOL    H98 9016   6.792   5.070   1.347 -0.1229 -0.7282  0.6193
   50MOL    H99 9017   6.627   5.135   1.348  0.0025  1.5487  1.1358
   50MOL   H100 9018   6.690   5.072   1.492  0.7650 -1.7777  0.1034
   50MOL   C101 9019   6.495   4.892   1.431  0.1450  0.7290  0.8070
   50MOL   C102 9020   6.513   4.867   1.590 -0.4079 -0.0212 -0.9839
   50MOL   C103 9021   6.477   5.006   1.649 -0.1802  0.2735 -0.0483
   50MOL   H104 9022   6.427   4.976   1.421 -0.1003  0.3075 -1.2077
   50MOL   H105 9023   6.450   4.803   1.386 -0.4689  1.4160  0.0688
   50MOL   H106 9024   6.613   4.829   1.610 -1.5944 -2.1053  1.2112
   50MOL   H107 9025   6.374   5.039   1.632 -0.2346 -0.5092 -1.2804
   50MOL   H108 9026   6.494   4.990   1.755  1.3766  1.9632 -0.0213
   50MOL   H109 9027   6.538   5.091   1.619  1.3819 -0.5440  0.8044
   50MOL   C110 9028   6.417   4.760   1.644  0.7980  0.2806 -0.0579
   50MOL   C111 9029   6.417   4.616   1.588  0.1512 -0.1807  0.0358
   50MOL   C112 9030   6.559   4.553   1.604 -0.0934 -0.1442  0.2310
   50MOL   H113 9031   6.416   4.753   1.753  2.0382  0.0994 -0.0557
   50MOL   H114 9032   6.319   4.808   1.638  0.7249  0.0442 -0.8365
   50MOL   H115 9033   6.392   4.623   1.482 -3.9506 -0.3771  0.9025
   50MOL   H116 9034   6.609   4.538   1.700  0.4591 -0.5984 -0.1260
   50MOL   H117 9035   6.563   4.464   1.541  1.6145 -0.7238  1.1166
   50MOL   H118 9036   6.632   4.621   1.562 -0.2229  0.3360  0.7793
   50MOL   C119 9037   6.311   4.530   1.656  0.3815  0.6031  0.2656
   50MOL   C120 9038   6.268   4.408   1.563  0.5722  0.0973  0.5115
   50MOL   C121 9039   6.231   4.299   1.666  0.2923  0.4469 -0.5594
   50MOL   H122 9040   6.344   4.481   1.748 -0.2815 -0.7750 -0.2073
   50MOL   H123 9041   6.222   4.585   1.684 -1.1910  0.1591 -3.5107
   50MOL   H124 9042   6.351   4.373   1.500  0.7806 -0.5443  1.1403
   50MOL   H125 9043   6.178   4.212   1.629 -0.0472  0.1770  0.5471
   50MOL   H126 9044   6.318   4.247   1.706 -1.7194  0.1013  3.5249
   50MOL   H127 9045   6.179   4.345   1.750  1.5078  0.1585  0.3711
   50MOL   C128 9046   6.145   4.450   1.482 -0.0132 -0.0787  0.5933
   50MOL   C129 9047   6.149   4.542   1.359  0.0343  0.4885  0.1453
   50MOL   C130 9048   6.207   4.458   1.238  0.1280  0.1402  0.6606
   50MOL   H131 9049   6.097   4.357   1.454  1.0818 -0.4093 -0.2114
   50MOL   H132 9050   6.077   4.499   1.552  0.1866  0.2178  0.5809
   50MOL   H133 9051   6.219   4.623   1.378  0.0401  0.5805 -0.2698
   50MOL   H134 9052   6.120   4.402   1.203  1.5568 -1.2097 -0.8427
   50MOL   H135 9053   6.239   4.512   1.149 -1.9140  0.3575  0.0250
   50MOL   H136 9054   6.287   4.393   1.271  0.3200 -1.1920 -2.2679
   50MOL   C137 9055   6.016   4.605   1.314  0.0895 -0.0702  0.5988
   50MOL   C138 9056   6.039   4.733   1.231  0.3178 -0.6379 -0.3637
   50MOL   C139 9057   5.992   4.715   1.087  0.5154  0.4199  0.3656
   50MOL   H140 9058   5.952   4.529   1.271 -1.6964  2.1463 -0.7764
   50MOL   H141 9059   5.963   4.632   1.405 -0.8516 -1.2946  0.4219
   50MOL   H142 9060   6.147   4.747   1.220  0.2797 -0.7046 -0.8425
   50MOL   H143 9061   5.886   4.689   1.085 -0.1432  2.7679  2.2663
   50MOL   H144 9062   5.994   4.808   1.032 -3.4680  2.5163  3.4638
   50MOL   H145 9063   6.045   4.634   1.036 -2.3570 -1.1985 -0.1725
   50MOL   C146 9064   5.964   4.856   1.295 -0.4284 -0.0999  0.0378
   50MOL   C147 9065   6.028   4.892   1.427 -0.3521 -0.7804 -0.3481
   50MOL   C148 9066   6.148   4.978   1.402  0.0433 -0.4599 -0.6400
   50MOL   H149 9067   5.979   4.941   1.229  1.8586 -0.1929  0.4157
   50MOL   H150 9068   5.859   4.825   1.295 -0.2482 -0.7269  0.0518
   50MOL   H151 9069   6.062   4.802   1.480  0.2773 -1.7333 -2.3386
   50MOL   H152 9070   6.214   4.930   1.329 -0.8024  1.0593 -2.4293
   50MOL   H153 9071   6.125   5.079   1.370 -1.3753  0.8963  4.2685
   50MOL   H154 9072   6.200   4.987   1.497  0.4280 -1.4063 -0.7487
   50MOL   C155 9073   5.930   4.954   1.524 -0.4122 -0.2159  0.2945
   50MOL   C156 9074   5.970   4.973   1.676  0.3295  0.8812 -0.4918
   50MOL   C157 9075   5.850   5.041   1.750  0.3742 -0.2090  0.3064
   50MOL   H158 9076   5.893   5.046   1.478  0.1392  0.4252  1.1228
   50MOL   H159 9077   5.831   4.909   1.524 -0.7131  0.4295  1.1133
   50MOL   H160 9078   6.055   5.041   1.675  0.1140  1.1764  1.0758
   50MOL   H161 9079   5.770   4.967   1.749 -0.0465  0.2439 -1.1983
   50MOL   H162 9080   5.868   5.056   1.857  2.4025 -0.6894  0.0524
   50MOL   H163 9081   5.805   5.128   1.701 -0.3148 -0.5644  0.3075
   50MOL   C164 9082   5.995   4.841   1.747 -0.7979  0.2503 -0.3065
   50MOL   C165 9083   6.051   4.843   1.892 -0.1282 -0.6535 -0.8286
   50MOL   C166 9084   6.065   4.699   1.935  0.4410  0.7352 -0.3307
   50MOL   H167 9085   5.903   4.785   1.732 -0.1936 -0.3509 -1.8709
   50MOL   H168 9086   6.064   4.777   1.692 -0.4869 -1.2183  1.7164
   50MOL   H169 9087   5.973   4.888   1.954 -0.0601 -0.6278 -0.7624
   50MOL   H170 9088   6.169   4.665   1.937 -0.2624 -1.4007  2.3850
   50MOL   H171 9089   6.019   4.684   2.032  2.3830 -0.5261  0.4320
   50MOL   H172 9090   6.012   4.641   1.859 -1.2325  0.5167  0.9845
   50MOL   C173 9091   6.178   4.917   1.911 -0.2263 -0.7739  0.5348
   50MOL   C174 9092   6.239   4.921   2.054 -0.5394 -0.1281 -0.1427
   50MOL   C175 9093   6.362   5.006   2.063 -0.3641 -0.5215  0.2466
   50MOL   H176 9094   6.253   4.870   1.846 -0.6129  1.0542 -1.2752
   50MOL   H177 9095   6.167   5.022   1.884 -0.2794 -0.6116  1.1900
   50MOL   H178 9096   6.282   4.824   2.077 -0.4296  0.3368  1.6670
   50MOL   H179 9097   6.433   4.966   1.990 -0.2210 -2.4430  1.4187
   50MOL   H180 9098   6.330   5.107   2.037 -0.6112  0.3178  3.5784
   50MOL   H181 9099   6.420   5.007   2.155 -0.2667 -2.7884  0.2360
   50MOL   H182 9100   6.164   4.940   2.131 -2.0271  0.2917 -1.6555
   51MOL     C1 9101   2.307   5.503   0.417 -0.4757 -0.4243 -0.2258
   51MOL     C2 9102   2.321   5.594   0.538  0.8759  0.3978 -0.4664
   51MOL     C3 9103   2.474   5.621   0.550 -0.2586 -0.0920  0.3058
   51MOL     H4 9104   2.367   5.414   0.439  1.4689  0.4002 -2.0213
   51MOL     H5 9105   2.356   5.541   0.328 -0.2742 -0.1045  0.0194
   51MOL     H6 9106   2.306   5.527   0.623  0.0673  1.0953 -0.0574
   51MOL     H7 9107   2.489   5.640   0.657  0.9202  1.7322 -0.1474
   51MOL     H8 9108   2.528   5.534   0.512 -1.3254 -0.0956 -1.2046
   51MOL     H9 9109   2.496   5.704   0.484  1.4364 -0.0712  0.8575
   51MOL    H10 9110   2.205   5.472   0.395 -0.6317 -0.6536  0.7700
   51MOL    C11 9111   2.226   5.712   0.537 -0.4202  0.0341 -0.2079
   51MOL    C12 9112   2.117   5.686   0.640  0.1871  0.2127 -0.0721
   51MOL    C13 9113   2.177   5.689   0.785  0.7383  0.2143 -0.8765
   51MOL    H14 9114   2.270   5.808   0.562 -0.2550 -0.4493  1.4042
   51MOL    H15 9115   2.191   5.723   0.434  1.0453 -2.2685 -0.9914
   51MOL    H16 9116   2.083   5.582   0.642 -1.0875  0.6439  2.8260
   51MOL    H17 9117   2.102   5.712   0.860  0.2221 -2.3055 -0.5856
   51MOL    H18 9118   2.219   5.593   0.816  1.8643  0.3332 -1.9621
   51MOL    H19 9119   2.259   5.761   0.788  1.9239 -0.8891 -4.0424
   51MOL    C20 9120   2.001   5.783   0.624 -0.9699 -0.3660 -0.0896
   51MOL    C21 9121   1.933   5.787   0.485  0.4743 -0.1403 -0.8347
   51MOL    C22 9122   1.907   5.653   0.418  0.1566 -0.8464 -0.1106
   51MOL    H23 9123   1.935   5.752   0.706  0.5440 -0.6353  1.0416
   51MOL    H24 9124   2.023   5.885   0.654  0.5558 -0.2520 -1.5658
   51MOL    H25 9125   2.000   5.835   0.413 -0.3622  0.8410 -0.9721
   51MOL    H26 9126   1.826   5.603   0.473 -2.1334  2.4885 -0.2598
   51MOL    H27 9127   1.851   5.664   0.325  4.1306 -0.9700 -2.6032
   51MOL    H28 9128   1.991   5.584   0.417  2.5406  1.9568 -2.5402
   51MOL    C29 9129   1.801   5.872   0.494 -0.1314  0.0150 -0.3549
   51MOL    C30 9130   1.817   6.021   0.524  0.0378 -0.1462  0.4178
   51MOL    C31 9131   1.847   6.091   0.388  0.3887  0.1213 -0.5874
   51MOL    H32 9132   1.761   5.861   0.393 -2.2201 -0.8434  0.5264
   51MOL    H33 9133   1.742   5.823   0.572  0.0369  0.8786  0.3165
   51MOL    H34 9134   1.900   6.045   0.589 -0.5112 -0.2103  1.1478
   51MOL    H35 9135   1.955   6.085   0.369  0.4446 -2.0306  0.3075
   51MOL    H36 9136   1.808   6.049   0.295  0.7734  0.6867 -1.0165
   51MOL    H37 9137   1.835   6.199   0.403  2.0874  0.1078  1.0994
   51MOL    C38 9138   1.684   6.066   0.586  0.2313  0.2038 -0.9846
   51MOL    C39 9139   1.657   6.221   0.621  0.2201  0.4806  0.3576
   51MOL    C40 9140   1.509   6.248   0.632  0.0187  0.5491 -0.4359
   51MOL    H41 9141   1.614   6.027   0.513  0.1532  1.9096 -1.8609
   51MOL    H42 9142   1.675   6.003   0.674  1.4499 -1.3325 -1.9215
   51MOL    H43 9143   1.703   6.276   0.539 -1.8917  1.2809 -0.3375
   51MOL    H44 9144   1.459   6.254   0.536  0.8647  0.5243 -0.8791
   51MOL    H45 9145   1.470   6.176   0.704  0.3829  0.9584  0.1757
   51MOL    H46 9146   1.484   6.346   0.671  0.6832 -0.0483  1.5508
   51MOL    C47 9147   1.741   6.257   0.746  0.7178  0.1142 -0.3564
   51MOL    C48 9148   1.771   6.405   0.765 -0.1036 -0.1474 -0.0606
   51MOL    C49 9149   1.723   6.451   0.903 -0.6399  0.1539 -0.1291
   51MOL    H50 9150   1.672   6.231   0.826  0.6678 -1.4428 -0.9052
   51MOL    H51 9151   1.835   6.201   0.748 -0.9368 -2.7175  0.7613
   51MOL    H52 9152   1.717   6.461   0.689  0.9058  1.2082  0.1962
   51MOL    H53 9153   1.615   6.456   0.916 -0.5249 -0.1899  1.0402
   51MOL    H54 9154   1.748   6.371   0.972  0.1673  0.7036  0.2261
   51MOL    H55 9155   1.778   6.537   0.942 -0.7927  0.7959 -1.2908
   51MOL    C56 9156   1.926   6.448   0.755 -0.2376  0.2268 -0.3743
   51MOL    C57 9157   1.994   6.404   0.623 -0.2315 -0.0848  0.6839
   51MOL    C58 9158   1.933   6.457   0.492  0.7400  0.1472  0.2396
   51MOL    H59 9159   1.926   6.556   0.765 -0.6848  0.0058  2.4204
   51MOL    H60 9160   1.985   6.408   0.838  0.2992 -2.1236 -1.8406
   51MOL    H61 9161   1.977   6.297   0.615 -2.6530  0.0723  3.0179
   51MOL    H62 9162   1.985   6.424   0.402 -2.6992  0.4266 -1.9631
   51MOL    H63 9163   1.827   6.433   0.483  1.3533 -2.5005 -0.5780
   51MOL    H64 9164   1.948   6.564   0.481  3.1516  0.0541  2.2374
   51MOL    C65 9165   2.146   6.435   0.634  0.3702  0.7917 -0.0116
   51MOL    C66 9166   2.233   6.337   0.719 -0.0643  0.0071  0.2793
   51MOL    C67 9167   2.183   6.192   0.702 -0.3343  0.4458  0.3668
   51MOL    H68 9168   2.186   6.445   0.533 -0.2619  0.3443 -0.3071
   51MOL    H69 9169   2.170   6.533   0.673  1.4388  0.5387 -0.0088
   51MOL    H70 9170   2.209   6.366   0.822  1.0228 -0.1055  0.5671
   51MOL    H71 9171   2.177   6.171   0.595 -1.3827 -1.5926  0.7888
   51MOL    H72 9172   2.264   6.133   0.745  1.0544  1.6345 -0.5907
   51MOL    H73 9173   2.096   6.173   0.765  0.1307 -1.5997  0.4539
   51MOL    C74 9174   2.386   6.352   0.690  0.4701 -0.0515 -0.2365
   51MOL    C75 9175   2.450   6.493   0.722 -0.2407  0.1726 -0.4062
   51MOL    C76 9176   2.434   6.535   0.865 -0.4199 -0.0941  0.9358
   51MOL    H77 9177   2.446   6.277   0.741  2.3605 -0.7568 -3.3619
   51MOL    H78 9178   2.388   6.328   0.583 -2.0034 -1.8299  0.0575
   51MOL    H79 9179   2.390   6.566   0.667  0.3943  1.5238  0.6604
   51MOL    H80 9180   2.333   6.523   0.905 -0.5950 -1.3817  0.1442
   51MOL    H81 9181   2.504   6.484   0.931  0.2475  0.4123  0.6257
   51MOL    H82 9182   2.460   6.639   0.887 -1.5016  0.4991 -0.4868
   51MOL    C83 9183   2.596   6.504   0.671 -0.2764 -0.2141  0.9810
   51MOL    C84 9184   2.698   6.394   0.708  0.4721 -0.1991 -0.3129
   51MOL    C85 9185   2.711   6.304   0.589  0.0786  0.5547 -0.1491
   51MOL    H86 9186   2.585   6.522   0.564  0.3474  2.7940  1.3728
   51MOL    H87 9187   2.638   6.600   0.703  0.7312  0.3273 -1.8793
   51MOL    H88 9188   2.674   6.352   0.806  0.2572  0.7588  0.0562
   51MOL    H89 9189   2.750   6.359   0.504 -0.1700 -1.5185 -1.6491
   51MOL    H90 9190   2.785   6.227   0.611 -0.9458  0.1000  1.7932
   51MOL    H91 9191   2.623   6.255   0.548 -0.6890  1.3513  0.5301
   51MOL    C92 9192   2.840   6.458   0.727 -0.1000 -0.2161  0.1449
   51MOL    C93 9193   2.943   6.375   0.826  0.8030  0.3655 -0.3915
   51MOL    C94 9194   3.085   6.376   0.761 -0.0795 -0.0597  0.0961
   51MOL    H95 9195   2.884   6.474   0.629  2.5922  0.0964  1.3638
   51MOL    H96 9196   2.829   6.554   0.778 -2.1130 -0.3244 -0.0251
   51MOL    H97 9197   2.925   6.267   0.824 -1.0245  0.5883  1.8691
   51MOL    H98 9198   3.127   6.475   0.742  3.1203 -1.3054  0.4623
   51MOL    H99 9199   3.156   6.311   0.812  1.3001  0.5982 -0.9495
   51MOL   H100 9200   3.062   6.340   0.661 -0.8790  0.7915 -0.0411
   51MOL   C101 9201   2.952   6.434   0.973 -0.6628  0.6910 -0.6529
   51MOL   C102 9202   3.037   6.354   1.068 -0.2244 -0.9372  0.4203
   51MOL   C103 9203   3.026   6.417   1.209 -0.0670 -0.2107  0.4654
   51MOL   H104 9204   2.989   6.537   0.965  0.4652  0.2969 -0.5827
   51MOL   H105 9205   2.857   6.440   1.025 -1.6021  1.0417 -2.3863
   51MOL   H106 9206   3.140   6.363   1.033  0.6431  0.2215  3.0927
   51MOL   H107 9207   2.923   6.412   1.245 -1.3778  0.5953 -2.9412
   51MOL   H108 9208   3.086   6.371   1.287  4.1082  2.1672 -1.1940
   51MOL   H109 9209   3.046   6.523   1.221 -0.8257 -0.1062  0.8266
   51MOL   C110 9210   2.991   6.209   1.085 -0.1316  0.2268 -0.6775
   51MOL   C111 9211   3.085   6.122   1.171  0.0678 -0.0342 -0.2626
   51MOL   C112 9212   3.025   5.983   1.180 -0.0336  0.6267  0.6179
   51MOL   H113 9213   2.894   6.211   1.135  1.4787 -0.5662  2.6583
   51MOL   H114 9214   2.977   6.159   0.990  0.2229  1.0403 -1.1710
   51MOL   H115 9215   3.088   6.164   1.272 -0.5302 -0.6797  0.0271
   51MOL   H116 9216   3.059   5.950   1.279 -2.1013 -0.9594  0.8147
   51MOL   H117 9217   2.916   5.984   1.179 -0.0483  1.9712  1.6634
   51MOL   H118 9218   3.050   5.926   1.091 -0.2547 -1.4808  1.8758
   51MOL   C119 9219   3.226   6.115   1.102  1.1956  0.4673 -0.3237
   51MOL   C120 9220   3.342   6.024   1.155 -0.0372  0.0464 -0.2466
   51MOL   C121 9221   3.449   6.029   1.039  0.0165 -0.2653  0.3209
   51MOL   H122 9222   3.200   6.102   0.997 -1.5562 -1.2514  0.5109
   51MOL   H123 9223   3.271   6.214   1.102  0.3145  0.8796  1.5058
   51MOL   H124 9224   3.321   5.918   1.168  0.8482 -0.0944  0.1086
   51MOL   H125 9225   3.485   6.129   1.017 -1.0104 -0.3754 -2.0605
   51MOL   H126 9226   3.540   5.974   1.062  0.6778  0.4416 -0.5936
   51MOL   H127 9227   3.401   5.987   0.950  1.8562  0.9688 -1.2815
   51MOL   C128 9228   3.411   6.092   1.277  0.0884  0.2451 -0.1719
   51MOL   C129 9229   3.340   6.095   1.418 -0.0564  0.0508  0.2837
   51MOL   C130 9230   3.357   5.946   1.492  0.5098 -0.0712  0.4310
   51MOL   H131 9231   3.509   6.046   1.293  1.0822  2.6979  1.1429
   51MOL   H132 9232   3.432   6.193   1.241  1.0388  0.2017  0.2482
   51MOL   H133 9233   3.233   6.108   1.403 -0.2354 -3.1111 -1.7461
   51MOL   H134 9234   3.289   5.934   1.576  0.8812 -1.7873  0.5062
   51MOL   H135 9235   3.339   5.865   1.421 -0.7149  0.7253 -0.1796
   51MOL   H136 9236   3.458   5.929   1.530 -0.1492 -1.0758  1.7563
   51MOL   C137 9237   3.399   6.195   1.512 -0.8946 -0.7266  0.9011
   51MOL   C138 9238   3.345   6.338   1.495 -0.3710 -0.3270  0.2016
   51MOL   C139 9239   3.203   6.352   1.541  0.3932 -0.4124 -0.2264
   51MOL   H140 9240   3.364   6.177   1.613 -1.2226  1.7144  1.2729
   51MOL   H141 9241   3.507   6.184   1.500 -0.5706  1.8675  1.0678
   51MOL   H142 9242   3.344   6.364   1.389  0.2357 -0.5908  0.1319
   51MOL   H143 9243   3.193   6.361   1.650  1.7944  1.1147 -0.1967
   51MOL   H144 9244   3.151   6.437   1.497  0.4134  0.0773  0.6819
   51MOL   H145 9245   3.145   6.265   1.509  2.2011 -0.9287 -2.1806
   51MOL   C146 9246   3.439   6.432   1.565  0.3886  0.8411 -0.4339
   51MOL   C147 9247   3.584   6.458   1.525  0.7344 -0.2815  0.6552
   51MOL   C148 9248   3.606   6.485   1.369 -0.2375  0.2396 -0.3514
   51MOL   H149 9249   3.384   6.525   1.574  0.0179  0.6489 -0.7054
   51MOL   H150 9250   3.438   6.393   1.667 -1.2325 -1.2367 -1.2016
   51MOL   H151 9251   3.649   6.373   1.541  2.4316  1.2081  1.8498
   51MOL   H152 9252   3.555   6.408   1.311  1.7475  0.0478 -1.8908
   51MOL   H153 9253   3.555   6.575   1.333 -3.1742 -1.7235 -1.3473
   51MOL   H154 9254   3.710   6.475   1.340  0.0945 -0.3490  1.0220
   51MOL   C155 9255   3.650   6.577   1.603  0.0138  0.5178 -0.5460
   51MOL   C156 9256   3.686   6.541   1.747 -0.4695 -0.0592 -0.2664
   51MOL   C157 9257   3.800   6.442   1.761 -0.8502  0.3098 -0.7998
   51MOL   H158 9258   3.744   6.607   1.557 -0.3166 -0.5106 -1.9276
   51MOL   H159 9259   3.583   6.660   1.585  1.7973  1.9671 -0.6392
   51MOL   H160 9260   3.605   6.488   1.796  0.2703  0.4381  1.5587
   51MOL   H161 9261   3.770   6.346   1.717  0.0404 -0.9886  1.3204
   51MOL   H162 9262   3.888   6.486   1.714 -0.7844  0.8899 -0.1333
   51MOL   H163 9263   3.821   6.429   1.867 -0.2993  2.8420 -0.5823
   51MOL   C164 9264   3.701   6.657   1.845  0.1351  0.2261 -0.7956
   51MOL   C165 9265   3.585   6.766   1.851  0.4077  0.7946 -0.9047
   51MOL   C166 9266   3.445   6.711   1.901  0.7793  0.2757  0.1381
   51MOL   H167 9267   3.731   6.621   1.943  0.3305 -1.3467 -1.4131
   51MOL   H168 9268   3.784   6.716   1.805  0.7393  0.3035  0.5501
   51MOL   H169 9269   3.567   6.806   1.751 -1.7134 -0.4354 -1.0539
   51MOL   H170 9270   3.355   6.770   1.882  0.1099 -0.6763  0.3034
   51MOL   H171 9271   3.420   6.617   1.851  1.2533  0.7935 -1.0967
   51MOL   H172 9272   3.443   6.687   2.007 -1.8472  0.5164  0.1964
   51MOL   C173 9273   3.626   6.895   1.931  0.4984 -0.4637 -0.1339
   51MOL   C174 9274   3.652   6.875   2.081  0.4931 -0.2991 -0.2260
   51MOL   C175 9275   3.649   7.002   2.172 -0.1470 -0.3419 -0.2005
   51MOL   H176 9276   3.717   6.930   1.881  0.6948 -0.6924  0.0592
   51MOL   H177 9277   3.549   6.971   1.923  0.7551 -0.2777 -0.8587
   51MOL   H178 9278   3.738   6.809   2.095  1.4657  0.8126 -0.8796
   51MOL   H179 9279   3.686   6.973   2.270 -2.2264  0.0604  0.7372
   51MOL   H180 9280   3.726   7.076   2.154 -2.8820  2.1988 -2.0175
   51MOL   H181 9281   3.550   7.049   2.178  1.4951  3.1888  0.4607
   51MOL   H182 9282   3.572   6.807   2.111 -0.0734 -1.4464 -4.0325
   52MOL     C1 9283   3.473   3.563   0.096 -0.0324  0.4449 -0.1322
   52MOL     C2 9284   3.506   3.590   7.651  0.1533 -0.1151 -0.1537
   52MOL     C3 9285   3.650   3.548   7.617  0.3781 -0.2374 -0.3061
   52MOL     H4 9286   3.390   3.623   0.135  1.3740  0.9502  2.1520
   52MOL     H5 9287   3.554   3.598   0.159  0.2807  0.2092 -0.4049
   52MOL     H6 9288   3.492   3.697   7.637 -1.5618 -0.3712 -0.5807
   52MOL     H7 9289   3.714   3.631   7.646  0.7653 -0.9473  0.9184
   52MOL     H8 9290   3.681   3.454   7.661  0.4923 -0.3348 -0.6013
   52MOL     H9 9291   3.666   3.549   7.510  0.1751 -0.7108 -0.3419
   52MOL    H10 9292   3.445   3.461   0.124 -0.9737  0.9991  1.0361
   52MOL    C11 9293   3.418   3.503   7.562 -0.1366 -0.2556 -0.5652
   52MOL    C12 9294   3.274   3.546   7.556 -0.2890 -0.3807  0.1102
   52MOL    C13 9295   3.232   3.623   7.422 -0.5216  0.5100 -0.1945
   52MOL    H14 9296   3.457   3.517   7.461  0.9415  1.1954  0.0266
   52MOL    H15 9297   3.431   3.397   7.581 -0.0398  0.2438  2.4121
   52MOL    H16 9298   3.268   3.608   7.646  4.3827  0.1977  0.1626
   52MOL    H17 9299   3.161   3.704   7.439  0.3366  0.7572  2.3104
   52MOL    H18 9300   3.326   3.659   7.380  1.2862  1.1582  4.2211
   52MOL    H19 9301   3.205   3.547   7.348  0.4863 -2.4159  2.3251
   52MOL    C20 9302   3.185   3.426   7.574  0.0305 -0.1223 -0.2535
   52MOL    C21 9303   3.031   3.455   7.568 -0.2858  0.4945 -0.5492
   52MOL    C22 9304   2.964   3.312   7.560 -0.1038 -0.5273  0.0854
   52MOL    H23 9305   3.199   3.359   7.489  0.7724 -1.4904  0.9318
   52MOL    H24 9306   3.205   3.370   7.665 -0.2954 -2.6591 -1.6881
   52MOL    H25 9307   2.999   3.507   7.478  0.6670  0.1222 -1.1078
   52MOL    H26 9308   2.855   3.318   7.569  0.0464  0.1272  1.5655
   52MOL    H27 9309   2.993   3.256   7.471  1.0186  1.4659 -0.8300
   52MOL    H28 9310   2.993   3.248   7.644  2.4663  1.6103  0.8723
   52MOL    C29 9311   2.986   3.529   7.695  0.6007 -0.5106 -0.8815
   52MOL    C30 9312   2.837   3.551   0.025  0.0280  0.1516  0.1716
   52MOL    C31 9313   2.825   3.634   0.154 -0.5296 -0.0900  0.3155
   52MOL    H32 9314   3.019   3.467   0.081  0.5150  0.2449 -0.2867
   52MOL    H33 9315   3.046   3.618   0.014 -0.9189  0.3396  0.1320
   52MOL    H34 9316   2.803   3.450   0.047  1.2555 -0.0231  1.3275
   52MOL    H35 9317   2.850   3.740   0.143 -0.9980 -0.0112 -0.0058
   52MOL    H36 9318   2.728   3.647   0.201 -0.1814  1.9789  0.5000
   52MOL    H37 9319   2.894   3.590   0.225  1.1947 -0.2290 -1.3877
   52MOL    C38 9320   2.762   3.612   7.602 -0.8109 -1.0046 -0.4756
   52MOL    C39 9321   2.610   3.629   7.613  0.0408  0.0193 -0.3704
   52MOL    C40 9322   2.564   3.710   7.493 -0.2647 -0.3051  0.2335
   52MOL    H41 9323   2.810   3.709   7.586  0.5588 -1.7151 -0.7359
   52MOL    H42 9324   2.774   3.555   7.510  1.2457 -1.9806  0.3682
   52MOL    H43 9325   2.601   3.679   0.012  1.1904 -2.3932  1.0443
   52MOL    H44 9326   2.455   3.716   7.491 -0.1751  1.9095 -0.0974
   52MOL    H45 9327   2.618   3.805   7.485  1.9718 -1.5737 -0.3731
   52MOL    H46 9328   2.597   3.644   7.413  1.2121 -0.7358  1.1667
   52MOL    C47 9329   2.531   3.495   7.623  0.1776 -0.1687  0.5214
   52MOL    C48 9330   2.382   3.507   7.656  0.0371 -0.7469 -0.3043
   52MOL    C49 9331   2.302   3.377   7.636 -0.0370  0.0604 -0.2509
   52MOL    H50 9332   2.539   3.438   7.531 -0.2458  0.1006  0.3168
   52MOL    H51 9333   2.563   3.420   7.696 -1.2322 -1.2109  0.0959
   52MOL    H52 9334   2.337   3.555   7.569 -1.2773 -1.9609 -0.3159
   52MOL    H53 9335   2.306   3.358   7.529 -0.9281 -0.4865 -0.1915
   52MOL    H54 9336   2.335   3.299   0.008 -0.4186  1.0915  1.1164
   52MOL    H55 9337   2.196   3.382   7.663 -0.4583 -1.8372 -1.4147
   52MOL    C56 9338   2.348   3.585   0.086  0.0734  0.3533  0.7944
   52MOL    C57 9339   2.419   3.544   0.224 -0.4228  0.1741 -0.4622
   52MOL    C58 9340   2.419   3.676   0.306 -0.0682  0.7223 -0.3363
   52MOL    H59 9341   2.371   3.688   0.058  0.1183 -0.0845 -0.8725
   52MOL    H60 9342   2.239   3.583   0.097 -0.0587  2.5467  0.2186
   52MOL    H61 9343   2.523   3.524   0.197 -0.3603 -0.5233  0.2741
   52MOL    H62 9344   2.455   3.645   0.405 -0.6645 -0.6434 -0.5443
   52MOL    H63 9345   2.492   3.744   0.262 -1.6475  2.4684 -0.2871
   52MOL    H64 9346   2.323   3.724   0.325 -0.0728 -0.1980  2.2378
   52MOL    C65 9347   2.356   3.422   0.302 -1.2011  0.6938  0.0840
   52MOL    C66 9348   2.466   3.338   0.377 -0.4304 -0.1654  0.6703
   52MOL    C67 9349   2.393   3.247   0.479  0.4443  0.0901 -0.4056
   52MOL    H68 9350   2.276   3.459   0.366 -0.9488 -0.5355  1.1378
   52MOL    H69 9351   2.303   3.356   0.232 -1.7372  1.8457 -0.6132
   52MOL    H70 9352   2.522   3.413   0.433 -1.1966  1.1566 -0.3128
   52MOL    H71 9353   2.336   3.175   0.421  0.9841  0.3544 -1.2701
   52MOL    H72 9354   2.465   3.184   0.531 -1.3034 -0.6939  1.1457
   52MOL    H73 9355   2.328   3.306   0.544  0.5986 -0.6687  0.4549
   52MOL    C74 9356   2.547   3.248   0.282 -0.1360 -0.2093 -0.1859
   52MOL    C75 9357   2.682   3.196   0.329  0.0767  0.5916 -0.3898
   52MOL    C76 9358   2.732   3.071   0.257 -0.0960 -0.5279  0.0768
   52MOL    H77 9359   2.482   3.169   0.245 -1.3037 -0.0248  1.4342
   52MOL    H78 9360   2.569   3.303   0.191  0.3178  1.6014  0.9899
   52MOL    H79 9361   2.663   3.163   0.431 -1.1417  1.1389 -0.4217
   52MOL    H80 9362   2.768   3.100   0.158 -0.9930  0.8421  0.1341
   52MOL    H81 9363   2.812   3.028   0.317  0.3325  0.5513  0.2901
   52MOL    H82 9364   2.658   2.991   0.258 -0.0739 -0.5795 -1.5897
   52MOL    C83 9365   2.785   3.303   0.330  0.1778  0.0805 -0.4028
   52MOL    C84 9366   2.881   3.291   0.452  0.7372  0.0317  0.7744
   52MOL    C85 9367   3.004   3.381   0.421  0.6885 -0.3516 -0.3080
   52MOL    H86 9368   2.832   3.307   0.232 -0.7562  0.5941 -0.8375
   52MOL    H87 9369   2.743   3.403   0.341 -0.3460 -0.1389 -0.4175
   52MOL    H88 9370   2.923   3.191   0.468  1.7846  0.1278 -1.2710
   52MOL    H89 9371   3.064   3.376   0.512  0.6680 -0.7483 -0.3133
   52MOL    H90 9372   3.068   3.350   0.339  1.1098 -0.6343  0.1280
   52MOL    H91 9373   2.964   3.481   0.408 -0.4435 -0.6746  0.5191
   52MOL    C92 9374   2.815   3.335   0.586 -0.3636 -0.2929 -0.5421
   52MOL    C93 9375   2.773   3.227   0.689  0.4676 -0.0944 -0.0504
   52MOL    C94 9376   2.909   3.169   0.748 -0.1437 -0.0826 -0.7485
   52MOL    H95 9377   2.880   3.409   0.632 -0.3671 -0.6177 -0.0187
   52MOL    H96 9378   2.729   3.398   0.563  0.5004  0.8908 -0.5938
   52MOL    H97 9379   2.719   3.151   0.632  1.1340 -0.9230  0.4191
   52MOL    H98 9380   2.895   3.086   0.818  1.3470 -0.5512 -0.9975
   52MOL    H99 9381   2.981   3.131   0.675 -1.2622 -1.9342 -0.9206
   52MOL   H100 9382   2.961   3.243   0.808 -1.7225  1.5865 -1.3934
   52MOL   C101 9383   2.683   3.295   0.795  0.5344 -0.1407  0.0098
   52MOL   C102 9384   2.611   3.200   0.898  0.0778 -0.1103 -0.2743
   52MOL   C103 9385   2.578   3.293   1.018 -0.4281 -0.2393  0.1867
   52MOL   H104 9386   2.756   3.364   0.836  0.5849  0.0185 -0.3462
   52MOL   H105 9387   2.605   3.360   0.755 -0.8378 -1.6657  0.1343
   52MOL   H106 9388   2.682   3.128   0.939  1.2234 -0.7194 -3.2265
   52MOL   H107 9389   2.666   3.342   1.059 -1.7485  1.2074  1.4015
   52MOL   H108 9390   2.507   3.369   0.984  1.3425  1.8697  1.0899
   52MOL   H109 9391   2.538   3.230   1.098 -2.0842  0.4915 -0.0335
   52MOL   C110 9392   2.485   3.131   0.846 -0.5151 -0.7267 -0.3177
   52MOL   C111 9393   2.493   3.006   0.763  0.1434  0.1911 -0.0983
   52MOL   C112 9394   2.570   2.886   0.834  0.9721 -0.5513  0.0111
   52MOL   H113 9395   2.440   3.104   0.942  0.3962  0.4170  0.4423
   52MOL   H114 9396   2.430   3.204   0.787  1.5493  1.8801  0.8750
   52MOL   H115 9397   2.549   3.027   0.672  1.6270  0.5809  0.8809
   52MOL   H116 9398   2.515   2.855   0.923  0.4167 -0.0250 -0.1479
   52MOL   H117 9399   2.585   2.793   0.779  3.1983 -0.1953 -0.0452
   52MOL   H118 9400   2.673   2.909   0.863  0.3602  0.2525  1.6396
   52MOL   C119 9401   2.356   2.963   0.722 -0.1442  0.7999 -0.0839
   52MOL   C120 9402   2.348   2.850   0.622  0.1053  0.2705  0.2949
   52MOL   C121 9403   2.201   2.810   0.612  0.1110  0.2806  0.2595
   52MOL   H122 9404   2.306   2.910   0.803  1.4432 -1.2885 -0.4249
   52MOL   H123 9405   2.299   3.049   0.686 -0.4893 -0.6746 -3.2163
   52MOL   H124 9406   2.409   2.767   0.657  1.5352  0.6246 -1.2902
   52MOL   H125 9407   2.212   2.703   0.599 -1.8589  0.2775 -1.6355
   52MOL   H126 9408   2.151   2.816   0.709 -0.0986 -1.1648  0.2477
   52MOL   H127 9409   2.153   2.856   0.526  0.4942 -0.2043 -0.2167
   52MOL   C128 9410   2.397   2.894   0.477  0.2664  0.6019  0.8639
   52MOL   C129 9411   2.396   2.780   0.373  0.3836  0.2238  0.4980
   52MOL   C130 9412   2.395   2.821   0.228 -0.3992 -0.1234  0.0255
   52MOL   H131 9413   2.336   2.978   0.443 -0.4187  0.2102  1.1191
   52MOL   H132 9414   2.497   2.937   0.471  0.2868  0.5347  0.7190
   52MOL   H133 9415   2.301   2.727   0.385  0.5593  0.1323  1.5757
   52MOL   H134 9416   2.294   2.847   0.195  0.3589  2.2395 -0.5202
   52MOL   H135 9417   2.464   2.896   0.191  0.4438 -0.6403  0.5416
   52MOL   H136 9418   2.421   2.732   0.172 -0.6549 -0.8744  1.0792
   52MOL   C137 9419   2.511   2.674   0.405  0.2049  0.0337 -0.0075
   52MOL   C138 9420   2.490   2.527   0.363  0.6555 -0.0498 -0.2088
   52MOL   C139 9421   2.628   2.456   0.380 -0.3106 -0.0400 -0.0383
   52MOL   H140 9422   2.605   2.712   0.365 -0.4483  1.2412 -0.4261
   52MOL   H141 9423   2.534   2.685   0.511 -0.9148  0.4367  0.1957
   52MOL   H142 9424   2.467   2.533   0.256  1.4819  0.2707 -0.3742
   52MOL   H143 9425   2.632   2.349   0.360  1.2620 -0.6340  3.0309
   52MOL   H144 9426   2.702   2.514   0.324 -1.7306  3.3729  1.4626
   52MOL   H145 9427   2.668   2.454   0.482  0.8813 -1.6792 -0.5159
   52MOL   C146 9428   2.372   2.467   0.441  0.0257  0.3250 -0.0836
   52MOL   C147 9429   2.341   2.312   0.423 -0.1048  0.9253  0.2283
   52MOL   C148 9430   2.246   2.267   0.534  0.2062 -0.6653 -0.0258
   52MOL   H149 9431   2.379   2.485   0.548  1.0712  0.6048 -0.1932
   52MOL   H150 9432   2.283   2.520   0.410 -1.0242 -0.8321  0.8970
   52MOL   H151 9433   2.429   2.249   0.443  0.0863  0.6253 -1.4751
   52MOL   H152 9434   2.293   2.293   0.629 -2.4312  2.1307  0.6040
   52MOL   H153 9435   2.150   2.317   0.519 -0.2238 -2.0643 -2.0749
   52MOL   H154 9436   2.222   2.160   0.532  1.4651 -0.9263 -1.1133
   52MOL   C155 9437   2.279   2.294   0.283  0.0765 -0.2395 -0.1390
   52MOL   C156 9438   2.238   2.149   0.236  0.0549  0.4674  0.2034
   52MOL   C157 9439   2.085   2.157   0.206  0.5240  0.3818  0.4289
   52MOL   H158 9440   2.189   2.355   0.273 -0.0855 -0.5381 -0.5225
   52MOL   H159 9441   2.349   2.334   0.209 -0.5277 -1.6809 -1.5309
   52MOL   H160 9442   2.239   2.069   0.309 -1.6934  1.7933  1.7360
   52MOL   H161 9443   2.052   2.252   0.164 -0.8941  0.4943  1.7477
   52MOL   H162 9444   2.041   2.076   0.147 -0.1881  0.5393  0.7451
   52MOL   H163 9445   2.032   2.157   0.301 -4.0278 -1.0872 -1.9549
   52MOL   C164 9446   2.315   2.094   0.114 -0.7017 -0.5180  0.4306
   52MOL   C165 9447   2.469   2.075   0.126  0.5300 -0.6691 -0.7837
   52MOL   C166 9448   2.508   1.979   0.238 -0.5962  0.3651  0.1661
   52MOL   H167 9449   2.280   1.992   0.098  2.5963 -1.9095  1.5179
   52MOL   H168 9450   2.280   2.150   0.027 -1.6445  0.1381  1.2253
   52MOL   H169 9451   2.515   2.172   0.144  1.5238 -1.4240  0.9781
   52MOL   H170 9452   2.473   2.009   0.336  0.7930  0.8871  0.5068
   52MOL   H171 9453   2.478   1.878   0.211 -1.2809  0.1156  1.8060
   52MOL   H172 9454   2.616   1.974   0.245 -0.5429 -0.8792 -1.2838
   52MOL   C173 9455   2.519   2.026   7.691 -0.2102  0.5145 -0.1710
   52MOL   C174 9456   2.481   2.113   7.568  0.1024 -0.1234  1.3211
   52MOL   C175 9457   2.529   2.259   7.575  0.1558  0.7242  0.3217
   52MOL   H176 9458   2.628   2.029   7.686 -0.0634  2.5286  3.0560
   52MOL   H177 9459   2.481   1.925   7.675  1.5789 -0.8197  3.4411
   52MOL   H178 9460   2.375   2.119   7.542 -0.1938 -0.1610  2.4835
   52MOL   H179 9461   2.487   2.319   7.656  2.5639  3.0149 -0.0702
   52MOL   H180 9462   2.638   2.260   7.576  0.1846 -0.8251  0.6596
   52MOL   H181 9463   2.507   2.310   7.481  0.6868 -1.1509 -0.8562
   52MOL   H182 9464   2.525   2.059   7.484 -3.2467 -3.1642  1.4157
   53MOL     C1 9465   5.637   2.884   6.800 -0.1030  0.0033  0.6519
   53MOL     C2 9466   5.756   2.828   6.728 -0.6239 -0.0155  0.6807
   53MOL     C3 9467   5.697   2.787   6.594  0.3021 -0.1101  0.3401
   53MOL     H4 9468   5.562   2.805   6.800 -0.2246  0.0762 -1.9020
   53MOL     H5 9469   5.616   2.970   6.737 -1.9250  0.2457  1.5752
   53MOL     H6 9470   5.787   2.735   6.777 -0.2635 -0.2314  0.0398
   53MOL     H7 9471   5.777   2.762   6.523 -0.5562 -0.2011 -0.6106
   53MOL     H8 9472   5.633   2.699   6.587 -0.2790  0.1627  1.9726
   53MOL     H9 9473   5.637   2.860   6.539  0.0548 -0.2627  0.4070
   53MOL    H10 9474   5.665   2.898   6.904  1.5120 -1.8890  0.5237
   53MOL    C11 9475   5.873   2.929   6.721 -0.6054  0.1331 -0.1434
   53MOL    C12 9476   5.935   2.978   6.848 -0.3102  0.0807  0.2506
   53MOL    C13 9477   6.032   2.879   6.918 -0.1074  0.2907 -1.2749
   53MOL    H14 9478   5.939   2.879   6.651  0.9509  1.4848  0.3168
   53MOL    H15 9479   5.830   3.013   6.666 -0.4376  0.2074 -0.1578
   53MOL    H16 9480   5.861   2.994   6.926 -0.1226  1.3650  0.1771
   53MOL    H17 9481   6.062   2.905   7.020 -0.6658  1.3967 -1.3825
   53MOL    H18 9482   5.984   2.782   6.932 -0.6909  0.5247 -1.6232
   53MOL    H19 9483   6.117   2.852   6.855  1.0453  0.8570  0.0139
   53MOL    C20 9484   5.989   3.122   6.827  0.6310  0.2136  0.3027
   53MOL    C21 9485   6.048   3.186   6.954 -0.0626 -0.5120 -0.6646
   53MOL    C22 9486   6.117   3.315   6.917 -0.4802  0.4912 -0.2236
   53MOL    H23 9487   6.056   3.131   6.741 -0.7468  1.6552 -0.6430
   53MOL    H24 9488   5.914   3.190   6.787  0.5487  0.0120  0.1150
   53MOL    H25 9489   6.116   3.113   6.998  0.2650  0.0804 -0.1791
   53MOL    H26 9490   6.191   3.288   6.841  0.8978 -1.4322  1.7543
   53MOL    H27 9491   6.050   3.385   6.867 -2.1518  0.5558  2.0194
   53MOL    H28 9492   6.177   3.363   6.995 -2.3091 -0.1518  1.6258
   53MOL    C29 9493   5.930   3.216   7.044  0.0410  0.0138 -0.4496
   53MOL    C30 9494   5.956   3.313   7.165 -0.4512  0.6873 -0.1408
   53MOL    C31 9495   5.826   3.348   7.244  0.2318  0.4718 -1.1942
   53MOL    H32 9496   5.852   3.265   6.985  0.9467  2.7391  0.5101
   53MOL    H33 9497   5.888   3.126   7.089 -1.5667  0.9177 -0.1216
   53MOL    H34 9498   5.996   3.404   7.121 -0.2103 -0.4480 -2.3427
   53MOL    H35 9499   5.757   3.400   7.178  0.1839  1.0123 -0.7286
   53MOL    H36 9500   5.770   3.261   7.276  1.3558 -0.2696 -1.2163
   53MOL    H37 9501   5.843   3.419   7.326  0.3276  1.9880 -2.5063
   53MOL    C38 9502   6.071   3.252   7.261 -0.1804 -0.1197 -0.3370
   53MOL    C39 9503   6.182   3.353   7.295 -0.0221  0.2881 -0.1497
   53MOL    C40 9504   6.126   3.454   7.402  0.4829 -0.0619 -0.6555
   53MOL    H41 9505   6.020   3.217   7.350  0.7092 -3.2857 -0.9990
   53MOL    H42 9506   6.112   3.161   7.218 -3.6844 -2.9895  2.1385
   53MOL    H43 9507   6.194   3.417   7.207 -0.6150  2.6845  1.4655
   53MOL    H44 9508   6.033   3.506   7.380  1.0189  1.1977 -0.0082
   53MOL    H45 9509   6.100   3.397   7.491  2.6507  2.3053  1.5942
   53MOL    H46 9510   6.189   3.535   7.441 -0.0832  0.0643 -0.0009
   53MOL    C47 9511   6.319   3.286   7.340 -0.1068 -0.4227  0.8034
   53MOL    C48 9512   6.431   3.371   7.403  0.4578  0.5910  0.0020
   53MOL    C49 9513   6.521   3.278   7.481  0.4494 -0.2606 -0.1637
   53MOL    H50 9514   6.284   3.207   7.406  1.8445 -1.0687  1.0852
   53MOL    H51 9515   6.366   3.238   7.254 -1.9532 -2.6897  0.9952
   53MOL    H52 9516   6.389   3.453   7.461 -0.1475 -1.2597  2.2807
   53MOL    H53 9517   6.581   3.337   7.551  1.4181 -0.5546 -0.7370
   53MOL    H54 9518   6.467   3.209   7.545  0.4087 -0.1196 -0.0428
   53MOL    H55 9519   6.594   3.228   7.417  1.4352  0.1104  0.6593
   53MOL    C56 9520   6.505   3.440   7.283 -0.3264  0.2137  0.4563
   53MOL    C57 9521   6.620   3.530   7.317  0.5258 -0.0705 -0.0063
   53MOL    C58 9522   6.711   3.558   7.186  0.8058 -0.4024  0.2043
   53MOL    H59 9523   6.552   3.358   7.229 -0.2612  0.5838 -0.0558
   53MOL    H60 9524   6.441   3.499   7.217  1.7061  0.4006 -1.4366
   53MOL    H61 9525   6.678   3.476   7.392  0.1889  0.0589  0.3486
   53MOL    H62 9526   6.654   3.607   7.107  0.3330  0.9215  1.3403
   53MOL    H63 9527   6.802   3.614   7.209  0.2200 -0.1272  1.9351
   53MOL    H64 9528   6.748   3.461   7.154  2.7986 -0.3579  2.2304
   53MOL    C65 9529   6.565   3.666   7.363  0.4726 -0.8616 -0.1537
   53MOL    C66 9530   6.640   3.739   7.479  0.6221  0.5113 -0.1613
   53MOL    C67 9531   6.603   3.886   7.477  0.3829 -0.0952  0.0880
   53MOL    H68 9532   6.536   3.731   7.280  1.0371  1.0166  1.0849
   53MOL    H69 9533   6.462   3.646   7.391  0.1483  3.2540  1.9765
   53MOL    H70 9534   6.747   3.728   7.460  0.8591  1.3828  0.6869
   53MOL    H71 9535   6.654   3.943   7.555  0.2210 -0.7588  0.6830
   53MOL    H72 9536   6.625   3.940   7.386 -0.9574 -1.9244 -1.3636
   53MOL    H73 9537   6.495   3.892   7.491  0.1903 -1.9707 -0.4471
   53MOL    C74 9538   6.610   3.671   7.616  0.7354 -0.2777  0.1681
   53MOL    C75 9539   6.650   3.731   0.054  0.8830 -0.4027  0.4542
   53MOL    C76 9540   6.589   3.650   0.171 -0.2433  0.3623  0.2044
   53MOL    H77 9541   6.501   3.663   7.613  0.5748  1.1755  1.6289
   53MOL    H78 9542   6.648   3.569   7.611 -1.7288 -1.3650  2.5347
   53MOL    H79 9543   6.585   3.818   0.054  2.1677  0.5762  0.8441
   53MOL    H80 9544   6.484   3.627   0.155  0.1256 -0.6646 -0.7891
   53MOL    H81 9545   6.635   3.551   0.173  2.1145  1.4064 -0.5963
   53MOL    H82 9546   6.603   3.685   0.273  1.1413 -0.4417  0.3071
   53MOL    C83 9547   6.804   3.762   0.068  0.4536  0.2833  0.8447
   53MOL    C84 9548   6.904   3.650   0.103  0.1436  0.3958  0.4170
   53MOL    C85 9549   6.986   3.605   7.673  0.0079 -0.2870  0.0899
   53MOL    H86 9550   6.838   3.820   7.680  2.4385  0.0260  1.4372
   53MOL    H87 9551   6.823   3.836   0.146 -0.2174  1.5129 -0.1225
   53MOL    H88 9552   6.849   3.561   0.132 -0.3676 -0.0297 -1.7737
   53MOL    H89 9553   7.061   3.532   0.003 -0.8943 -0.8933  0.9754
   53MOL    H90 9554   6.915   3.580   7.594  0.5498  3.6053 -1.7716
   53MOL    H91 9555   7.049   3.688   7.643  0.2430 -1.4067 -2.7260
   53MOL    C92 9556   6.986   3.686   0.230 -0.0333  0.8050  0.4094
   53MOL    C93 9557   7.113   3.598   0.264  0.6344 -0.7277  0.2277
   53MOL    C94 9558   7.199   3.668   0.366  0.6835  0.3736  0.5025
   53MOL    H95 9559   7.028   3.784   0.207 -0.1652  0.6117 -0.6864
   53MOL    H96 9560   6.926   3.686   0.320  0.4618  2.2804  0.7408
   53MOL    H97 9561   7.162   3.594   0.167 -0.5480 -0.7539 -0.3725
   53MOL    H98 9562   7.138   3.689   0.454  2.7215  1.0116  1.8167
   53MOL    H99 9563   7.292   3.616   0.387 -0.4631 -1.6439  0.6773
   53MOL   H100 9564   7.230   3.767   0.332  1.1925  0.4361  1.1468
   53MOL   C101 9565   7.079   3.451   0.293 -0.2795 -0.2241 -0.6042
   53MOL   C102 9566   7.197   3.358   0.325  0.3287 -0.1695  0.0452
   53MOL   C103 9567   7.149   3.223   0.364  0.0981  0.0682 -0.1716
   53MOL   H104 9568   7.021   3.455   0.385  0.1075  0.4120 -0.3877
   53MOL   H105 9569   7.015   3.411   0.214 -2.3815 -0.3890  1.1382
   53MOL   H106 9570   7.249   3.395   0.413 -0.7013  0.4871  0.3786
   53MOL   H107 9571   7.229   3.158   0.397  0.5547 -0.0323 -1.4577
   53MOL   H108 9572   7.078   3.226   0.447 -3.9808  1.0819 -3.4670
   53MOL   H109 9573   7.102   3.173   0.278  1.3943 -2.6433  0.6542
   53MOL   C110 9574   7.307   3.352   0.210 -0.1773  0.0998 -0.5715
   53MOL   C111 9575   7.435   3.270   0.242  0.2300  0.0658 -0.4589
   53MOL   C112 9576   7.431   3.136   0.172 -0.5422  0.8162  0.2958
   53MOL   H113 9577   7.267   3.316   0.115 -1.1608 -2.1543  0.6283
   53MOL   H114 9578   7.345   3.451   0.187 -0.6228  1.0255  2.3984
   53MOL   H115 9579   7.439   3.249   0.349 -0.5503  0.2735 -0.3822
   53MOL   H116 9580   7.335   3.085   0.184 -0.6581  0.8892 -0.3261
   53MOL   H117 9581   7.444   3.150   0.065 -1.6706  0.7118  0.1308
   53MOL   H118 9582   7.515   3.073   0.203 -0.0326  0.8878 -0.9384
   53MOL   C119 9583   7.568   3.347   0.221 -0.3241  0.1791  0.2051
   53MOL   C120 9584   7.606   3.483   0.288  0.3217  0.4876  0.4282
   53MOL   C121 9585   7.568   3.484   0.437 -0.1163 -0.0771 -0.8809
   53MOL   H122 9586   7.645   3.273   0.240 -0.5370  0.2726  1.4805
   53MOL   H123 9587   7.572   3.371   0.115  0.2172 -1.5753 -0.1803
   53MOL   H124 9588   7.552   3.565   0.242  0.7797 -0.1463 -1.3064
   53MOL   H125 9589   7.470   3.440   0.454  0.9074 -2.1106 -0.1278
   53MOL   H126 9590   7.623   3.400   0.480  1.3820  0.7761 -1.0903
   53MOL   H127 9591   7.578   3.576   0.494  2.4218 -0.1174 -1.2039
   53MOL   C128 9592   0.056   3.513   0.283  0.3507  0.0202  0.3326
   53MOL   C129 9593   0.138   3.507   0.159  0.1905  0.2437  0.0913
   53MOL   C130 9594   0.116   3.636   0.075  0.7992 -0.7736  0.0674
   53MOL   H131 9595   0.088   3.593   0.350  0.1966 -1.0595  1.7341
   53MOL   H132 9596   0.093   3.431   0.346 -0.6356 -1.7410 -1.3395
   53MOL   H133 9597   0.087   3.426   0.107  0.0239  0.4194 -0.0252
   53MOL   H134 9598   0.157   3.633   7.672  1.5044 -1.8518  0.3758
   53MOL   H135 9599   0.012   3.665   0.060  1.2386  0.7731 -0.0705
   53MOL   H136 9600   0.157   3.727   0.118 -2.1963  0.3504  0.6292
   53MOL   C137 9601   0.290   3.497   0.182  0.7593  0.4180  0.4086
   53MOL   C138 9602   0.330   3.347   0.210 -0.4327 -0.8076  0.3134
   53MOL   C139 9603   0.299   3.253   0.097 -0.7087  0.3611 -0.6237
   53MOL   H140 9604   0.351   3.498   0.091 -1.0439 -1.5588 -0.8597
   53MOL   H141 9605   0.326   3.580   0.243  0.5574  0.0979  0.9661
   53MOL   H142 9606   0.264   3.322   0.293  0.2693  0.9206  1.4186
   53MOL   H143 9607   0.334   3.293   0.002 -2.0261 -1.2558 -1.8106
   53MOL   H144 9608   0.346   3.155   0.105 -1.9173 -0.4158 -2.9512
   53MOL   H145 9609   0.193   3.230   0.087 -0.2582 -1.2710 -1.8061
   53MOL   C146 9610   0.473   3.337   0.260  0.4378 -1.0562  0.0880
   53MOL   C147 9611   0.589   3.402   0.180  0.2187  0.0326 -0.3352
   53MOL   C148 9612   0.631   3.533   0.244  0.2907 -0.2571 -0.4360
   53MOL   H149 9613   0.480   3.367   0.365 -1.8103  1.3226 -0.3860
   53MOL   H150 9614   0.496   3.230   0.265  0.1253 -1.0852  1.0768
   53MOL   H151 9615   0.552   3.410   0.077 -1.9622 -1.9578  0.2385
   53MOL   H152 9616   0.682   3.531   0.340  0.2304 -1.1302 -0.4248
   53MOL   H153 9617   0.682   3.606   0.181 -2.4486  1.4688 -0.7711
   53MOL   H154 9618   0.539   3.585   0.272 -0.4138 -0.9132 -1.5085
   53MOL   C155 9619   0.721   3.317   0.177 -0.0496  0.0002 -0.0494
   53MOL   C156 9620   0.710   3.188   0.081  0.4626  0.4777  1.4111
   53MOL   C157 9621   0.681   3.236   7.628  0.6456 -0.2908  0.0764
   53MOL   H158 9622   0.798   3.376   0.129 -1.1626  0.6963 -1.0016
   53MOL   H159 9623   0.740   3.290   0.281  0.8862  0.9598  0.0411
   53MOL   H160 9624   0.622   3.128   0.104 -1.2933  1.5723 -2.1313
   53MOL   H161 9625   0.749   3.321   7.618  2.2719 -1.5533  0.0016
   53MOL   H162 9626   0.727   3.162   7.563  2.3339  1.2554 -0.5326
   53MOL   H163 9627   0.583   3.253   7.584  0.0447 -2.0199  0.7091
   53MOL   C164 9628   0.838   3.102   0.097  0.0584  0.3292 -0.9352
   53MOL   C165 9629   0.849   3.014   0.225  0.1352 -0.5052 -0.5010
   53MOL   C166 9630   0.742   2.896   0.218 -0.1084  0.7213 -0.2249
   53MOL   H167 9631   0.847   3.037   0.009 -3.3719 -1.0658 -0.3573
   53MOL   H168 9632   0.932   3.156   0.098 -0.2895  0.9286 -0.6214
   53MOL   H169 9633   0.838   3.076   0.314  1.5318 -0.4179 -0.3784
   53MOL   H170 9634   0.753   2.837   0.127 -1.7573  0.5599 -0.3200
   53MOL   H171 9635   0.728   2.820   0.295 -1.1850 -0.9557 -2.0429
   53MOL   H172 9636   0.643   2.939   0.210  0.0162  0.8693 -1.0145
   53MOL   C173 9637   0.983   2.941   0.227 -0.5047  0.0037  0.0477
   53MOL   C174 9638   1.035   2.858   0.348 -0.0389 -0.3634  0.2622
   53MOL   C175 9639   1.032   2.943   0.479  0.4943 -0.2696 -0.0017
   53MOL   H176 9640   0.990   2.880   0.137 -0.2839  0.5482 -0.3098
   53MOL   H177 9641   1.060   3.018   0.222 -0.1283 -0.3752  0.0564
   53MOL   H178 9642   1.133   2.816   0.327 -0.5273 -1.5087  0.2388
   53MOL   H179 9643   1.056   3.047   0.455  0.8763 -0.6335 -1.2210
   53MOL   H180 9644   0.929   2.938   0.515 -0.1134  1.7272 -1.3261
   53MOL   H181 9645   1.110   2.909   0.546 -0.7655 -0.5680  1.3371
   53MOL   H182 9646   0.976   2.768   0.368  1.1461 -1.6936 -2.0622
   54MOL     C1 9647   3.502   5.307   6.917  0.0425  0.4410  0.2265
   54MOL     C2 9648   3.633   5.347   6.983 -1.0348 -0.2127  1.2096
   54MOL     C3 9649   3.680   5.482   6.931 -0.3110  0.6402 -0.4863
   54MOL     H4 9650   3.424   5.374   6.951  0.2716  0.9458 -0.2333
   54MOL     H5 9651   3.462   5.208   6.939 -0.4705  0.2099 -1.6405
   54MOL     H6 9652   3.696   5.269   6.941 -2.3568  0.1602 -1.6334
   54MOL     H7 9653   3.691   5.477   6.823  1.7779  1.5718 -0.3461
   54MOL     H8 9654   3.606   5.556   6.960  0.7706  2.1984 -1.6295
   54MOL     H9 9655   3.775   5.512   6.976  0.0480 -0.9353 -0.1515
   54MOL    H10 9656   3.501   5.296   6.808  1.0774 -2.9430  0.5017
   54MOL    C11 9657   3.624   5.337   7.136  0.1142  0.4104 -0.1757
   54MOL    C12 9658   3.749   5.283   7.207 -0.2415  0.1379  0.5954
   54MOL    C13 9659   3.793   5.145   7.153 -0.2373  0.2292  0.6233
   54MOL    H14 9660   3.609   5.434   7.184 -2.7443 -0.4849  0.8771
   54MOL    H15 9661   3.546   5.267   7.168 -0.5888  0.8105 -0.9704
   54MOL    H16 9662   3.705   5.258   7.303 -0.4547 -1.1712  0.1694
   54MOL    H17 9663   3.707   5.080   7.136  0.7411 -0.2582 -2.7656
   54MOL    H18 9664   3.845   5.155   7.058  0.8756  2.4494  1.4446
   54MOL    H19 9665   3.858   5.084   7.216 -0.4661  0.3203  0.9484
   54MOL    C20 9666   3.873   5.372   7.221 -0.3563 -0.2034  0.4899
   54MOL    C21 9667   3.965   5.343   7.341  0.0669  0.1335 -0.0742
   54MOL    C22 9668   4.113   5.382   7.314 -0.9539 -0.7652  0.0206
   54MOL    H23 9669   3.938   5.371   7.133 -0.0565 -1.1065  0.7231
   54MOL    H24 9670   3.840   5.476   7.230 -0.6454 -0.3664  1.2814
   54MOL    H25 9671   3.969   5.234   7.342  3.5421  0.1946  3.0796
   54MOL    H26 9672   4.186   5.348   7.387 -0.7040  0.4977  0.3649
   54MOL    H27 9673   4.138   5.335   7.219 -2.1218  0.3760 -0.8655
   54MOL    H28 9674   4.129   5.490   7.307  0.4040 -1.0022 -0.8397
   54MOL    C29 9675   3.903   5.401   7.468  0.0517  0.3119  0.2535
   54MOL    C30 9676   3.961   5.341   7.599 -0.6429 -0.9246  0.2476
   54MOL    C31 9677   3.912   5.431   0.016 -0.5010 -0.2438 -0.4996
   54MOL    H32 9678   3.922   5.508   7.466 -0.3852  0.3761 -0.6127
   54MOL    H33 9679   3.794   5.393   7.471  0.0673 -0.3230 -0.7793
   54MOL    H34 9680   4.067   5.365   7.593 -1.0745  0.8895 -0.5417
   54MOL    H35 9681   3.962   5.398   0.107 -0.0513  0.1694 -0.5977
   54MOL    H36 9682   3.928   5.538   0.011  2.1804 -0.4640  1.9606
   54MOL    H37 9683   3.811   5.419   0.055  0.0900  0.2031  1.2006
   54MOL    C38 9684   3.936   5.184   7.615 -0.8376  0.0750 -0.3394
   54MOL    C39 9685   4.059   5.097   7.584  0.3841 -0.2779  0.4878
   54MOL    C40 9686   4.186   5.131   7.661  0.5189 -0.0786  0.4204
   54MOL    H41 9687   3.906   5.168   0.021 -3.1756  0.1387 -0.9845
   54MOL    H42 9688   3.851   5.169   7.549 -0.5209 -2.3344 -0.2438
   54MOL    H43 9689   4.082   5.116   7.479 -0.4063  0.7974  0.5000
   54MOL    H44 9690   4.168   5.157   0.068 -0.4920  1.3875 -0.1062
   54MOL    H45 9691   4.266   5.056   7.657  0.2436 -0.3117 -1.1345
   54MOL    H46 9692   4.235   5.218   7.618  0.3760  0.7428  1.8689
   54MOL    C47 9693   4.017   4.950   7.594 -0.3162  0.1704 -0.6467
   54MOL    C48 9694   4.083   4.863   7.483  1.0493 -0.1039 -0.0130
   54MOL    C49 9695   4.015   4.896   7.351 -0.6092  0.2119  0.5512
   54MOL    H50 9696   4.047   4.905   7.689 -0.4714  0.2380 -0.5648
   54MOL    H51 9697   3.909   4.937   7.609 -0.7287  1.9541 -1.9988
   54MOL    H52 9698   4.047   4.761   7.500  0.1645  0.2274  0.0928
   54MOL    H53 9699   3.913   4.932   7.358 -1.2750 -1.4205 -0.3773
   54MOL    H54 9700   4.074   4.975   7.304  0.3190 -0.4940  0.5035
   54MOL    H55 9701   4.025   4.810   7.285 -3.7405 -0.0650  0.3847
   54MOL    C56 9702   4.231   4.875   7.474  0.1733  0.4934  0.2031
   54MOL    C57 9703   4.306   4.759   7.390  0.3882 -0.0105 -0.3983
   54MOL    C58 9704   4.456   4.795   7.378 -0.3829  0.7481 -0.4282
   54MOL    H59 9705   4.261   4.973   7.437  3.1195 -0.4306 -0.0557
   54MOL    H60 9706   4.275   4.843   7.568  2.3652  0.2791 -0.8551
   54MOL    H61 9707   4.271   4.768   7.287  0.4791  0.6432 -0.3746
   54MOL    H62 9708   4.473   4.903   7.376  1.5207  0.4762  0.0082
   54MOL    H63 9709   4.503   4.774   7.474  0.7590  1.6146 -0.7776
   54MOL    H64 9710   4.517   4.751   7.299  3.9768 -0.8458  3.5978
   54MOL    C65 9711   4.274   4.618   7.439 -0.3696  0.0223  0.4890
   54MOL    C66 9712   4.345   4.506   7.352  0.1639  0.1090  0.4637
   54MOL    C67 9713   4.463   4.459   7.429  0.4160  0.3426  0.0309
   54MOL    H68 9714   4.308   4.599   7.541  0.3034 -0.4498  0.1805
   54MOL    H69 9715   4.165   4.605   7.438 -0.4637  0.6843 -1.3262
   54MOL    H70 9716   4.381   4.544   7.257  0.0754  0.9491  0.7577
   54MOL    H71 9717   4.494   4.363   7.388 -0.6710 -0.9372  2.1255
   54MOL    H72 9718   4.540   4.535   7.419  0.7409  0.3378  2.4013
   54MOL    H73 9719   4.431   4.434   7.530  0.5658 -0.2446 -0.0665
   54MOL    C74 9720   4.237   4.392   7.333  0.0795  0.0860 -0.2053
   54MOL    C75 9721   4.119   4.425   7.232 -0.6254 -0.4049 -0.4334
   54MOL    C76 9722   4.170   4.418   7.086  0.6672  0.2083  0.1209
   54MOL    H77 9723   4.292   4.304   7.298 -1.3660 -1.1903  0.6743
   54MOL    H78 9724   4.193   4.364   7.429 -0.7906 -0.5162 -0.7697
   54MOL    H79 9725   4.088   4.528   7.245  0.9099 -0.3247  2.9906
   54MOL    H80 9726   4.253   4.347   7.084  0.2831 -0.2294 -0.5718
   54MOL    H81 9727   4.107   4.381   7.006  2.5594 -0.3571 -1.1405
   54MOL    H82 9728   4.206   4.515   7.050 -1.5819  0.0411 -2.7678
   54MOL    C83 9729   4.002   4.327   7.264 -0.1884 -0.2940 -0.1560
   54MOL    C84 9730   3.859   4.376   7.219  0.5029 -0.0301  0.1222
   54MOL    C85 9731   3.752   4.254   7.216 -0.2029  0.4997 -0.1753
   54MOL    H86 9732   4.028   4.240   7.204  0.5963 -0.4897  0.4617
   54MOL    H87 9733   3.988   4.290   7.366  1.7877 -0.7170 -0.0084
   54MOL    H88 9734   3.868   4.398   7.112  0.1674 -1.8442 -0.3030
   54MOL    H89 9735   3.798   4.170   7.163  3.9318  2.4140  0.2088
   54MOL    H90 9736   3.735   4.211   7.315  3.7147  0.5827  0.6297
   54MOL    H91 9737   3.660   4.286   7.167  0.1113 -2.4174 -2.8418
   54MOL    C92 9738   3.810   4.510   7.277  0.4546  0.5651  0.6139
   54MOL    C93 9739   3.720   4.610   7.193 -0.6426 -0.0899 -0.7118
   54MOL    C94 9740   3.641   4.706   7.281  0.2525  0.4690  0.0634
   54MOL    H95 9741   3.757   4.461   7.359 -0.7585  0.3181 -0.2996
   54MOL    H96 9742   3.891   4.570   7.318 -0.4218  1.7631  0.6247
   54MOL    H97 9743   3.645   4.542   7.152  0.0067 -1.1452 -0.1821
   54MOL    H98 9744   3.547   4.718   7.227 -0.3649  0.8295  1.2099
   54MOL    H99 9745   3.615   4.658   7.376 -0.4132  0.6210 -0.0392
   54MOL   H100 9746   3.689   4.799   7.310  0.7451  0.2897 -0.1591
   54MOL   C101 9747   3.804   4.685   7.080  0.4902  0.3676 -0.3977
   54MOL   C102 9748   3.734   4.742   6.958 -0.0018 -0.2679  0.2793
   54MOL   C103 9749   3.595   4.818   6.982 -0.2468  0.2008  0.1474
   54MOL   H104 9750   3.872   4.757   7.126 -1.0769  0.3994  1.9174
   54MOL   H105 9751   3.868   4.606   7.041  0.4397 -0.6978  1.6149
   54MOL   H106 9752   3.719   4.661   6.886 -0.2749  1.0584 -1.1901
   54MOL   H107 9753   3.550   4.859   6.892 -3.6754  0.8810  2.0771
   54MOL   H108 9754   3.523   4.740   7.006  1.1386 -1.1178  0.1233
   54MOL   H109 9755   3.603   4.891   7.063  0.6696  1.3096 -0.9167
   54MOL   C110 9756   3.820   4.837   6.871 -0.0959 -0.2570 -0.2919
   54MOL   C111 9757   3.969   4.790   6.859 -0.4744  0.1540  0.1592
   54MOL   C112 9758   3.968   4.651   6.785  0.6039  0.2674 -0.0855
   54MOL   H113 9759   3.777   4.826   6.772  0.2488 -0.0798 -0.4631
   54MOL   H114 9760   3.808   4.942   6.896  0.4387 -0.5278  1.1407
   54MOL   H115 9761   4.016   4.772   6.956  0.7321 -1.1388 -0.6324
   54MOL   H116 9762   3.912   4.572   6.834  1.9853  0.0427  1.1767
   54MOL   H117 9763   3.941   4.666   6.680  0.1100 -1.3157 -0.1870
   54MOL   H118 9764   4.071   4.615   6.779  0.0119 -1.4493 -0.0147
   54MOL   C119 9765   4.056   4.896   6.781  0.2478  0.6842  0.0325
   54MOL   C120 9766   4.093   5.032   6.852 -0.0220  1.0319  0.3705
   54MOL   C121 9767   4.132   5.010   7.001 -0.3643 -0.2251  0.3456
   54MOL   H122 9768   4.146   4.840   6.754  0.3595  1.1730 -0.6007
   54MOL   H123 9769   3.993   4.924   6.697 -1.5680 -0.9816  0.8051
   54MOL   H124 9770   3.994   5.079   6.851 -1.9485 -2.8527 -0.6409
   54MOL   H125 9771   4.066   4.946   7.061 -0.4416 -0.8018 -0.3506
   54MOL   H126 9772   4.222   4.950   7.010 -0.6821 -0.4071  2.7294
   54MOL   H127 9773   4.147   5.107   7.049 -1.1168  0.3210 -0.5165
   54MOL   C128 9774   4.197   5.129   6.774 -0.0000 -0.5366 -0.4100
   54MOL   C129 9775   4.126   5.228   6.677  0.5123  0.2424 -0.2530
   54MOL   C130 9776   4.057   5.345   6.749  0.4341  0.2061  0.1800
   54MOL   H131 9777   4.267   5.178   6.841  0.8345  0.1229 -1.7300
   54MOL   H132 9778   4.266   5.069   6.715  1.8934 -0.1278  1.3439
   54MOL   H133 9779   4.037   5.172   6.650  1.5737 -1.3889 -0.4675
   54MOL   H134 9780   4.015   5.415   6.676  2.7906 -1.2599 -2.7028
   54MOL   H135 9781   3.982   5.314   6.821 -0.3349 -0.9396 -1.0932
   54MOL   H136 9782   4.130   5.403   6.806  1.1608  0.3831 -0.9107
   54MOL   C137 9783   4.207   5.264   6.547  0.0140 -0.4058 -0.3512
   54MOL   C138 9784   4.197   5.167   6.428  0.0625 -0.2776 -0.1578
   54MOL   C139 9785   4.281   5.036   6.444 -0.7018 -0.2244 -0.4748
   54MOL   H140 9786   4.180   5.363   6.511 -0.6347  0.0077  1.2668
   54MOL   H141 9787   4.310   5.287   6.576  0.3864  0.1954 -2.0679
   54MOL   H142 9788   4.250   5.210   6.343  1.1736 -2.0244 -0.3675
   54MOL   H143 9789   4.245   4.981   6.530 -2.0549  0.5746 -0.5113
   54MOL   H144 9790   4.283   4.966   6.361  2.4570  0.0464 -0.6714
   54MOL   H145 9791   4.389   5.043   6.452 -0.8026 -1.6510  3.2592
   54MOL   C146 9792   4.055   5.126   6.389  0.7620 -0.3006 -0.4364
   54MOL   C147 9793   3.952   5.243   6.379  0.3060 -0.4941  0.0648
   54MOL   C148 9794   3.987   5.338   6.265 -0.4063  0.4396  0.8054
   54MOL   H149 9795   4.064   5.083   6.290  0.6931 -0.7320 -0.2556
   54MOL   H150 9796   4.015   5.046   6.451 -0.5405  0.7601  0.1367
   54MOL   H151 9797   3.955   5.314   6.461 -3.8387  0.7007 -0.7225
   54MOL   H152 9798   4.013   5.277   6.179 -3.8030  1.1882 -0.8377
   54MOL   H153 9799   3.907   5.408   6.239  0.1321  0.9228  0.4506
   54MOL   H154 9800   4.073   5.401   6.287 -0.7220  0.6198  1.5345
   54MOL   C155 9801   3.809   5.181   6.371  0.2178 -0.1036  0.2802
   54MOL   C156 9802   3.756   5.108   6.498  0.0315 -0.2106 -0.5523
   54MOL   C157 9803   3.711   5.195   6.613 -0.2325 -0.0598 -0.0528
   54MOL   H158 9804   3.733   5.244   6.325  1.4788  0.3734 -1.1931
   54MOL   H159 9805   3.817   5.108   6.290 -1.6846  0.5941 -0.5554
   54MOL   H160 9806   3.829   5.041   6.543 -0.3131  0.1150  0.4953
   54MOL   H161 9807   3.663   5.143   6.695  2.2463 -0.0581  1.4477
   54MOL   H162 9808   3.789   5.251   6.665  0.9530 -0.9571 -0.8575
   54MOL   H163 9809   3.635   5.262   6.571 -2.0328 -2.8874 -1.4846
   54MOL   C164 9810   3.645   5.014   6.442  0.1694 -0.2840  0.3262
   54MOL   C165 9811   3.609   4.886   6.525 -0.4411  0.6473 -0.8175
   54MOL   C166 9812   3.464   4.847   6.503  0.3803 -0.7026  0.8421
   54MOL   H167 9813   3.555   5.074   6.427  0.7852  0.2167 -1.5023
   54MOL   H168 9814   3.679   4.975   6.346 -1.1291  1.2987 -0.8155
   54MOL   H169 9815   3.619   4.902   6.633  0.0735  0.5637 -0.8483
   54MOL   H170 9816   3.441   4.801   6.407 -0.3999  0.9496  0.2096
   54MOL   H171 9817   3.434   4.774   6.578 -2.8893 -1.7706 -1.4098
   54MOL   H172 9818   3.395   4.931   6.516 -0.4139 -1.1697 -0.2393
   54MOL   C173 9819   3.697   4.768   6.485 -0.0058  0.2006  0.0422
   54MOL   C174 9820   3.639   4.631   6.532 -0.4828  0.5832  0.3206
   54MOL   C175 9821   3.733   4.521   6.491  0.1249  0.2227  0.3301
   54MOL   H176 9822   3.728   4.775   6.380  0.2270  0.7180  0.1457
   54MOL   H177 9823   3.796   4.775   6.530 -0.3871  1.7827  0.6392
   54MOL   H178 9824   3.541   4.593   6.503 -0.5351  1.6385 -0.9453
   54MOL   H179 9825   3.685   4.425   6.508  0.2063  0.4578  2.0542
   54MOL   H180 9826   3.767   4.546   6.390  0.3011  0.4772  0.4495
   54MOL   H181 9827   3.825   4.516   6.549 -0.8798 -0.5835  1.8720
   54MOL   H182 9828   3.633   4.636   6.641 -2.1169 -1.9350  0.3876
   55MOL     C1 9829   5.703   1.012   5.397  0.1114  0.0619 -1.1051
   55MOL     C2 9830   5.751   1.114   5.506 -0.1924 -0.1896 -0.4625
   55MOL     C3 9831   5.674   1.240   5.478 -0.3265  0.2203  0.1137
   55MOL     H4 9832   5.757   0.917   5.399 -1.1068 -0.6363 -0.6777
   55MOL     H5 9833   5.693   1.058   5.299  1.2205  0.8668 -0.8596
   55MOL     H6 9834   5.856   1.137   5.487 -0.0437 -1.7304 -1.6341
   55MOL     H7 9835   5.723   1.324   5.527  2.1184 -0.6670 -0.7484
   55MOL     H8 9836   5.677   1.268   5.373  0.6562 -0.2595  0.0037
   55MOL     H9 9837   5.574   1.230   5.521 -1.1541  0.0812 -1.8311
   55MOL    H10 9838   5.606   0.978   5.431  0.3064  1.4013  0.8565
   55MOL    C11 9839   5.729   1.060   5.648 -0.0578 -0.2120 -0.4574
   55MOL    C12 9840   5.815   0.953   5.706 -0.4779  0.2435 -0.5782
   55MOL    C13 9841   5.969   0.989   5.686  0.4069  0.7685  0.1242
   55MOL    H14 9842   5.738   1.150   5.708 -1.9267 -0.5953  0.4153
   55MOL    H15 9843   5.627   1.023   5.659  0.1001 -0.1004  1.5544
   55MOL    H16 9844   5.786   0.865   5.648 -2.4159  0.6608 -0.2717
   55MOL    H17 9845   6.021   0.897   5.711 -0.0133  1.0566  2.1594
   55MOL    H18 9846   5.994   1.013   5.583 -1.4553  1.0917 -0.2725
   55MOL    H19 9847   6.005   1.071   5.748  1.8894 -0.3280  0.7298
   55MOL    C20 9848   5.784   0.926   5.851 -0.3198  0.1037  0.4288
   55MOL    C21 9849   5.865   0.831   5.941 -0.1321  0.5671  0.1965
   55MOL    C22 9850   5.801   0.796   6.073  0.2626  0.0380  0.2620
   55MOL    H23 9851   5.766   1.018   5.907  0.5253 -0.5686  1.8270
   55MOL    H24 9852   5.689   0.873   5.838  0.1804 -1.3966  2.6629
   55MOL    H25 9853   5.967   0.866   5.958 -0.3397  0.7932  0.9798
   55MOL    H26 9854   5.709   0.742   6.051 -0.5629  1.6102 -0.2264
   55MOL    H27 9855   5.864   0.728   6.131  0.2891  1.1266  1.5522
   55MOL    H28 9856   5.786   0.883   6.138  3.1473  0.9436 -0.2143
   55MOL    C29 9857   5.897   0.700   5.857  0.4992 -0.1709 -0.3357
   55MOL    C30 9858   5.992   0.604   5.931  0.2615 -0.2394 -0.0849
   55MOL    C31 9859   5.921   0.484   5.993  0.0096  0.3263 -0.0851
   55MOL    H32 9860   5.810   0.640   5.832  0.0710 -0.0538  0.8629
   55MOL    H33 9861   5.930   0.724   5.756 -0.0135 -2.2582 -1.0252
   55MOL    H34 9862   6.055   0.657   6.002 -1.0154 -0.7832  1.5084
   55MOL    H35 9863   5.982   0.419   6.056  1.1766  1.1234 -0.3783
   55MOL    H36 9864   5.829   0.519   6.040  1.8562  2.4178  2.0967
   55MOL    H37 9865   5.897   0.414   5.914 -1.1878  0.5545  0.0683
   55MOL    C38 9866   6.094   0.547   5.825 -0.4582 -0.0686  0.2823
   55MOL    C39 9867   6.198   0.651   5.760 -0.4433  0.2815 -0.6762
   55MOL    C40 9868   6.304   0.700   5.861 -0.0607 -0.6203 -0.6668
   55MOL    H41 9869   6.152   0.461   5.857 -1.8824 -0.6088  1.4885
   55MOL    H42 9870   6.038   0.506   5.741 -0.3947  0.9222 -0.2597
   55MOL    H43 9871   6.149   0.737   5.714 -0.9100  0.4846  0.1905
   55MOL    H44 9872   6.349   0.622   5.923 -1.5378  0.7556  2.2270
   55MOL    H45 9873   6.382   0.755   5.808  1.4483 -1.7353  0.3419
   55MOL    H46 9874   6.255   0.776   5.921 -0.0494  1.5550 -3.2936
   55MOL    C47 9875   6.277   0.578   5.641  0.0019 -0.2946 -0.1330
   55MOL    C48 9876   6.200   0.536   5.514  0.1613 -0.1216 -0.3202
   55MOL    C49 9877   6.082   0.634   5.468  0.0690  0.2549  0.6787
   55MOL    H50 9878   6.352   0.649   5.606  1.4571 -1.6985  0.0982
   55MOL    H51 9879   6.327   0.491   5.684 -1.9218 -0.7403  1.2927
   55MOL    H52 9880   6.147   0.443   5.534  2.5048 -1.0577  1.9128
   55MOL    H53 9881   6.033   0.673   5.557 -1.4296 -1.3360  0.5785
   55MOL    H54 9882   6.125   0.722   5.420  0.5752 -1.2124 -1.6440
   55MOL    H55 9883   6.014   0.589   5.395  1.3632 -0.7061  0.0419
   55MOL    C56 9884   6.292   0.501   5.397  0.0379 -0.2539  0.1820
   55MOL    C57 9885   6.390   0.381   5.417  0.4568  0.4109  0.0853
   55MOL    C58 9886   6.317   0.245   5.435 -0.0146  0.1586  0.4951
   55MOL    H59 9887   6.231   0.477   5.310 -1.3451  1.5373  0.6120
   55MOL    H60 9888   6.349   0.591   5.371 -1.2700  0.1799 -1.2772
   55MOL    H61 9889   6.449   0.414   5.503  1.3246 -0.4540 -0.1775
   55MOL    H62 9890   6.217   0.243   5.477 -0.6218  0.6624 -0.8858
   55MOL    H63 9891   6.315   0.188   5.342 -1.1874  1.5816 -0.3722
   55MOL    H64 9892   6.375   0.184   5.504  1.3411 -0.8539 -1.4701
   55MOL    C65 9893   6.502   0.366   5.310  0.2825 -0.1138  0.5998
   55MOL    C66 9894   6.624   0.278   5.352 -0.5988 -0.6207  0.7079
   55MOL    C67 9895   6.674   0.199   5.224 -0.0835  0.4143 -0.1646
   55MOL    H68 9896   6.449   0.323   5.225 -1.4814 -0.8408  2.0438
   55MOL    H69 9897   6.539   0.463   5.276 -2.3229  0.7263  0.0723
   55MOL    H70 9898   6.587   0.201   5.420  0.1650 -2.4399 -0.8656
   55MOL    H71 9899   6.715   0.269   5.152  2.0019  0.3897  0.9688
   55MOL    H72 9900   6.756   0.136   5.258  0.5832  2.0168  1.3040
   55MOL    H73 9901   6.598   0.137   5.176  0.9432  1.0206 -2.6693
   55MOL    C74 9902   6.734   0.361   5.433 -0.3191  0.8456 -0.5610
   55MOL    C75 9903   6.841   0.282   5.513 -0.1176 -0.6124  0.1299
   55MOL    C76 9904   6.937   0.388   5.576  0.1617 -0.1077 -0.4467
   55MOL    H77 9905   6.779   0.433   5.364  1.5955  0.2877  0.0662
   55MOL    H78 9906   6.686   0.422   5.509  1.2587  2.0641 -0.5175
   55MOL    H79 9907   6.907   0.233   5.442 -1.1518 -1.2361 -0.4226
   55MOL    H80 9908   7.036   0.357   5.610 -0.0812  0.1144  0.4870
   55MOL    H81 9909   6.952   0.474   5.511 -1.2199  1.3471  1.1104
   55MOL    H82 9910   6.892   0.442   5.659  0.5949 -2.0916  1.1281
   55MOL    C83 9911   6.791   0.175   5.610  0.2568  0.0335  0.0455
   55MOL    C84 9912   6.733   0.201   5.754  0.1752 -0.1964 -0.3155
   55MOL    C85 9913   6.606   0.290   5.748  0.1379 -0.3113 -0.2656
   55MOL    H86 9914   6.730   0.105   5.554 -0.7301  0.8937  0.0370
   55MOL    H87 9915   6.879   0.111   5.622  0.0340  0.0138  1.8470
   55MOL    H88 9916   6.813   0.259   5.799 -0.0503  1.1381 -1.5820
   55MOL    H89 9917   6.565   0.318   5.845 -0.0093 -0.2844 -0.3368
   55MOL    H90 9918   6.618   0.387   5.701  2.6723  0.3430  1.6069
   55MOL    H91 9919   6.529   0.240   5.690 -0.1863  0.2731 -0.3394
   55MOL    C92 9920   6.705   0.069   5.836  0.7869  0.2293  0.2666
   55MOL    C93 9921   6.840   7.694   5.885  0.1324  0.3531  0.3293
   55MOL    C94 9922   6.914   0.071   5.999  0.0212  0.2896  0.3865
   55MOL    H95 9923   6.649   0.089   5.927  1.6559 -0.9832  1.0828
   55MOL    H96 9924   6.638   0.011   5.772  0.0544  1.0584  0.2752
   55MOL    H97 9925   6.895   0.002   5.791 -0.6537 -0.9277 -0.2178
   55MOL    H98 9926   7.008   0.021   6.021  1.0606  2.9793  2.3250
   55MOL    H99 9927   6.934   0.174   5.969 -1.2229  0.1873 -0.8293
   55MOL   H100 9928   6.855   0.086   6.090 -0.1985  2.1628 -0.0501
   55MOL   C101 9929   6.834   7.544   5.915  0.5833 -0.4964  0.1640
   55MOL   C102 9930   6.750   7.452   5.815 -0.6144 -0.8628  0.5391
   55MOL   C103 9931   6.791   7.476   5.671  0.1599 -0.0058 -0.9306
   55MOL   H104 9932   6.931   7.498   5.932  0.3437 -0.8413  0.6059
   55MOL   H105 9933   6.775   7.539   6.006  0.7207  0.0310  0.2848
   55MOL   H106 9934   6.646   7.486   5.818 -1.1773 -2.2900 -1.7552
   55MOL   H107 9935   6.784   7.580   5.638 -4.2005  0.0266 -0.3283
   55MOL   H108 9936   6.893   7.442   5.656 -0.3147 -2.3486  0.8341
   55MOL   H109 9937   6.727   7.418   5.604 -0.7011 -0.5549  0.3461
   55MOL   C110 9938   6.731   7.291   5.847  0.1767  0.2717 -0.0696
   55MOL   C111 9939   6.622   7.246   5.939 -0.6022 -0.2408 -0.0558
   55MOL   C112 9940   6.640   7.310   6.078 -0.5323 -0.1093 -0.0513
   55MOL   H113 9941   6.717   7.243   5.750  0.8797  0.6736 -0.3698
   55MOL   H114 9942   6.828   7.250   5.875 -0.0447  0.0935  0.4572
   55MOL   H115 9943   6.621   7.139   5.958 -1.1816 -0.4721 -1.3653
   55MOL   H116 9944   6.582   7.247   6.146  0.9256 -0.8223  0.5565
   55MOL   H117 9945   6.744   7.306   6.111 -0.6804  0.2454  0.4778
   55MOL   H118 9946   6.598   7.410   6.076 -1.8072 -0.6689 -1.8082
   55MOL   C119 9947   6.467   7.273   5.894 -0.5865  0.0274 -0.3466
   55MOL   C120 9948   6.427   7.228   5.754  0.3393  0.2162 -0.4679
   55MOL   C121 9949   6.417   7.078   5.753 -0.0369 -0.2270 -0.5908
   55MOL   H122 9950   6.406   7.231   5.975  0.8300 -1.3635  0.0210
   55MOL   H123 9951   6.451   7.381   5.895 -0.4535  0.0486  0.6800
   55MOL   H124 9952   6.499   7.265   5.680 -0.9182  2.1276 -0.7779
   55MOL   H125 9953   6.507   7.017   5.746 -0.2764 -0.3920 -2.3840
   55MOL   H126 9954   6.368   7.044   5.844  1.8854 -0.7719  0.2772
   55MOL   H127 9955   6.349   7.057   5.671 -1.8471  2.8711  0.0490
   55MOL   C128 9956   6.290   7.281   5.702  0.3627 -0.3853 -0.0207
   55MOL   C129 9957   6.264   7.436   5.708 -0.0318  0.1437  0.4414
   55MOL   C130 9958   6.376   7.511   5.629 -0.1183  0.1632  0.5853
   55MOL   H131 9959   6.266   7.256   5.599 -1.9672 -0.5348  0.5369
   55MOL   H132 9960   6.206   7.233   5.752 -0.6289 -0.4691 -1.7429
   55MOL   H133 9961   6.257   7.466   5.812 -0.5094  1.6152 -0.0038
   55MOL   H134 9962   6.473   7.489   5.673 -0.3161  0.9254  1.3964
   55MOL   H135 9963   6.380   7.473   5.527  0.0352  1.0213  0.2703
   55MOL   H136 9964   6.369   7.620   5.634  0.7665  0.3485 -1.6423
   55MOL   C137 9965   6.130   7.489   5.653 -0.1006  0.5273  0.2505
   55MOL   C138 9966   6.000   7.457   5.732 -0.3230  0.3628  0.3025
   55MOL   C139 9967   6.017   7.518   5.867 -0.2566  0.0367 -0.1204
   55MOL   H140 9968   6.125   7.598   5.649  1.4144  0.6079  0.2318
   55MOL   H141 9969   6.110   7.468   5.548 -0.0223  1.0958  0.1207
   55MOL   H142 9970   5.986   7.349   5.736  1.0756  0.1365 -0.6399
   55MOL   H143 9971   6.084   7.462   5.933  0.5961  1.2850  0.0939
   55MOL   H144 9972   6.049   7.621   5.853  2.6724 -1.0366 -1.6725
   55MOL   H145 9973   5.919   7.514   5.914 -0.4710  3.1707 -0.1867
   55MOL   C146 9974   5.867   7.518   5.678  0.5516  0.1136 -0.4717
   55MOL   C147 9975   5.827   7.490   5.527  0.4111 -0.3421 -0.0820
   55MOL   C148 9976   5.812   7.331   5.503  0.5939 -0.0285 -0.7271
   55MOL   H149 9977   5.780   7.490   5.737  1.5126 -1.2047  0.3262
   55MOL   H150 9978   5.875   7.627   5.678  0.6975  0.1041 -0.6809
   55MOL   H151 9979   5.914   7.519   5.468 -0.3202  2.2561  0.0348
   55MOL   H152 9980   5.759   7.285   5.587 -0.8148  2.4031 -0.2420
   55MOL   H153 9981   5.762   7.319   5.407  0.2991  0.1821 -0.6016
   55MOL   H154 9982   5.910   7.284   5.495  1.5337  2.3356 -3.8793
   55MOL   C155 9983   5.701   7.561   5.470 -0.7789 -0.0200  0.2755
   55MOL   C156 9984   5.715   0.018   5.430  0.2135 -0.3115 -0.0991
   55MOL   C157 9985   5.828   0.045   5.333  0.1876  0.1507 -0.0686
   55MOL   H158 9986   5.678   7.515   5.374 -2.0153 -2.6565  1.7666
   55MOL   H159 9987   5.607   7.547   5.523 -1.7318 -0.3986 -1.4541
   55MOL   H160 9988   5.732   0.067   5.526  0.3383  2.8669 -1.6787
   55MOL   H161 9989   5.922   0.003   5.370 -0.0926 -1.2335 -0.8833
   55MOL   H162 9990   5.809   7.690   5.239 -0.2543 -0.7477  0.5214
   55MOL   H163 9991   5.849   0.151   5.324  0.0942  0.2422  0.7310
   55MOL   C164 9992   5.576   0.080   5.383  0.5307  0.0674 -0.3434
   55MOL   C165 9993   5.568   0.228   5.346  0.1052 -1.4282  0.4795
   55MOL   C166 9994   5.426   0.269   5.302 -0.6276 -0.3321  0.0019
   55MOL   H167 9995   5.544   0.029   5.292 -0.0171 -0.9792  0.4233
   55MOL   H168 9996   5.497   0.048   5.450 -1.7857  1.1386 -2.4934
   55MOL   H169 9997   5.640   0.243   5.266  0.3118 -0.3073  0.8644
   55MOL   H170 9998   5.416   0.370   5.262 -0.3663 -0.5895 -0.7208
   55MOL   H171 9999   5.383   0.194   5.236 -1.4408 -1.0554  1.3280
   55MOL   H17210000   5.352   0.272   5.382 -1.4441  1.4847 -0.7725
   55MOL   C17310001   5.619   0.322   5.456  0.6563  0.2938 -0.3736
   55MOL   C17410002   5.629   0.467   5.421  0.2327  0.2810  0.7056
   55MOL   C17510003   5.719   0.545   5.516  0.1147 -0.3354 -0.2007
   55MOL   H17610004   5.561   0.315   5.548  0.5049 -2.5136 -0.6450
   55MOL   H17710005   5.718   0.298   5.495  0.3173 -1.4704 -0.5620
   55MOL   H17810006   5.533   0.517   5.407  0.4220  0.2034 -1.0124
   55MOL   H17910007   5.817   0.497   5.523  0.2787 -0.1119 -0.9138
   55MOL   H18010008   5.744   0.639   5.465  2.6588 -0.5926  0.4899
   55MOL   H18110009   5.676   0.550   5.616  0.1324 -2.8087 -0.0388
   55MOL   H18210010   5.681   0.466   5.325 -0.1169 -1.3792  0.5250
   56MOL     C110011   0.072   3.759   1.728  0.1228 -0.2166 -0.0668
   56MOL     C210012   0.191   3.781   1.812  0.5410  0.1281  0.1544
   56MOL     C310013   0.218   3.668   1.916  0.1263  0.1693 -0.4250
   56MOL     H410014   0.014   3.844   1.694  0.5987  0.7691  1.5158
   56MOL     H510015   7.696   3.696   1.778 -1.8888  0.1338 -2.4890
   56MOL     H610016   0.169   3.864   1.880 -2.9916 -1.8123  1.5283
   56MOL     H710017   0.243   3.571   1.872 -1.2423 -0.2534 -0.3102
   56MOL     H810018   0.304   3.702   1.974 -0.5188 -0.9928  1.2494
   56MOL     H910019   0.138   3.660   1.989 -0.2781  2.0545 -0.6469
   56MOL    H1010020   0.092   3.692   1.645  1.3787  1.4806 -1.1686
   56MOL    C1110021   0.318   3.801   1.735 -0.2151  0.4396 -0.8337
   56MOL    C1210022   0.322   3.921   1.628 -0.1317 -0.2231 -0.0575
   56MOL    C1310023   0.323   4.057   1.705  0.4580  0.3176 -0.2880
   56MOL    H1410024   0.402   3.814   1.804  0.5413 -0.3994 -1.5866
   56MOL    H1510025   0.338   3.707   1.685  0.7107 -0.3200  0.9135
   56MOL    H1610026   0.229   3.916   1.572 -0.8319 -2.8472  1.2959
   56MOL    H1710027   0.423   4.075   1.744 -0.6483 -0.7677  3.2395
   56MOL    H1810028   0.294   4.127   1.626 -2.2620  0.3639  0.6913
   56MOL    H1910029   0.244   4.061   1.780 -1.7297 -0.3175 -2.4564
   56MOL    C2010030   0.439   3.916   1.527  0.2872 -0.2298  0.4909
   56MOL    C2110031   0.404   3.805   1.415 -0.0042 -0.3966 -0.1035
   56MOL    C2210032   0.290   3.864   1.333  0.3395 -0.5263 -0.4106
   56MOL    H2310033   0.457   4.015   1.485 -1.7210 -1.1268 -2.6935
   56MOL    H2410034   0.538   3.892   1.565  0.5064 -0.5206 -0.2495
   56MOL    H2510035   0.377   3.713   1.467 -0.9626  0.4475  0.9436
   56MOL    H2610036   0.197   3.816   1.362  0.7772 -1.4707 -0.5574
   56MOL    H2710037   0.281   3.971   1.352 -1.2761 -0.1344 -3.0744
   56MOL    H2810038   0.298   3.859   1.224  1.0023 -0.9663 -0.3442
   56MOL    C2910039   0.526   3.776   1.325  0.0951  0.1536  0.0482
   56MOL    C3010040   0.637   3.670   1.373  0.4030  0.0338  1.0471
   56MOL    C3110041   0.603   3.531   1.315  0.7648 -0.1114  0.5191
   56MOL    H3210042   0.486   3.738   1.231  1.1642 -0.0302 -0.3418
   56MOL    H3310043   0.561   3.875   1.297 -2.1073  1.1810  0.7268
   56MOL    H3410044   0.634   3.671   1.482 -1.8739  0.9530  1.0176
   56MOL    H3510045   0.500   3.508   1.340  0.8055 -1.0374 -0.1411
   56MOL    H3610046   0.614   3.529   1.207 -1.1286 -0.3216  0.3099
   56MOL    H3710047   0.663   3.456   1.368  0.6337  1.1886  2.5593
   56MOL    C3810048   0.772   3.717   1.334 -0.5256 -0.4509 -0.6333
   56MOL    C3910049   0.896   3.639   1.383  0.4042  0.0110  0.1320
   56MOL    C4010050   1.015   3.656   1.289 -0.9107 -0.2337  0.4764
   56MOL    H4110051   0.773   3.724   1.226  0.8993 -0.0180 -0.5984
   56MOL    H4210052   0.772   3.823   1.358  0.9740 -0.0486 -2.3184
   56MOL    H4310053   0.859   3.536   1.380 -4.4557  1.6431 -0.3931
   56MOL    H4410054   1.093   3.581   1.296 -0.9831 -0.6209 -2.2297
   56MOL    H4510055   0.975   3.652   1.187 -0.0092  0.6091  0.0803
   56MOL    H4610056   1.066   3.752   1.291 -2.3702  0.5330  2.3629
   56MOL    C4710057   0.923   3.661   1.531  0.1956 -0.2854 -0.1246
   56MOL    C4810058   0.999   3.552   1.606  0.0884 -0.4537  1.0448
   56MOL    C4910059   1.127   3.626   1.662  0.6966  0.6912 -0.3070
   56MOL    H5010060   0.964   3.760   1.547 -0.9835  0.0527  0.8475
   56MOL    H5110061   0.830   3.678   1.586  0.3565  1.1051 -0.2630
   56MOL    H5210062   1.029   3.477   1.534  2.0900  1.0971  0.2008
   56MOL    H5310063   1.187   3.555   1.717  0.3920 -0.1088 -0.9930
   56MOL    H5410064   1.194   3.653   1.580  0.5010  0.7985 -0.4335
   56MOL    H5510065   1.099   3.714   1.720  0.3391  1.8479 -2.1828
   56MOL    C5610066   0.926   3.471   1.721  0.4197 -0.5905 -0.1623
   56MOL    C5710067   0.818   3.381   1.650 -0.2608 -0.3599 -0.5174
   56MOL    C5810068   0.869   3.255   1.595  0.5362  0.0902  0.0289
   56MOL    H5910069   0.993   3.398   1.767  1.4497  1.0388  0.9487
   56MOL    H6010070   0.890   3.539   1.797  1.9796 -0.7621  0.7546
   56MOL    H6110071   0.760   3.432   1.573 -1.7818  0.2660  1.0097
   56MOL    H6210072   0.916   3.272   1.498  1.0502 -0.1753  0.2284
   56MOL    H6310073   0.956   3.219   1.651  1.0155  1.4141  0.1663
   56MOL    H6410074   0.803   3.170   1.578  0.8137 -0.1492  0.1355
   56MOL    C6510075   0.724   3.340   1.772  0.7900  0.4392  0.2441
   56MOL    C6610076   0.635   3.441   1.852  0.6257 -0.0849 -0.1046
   56MOL    C6710077   0.537   3.497   1.742  0.2217 -0.2974 -0.2171
   56MOL    H6810078   0.666   3.253   1.741  0.2814 -0.1806  2.7971
   56MOL    H6910079   0.793   3.285   1.835 -0.4951 -0.2576  1.0756
   56MOL    H7010080   0.694   3.522   1.894 -1.1556  1.8165 -1.1844
   56MOL    H7110081   0.460   3.429   1.707  0.0919 -0.4415  0.3370
   56MOL    H7210082   0.473   3.574   1.786 -2.2926 -0.6656 -3.1117
   56MOL    H7310083   0.591   3.535   1.655 -1.3014 -0.4508 -1.2483
   56MOL    C7410084   0.557   3.388   1.976 -1.0328 -0.1110  0.7483
   56MOL    C7510085   0.648   3.314   2.082 -0.1479  0.6966  0.2567
   56MOL    C7610086   0.722   3.410   2.181 -0.1923 -0.1481 -0.2682
   56MOL    H7710087   0.504   3.473   2.017 -2.6355  0.0368 -1.4958
   56MOL    H7810088   0.483   3.318   1.936  0.4806 -0.0670 -2.3200
   56MOL    H7910089   0.733   3.263   2.035  0.5479  0.9029  1.2624
   56MOL    H8010090   0.795   3.467   2.125 -0.8663 -1.2002 -2.2595
   56MOL    H8110091   0.650   3.477   2.229  0.2810 -0.6577  1.1566
   56MOL    H8210092   0.787   3.367   2.257  1.9080  2.0511 -0.7449
   56MOL    C8310093   0.561   3.218   2.166 -0.5313 -0.0740 -0.1024
   56MOL    C8410094   0.631   3.133   2.274  0.2372  0.2883  0.1995
   56MOL    C8510095   0.519   3.077   2.365 -0.0569 -0.1928 -0.0950
   56MOL    H8610096   0.470   3.267   2.199  0.3651  0.5142  1.5624
   56MOL    H8710097   0.517   3.154   2.090  0.0107 -2.2029  1.3211
   56MOL    H8810098   0.697   3.190   2.338 -1.3975  1.6383  0.7138
   56MOL    H8910099   0.446   3.015   2.314  1.6724 -0.6425 -2.0910
   56MOL    H9010100   0.556   3.008   2.441  3.7022  0.7411 -0.9618
   56MOL    H9110101   0.467   3.155   2.421  2.4168 -0.9690  3.4817
   56MOL    C9210102   0.711   3.012   2.216  1.0695  0.2530 -0.2991
   56MOL    C9310103   0.816   2.954   2.305 -0.6009  0.2846  0.2296
   56MOL    C9410104   0.864   2.814   2.257 -0.0919  0.3570  0.1731
   56MOL    H9510105   0.641   2.941   2.173 -1.2066  0.3216  3.1241
   56MOL    H9610106   0.757   3.067   2.133 -0.9111  2.3554 -0.0798
   56MOL    H9710107   0.770   2.949   2.404  0.8428  1.9438  1.0108
   56MOL    H9810108   0.780   2.747   2.276  0.5085 -0.3815  0.2364
   56MOL    H9910109   0.883   2.836   2.152  2.2325 -0.4329  0.4044
   56MOL   H10010110   0.953   2.766   2.297 -0.3533 -0.3282 -0.0727
   56MOL   C10110111   0.935   3.051   2.324 -0.3818 -0.4640  0.2300
   56MOL   C10210112   0.988   3.062   2.467 -0.3028  0.5244 -0.0876
   56MOL   C10310113   1.032   2.929   2.523 -0.1210 -0.3085 -0.1020
   56MOL   H10410114   1.017   3.033   2.254  0.2662 -1.8976  1.3056
   56MOL   H10510115   0.899   3.148   2.290 -0.0397 -0.3472  0.1931
   56MOL   H10610116   0.909   3.084   2.539 -0.9655  0.5246 -0.8017
   56MOL   H10710117   1.061   2.935   2.628  2.0132  0.2452 -0.7052
   56MOL   H10810118   0.952   2.854   2.522 -0.8323  0.4463 -0.2532
   56MOL   H10910119   1.117   2.885   2.472  0.3411  0.6520 -0.1595
   56MOL   C11010120   1.108   3.159   2.478  1.2226  0.0685 -0.3006
   56MOL   C11110121   1.090   3.304   2.442 -0.3938 -0.4673  0.1088
   56MOL   C11210122   1.011   3.375   2.560 -0.0768  0.8025  0.2413
   56MOL   H11310123   1.153   3.156   2.577  1.1326 -0.4828 -0.2757
   56MOL   H11410124   1.184   3.123   2.409  0.2989 -1.7259 -0.4088
   56MOL   H11510125   1.038   3.310   2.346  0.8667 -0.8874 -0.6125
   56MOL   H11610126   1.073   3.451   2.607 -0.9035 -0.3804  3.3828
   56MOL   H11710127   0.928   3.434   2.522  2.2923  3.3273 -1.1785
   56MOL   H11810128   0.961   3.317   2.638 -1.3877 -0.8216 -1.7250
   56MOL   C11910129   1.229   3.379   2.425  0.2096 -0.3148  0.2867
   56MOL   C12010130   1.225   3.517   2.364 -0.0495  0.3025  0.5513
   56MOL   C12110131   1.285   3.625   2.451 -0.2883  0.1653 -0.4128
   56MOL   H12210132   1.281   3.383   2.521  0.8173 -2.2055  0.0552
   56MOL   H12310133   1.293   3.312   2.367 -1.8457 -0.7954 -1.5140
   56MOL   H12410134   1.119   3.533   2.344  0.2440  0.6180 -0.8424
   56MOL   H12510135   1.381   3.593   2.493 -0.6280 -0.5399 -0.1718
   56MOL   H12610136   1.304   3.721   2.402  1.0278 -0.0321 -0.3133
   56MOL   H12710137   1.220   3.650   2.534  0.1861  2.5673 -0.7250
   56MOL   C12810138   1.272   3.542   2.221 -0.0713  0.2709 -0.1235
   56MOL   C12910139   1.180   3.472   2.116 -0.2541 -0.0400  0.0128
   56MOL   C13010140   1.071   3.572   2.088 -0.4461 -0.0086 -0.1602
   56MOL   H13110141   1.287   3.649   2.206  0.8524 -0.3297 -4.3122
   56MOL   H13210142   1.374   3.503   2.225  0.3284  1.1977 -0.9001
   56MOL   H13310143   1.154   3.373   2.155 -1.8606  0.4244  0.1555
   56MOL   H13410144   1.002   3.526   2.016 -0.9739 -2.1596  1.6802
   56MOL   H13510145   1.007   3.582   2.175  0.5229  0.9466  0.4478
   56MOL   H13610146   1.094   3.675   2.060 -0.9037  0.1965  0.2207
   56MOL   C13710147   1.261   3.441   1.989  0.4867 -0.1599  0.1594
   56MOL   C13810148   1.349   3.320   1.972  0.0327 -0.8343 -0.3783
   56MOL   C13910149   1.285   3.194   2.033 -0.7028  0.3858  0.1515
   56MOL   H14010150   1.193   3.462   1.907  0.0196 -1.4494  0.2186
   56MOL   H14110151   1.330   3.526   1.983 -1.5194  1.4894 -0.2249
   56MOL   H14210152   1.440   3.345   2.027  0.0654 -0.3226 -0.6625
   56MOL   H14310153   1.200   3.162   1.973  0.6961 -0.2744 -1.5208
   56MOL   H14410154   1.357   3.114   2.017 -1.9551 -0.6646 -0.2639
   56MOL   H14510155   1.260   3.195   2.139 -1.0611 -2.2261  0.1246
   56MOL   C14610156   1.381   3.298   1.822  0.1272  0.4790 -0.4363
   56MOL   C14710157   1.512   3.364   1.772  0.6096  0.3002  0.2069
   56MOL   C14810158   1.642   3.295   1.831 -0.0777  0.9167 -0.1860
   56MOL   H14910159   1.386   3.195   1.788  2.7570  1.0209 -1.7997
   56MOL   H15010160   1.298   3.338   1.763  1.1971  2.6424 -0.5229
   56MOL   H15110161   1.513   3.466   1.811 -0.4529  0.5396 -0.3820
   56MOL   H15210162   1.625   3.268   1.935 -0.7904 -0.7910 -0.7226
   56MOL   H15310163   1.673   3.204   1.780  2.3486 -0.3905  3.4199
   56MOL   H15410164   1.718   3.372   1.823  0.9057  0.1391  1.5131
   56MOL   C15510165   1.527   3.365   1.618  0.4621 -0.2976 -0.0171
   56MOL   C15610166   1.440   3.464   1.536 -0.5622 -0.4974  0.1751
   56MOL   C15710167   1.477   3.611   1.552 -1.2404  0.1995 -0.0905
   56MOL   H15810168   1.632   3.382   1.596  0.8833  2.5572  3.7469
   56MOL   H15910169   1.510   3.267   1.573 -0.4448  0.6341 -1.7438
   56MOL   H16010170   1.341   3.448   1.580 -0.7862 -1.1725 -0.5776
   56MOL   H16110171   1.569   3.639   1.501 -1.5406  0.5894 -0.4215
   56MOL   H16210172   1.394   3.665   1.506  1.6758  2.0932 -3.3684
   56MOL   H16310173   1.472   3.632   1.659  0.2719 -1.0943  0.2510
   56MOL   C16410174   1.437   3.430   1.388 -0.7905 -0.0426  0.1556
   56MOL   C16510175   1.389   3.297   1.334  0.1219  0.4866  0.3044
   56MOL   C16610176   1.254   3.248   1.389  0.1424 -0.9421  0.0415
   56MOL   H16710177   1.379   3.505   1.334  0.4885  1.6433  1.0336
   56MOL   H16810178   1.542   3.441   1.358 -0.1259 -2.4701  1.5001
   56MOL   H16910179   1.475   3.234   1.356  0.3161  0.6341 -0.0240
   56MOL   H17010180   1.173   3.320   1.379 -0.1583 -0.9064  2.4150
   56MOL   H17110181   1.242   3.150   1.343 -1.4002 -0.4377 -0.6552
   56MOL   H17210182   1.269   3.231   1.496  1.8514  0.6311  0.0894
   56MOL   C17310183   1.383   3.286   1.182 -0.4814 -0.5746 -0.0703
   56MOL   C17410184   1.513   3.247   1.110  0.3341  0.5840  0.0642
   56MOL   C17510185   1.542   3.099   1.107 -0.8080 -0.2867  0.3986
   56MOL   H17610186   1.306   3.219   1.147  1.0176 -2.3316 -0.0669
   56MOL   H17710187   1.341   3.383   1.155  0.5261 -0.0240  0.3061
   56MOL   H17810188   1.591   3.291   1.172 -1.4331  3.0422  0.6153
   56MOL   H17910189   1.483   3.045   1.034  0.8566 -2.6601  0.7673
   56MOL   H18010190   1.647   3.090   1.081 -0.4187  2.4644  0.8633
   56MOL   H18110191   1.526   3.052   1.204  0.9275 -0.7011  0.4912
   56MOL   H18210192   1.515   3.292   1.011  0.6022 -0.6122 -0.4774
   57MOL     C110193   6.813   0.792   1.764  0.2044 -0.1536 -0.0200
   57MOL     C210194   6.719   0.794   1.645  0.1907  0.2787  0.4640
   57MOL     C310195   6.617   0.680   1.670  0.0057 -0.1994  0.6212
   57MOL     H410196   6.768   0.809   1.862  0.7429 -2.6981  0.7147
   57MOL     H510197   6.894   0.864   1.766  1.3778 -1.4840  2.6628
   57MOL     H610198   6.767   0.781   1.548 -2.5019  1.0535 -1.0251
   57MOL     H710199   6.650   0.579   1.650 -1.6848 -1.2246  2.7998
   57MOL     H810200   6.589   0.694   1.774 -0.1717  1.6818  0.3453
   57MOL     H910201   6.525   0.721   1.627 -0.1450  1.4628  2.4666
   57MOL    H1010202   6.853   0.690   1.764 -0.9549 -0.6139 -0.3908
   57MOL    C1110203   6.655   0.936   1.624 -0.0702 -0.1655 -0.2305
   57MOL    C1210204   6.708   1.013   1.494 -0.3358  0.3296 -0.0826
   57MOL    C1310205   6.653   0.960   1.364 -0.7333  0.5147  0.1342
   57MOL    H1410206   6.546   0.937   1.632  0.0305  0.3261  1.1946
   57MOL    H1510207   6.675   0.998   1.712  1.8336  1.5784 -1.8468
   57MOL    H1610208   6.813   0.988   1.484 -0.6873 -0.2062 -2.8716
   57MOL    H1710209   6.666   0.854   1.341  0.7094  0.8162 -0.5015
   57MOL    H1810210   6.544   0.966   1.364 -0.8165 -0.4491  2.2828
   57MOL    H1910211   6.688   1.003   1.271 -1.5581 -1.0371 -0.9169
   57MOL    C2010212   6.690   1.164   1.504 -0.0967  0.4123 -0.6942
   57MOL    C2110213   6.797   1.225   1.593 -0.5041 -0.4782 -0.0179
   57MOL    C2210214   6.935   1.227   1.514  0.1165 -0.1329 -0.5943
   57MOL    H2310215   6.709   1.216   1.410 -2.6511  0.7382 -1.0501
   57MOL    H2410216   6.589   1.182   1.541  0.6438  1.7958  0.6802
   57MOL    H2510217   6.806   1.153   1.675 -0.5017 -0.6970 -0.2107
   57MOL    H2610218   6.964   1.125   1.488  0.5412 -0.3469  0.7077
   57MOL    H2710219   6.934   1.284   1.421 -2.0118  1.0135  0.0807
   57MOL    H2810220   7.021   1.261   1.571 -0.0546  0.7134 -0.8256
   57MOL    C2910221   6.753   1.364   1.652  0.1297  0.2841 -0.7552
   57MOL    C3010222   6.655   1.360   1.771  0.3339 -0.0509  0.1147
   57MOL    C3110223   6.700   1.281   1.898 -0.3116  0.0365 -0.3439
   57MOL    H3210224   6.840   1.423   1.681  0.5300 -0.6559  0.0047
   57MOL    H3310225   6.707   1.421   1.572  0.4356  2.3468  0.5063
   57MOL    H3410226   6.564   1.317   1.729  0.7959  2.2997 -3.6128
   57MOL    H3510227   6.793   1.322   1.936 -0.8505 -0.9006  2.0620
   57MOL    H3610228   6.629   1.273   1.980  1.7309  1.4500  1.5867
   57MOL    H3710229   6.721   1.184   1.853  1.3643  0.6866 -1.0186
   57MOL    C3810230   6.614   1.503   1.819  0.9214  0.6470 -0.7888
   57MOL    C3910231   6.475   1.506   1.900 -0.4699 -0.2809 -0.0051
   57MOL    C4010232   6.486   1.560   2.038  0.2479  0.8891 -0.6548
   57MOL    H4110233   6.694   1.533   1.887 -1.1082  1.5412  1.2982
   57MOL    H4210234   6.614   1.578   1.741 -1.3051  1.1264 -0.3649
   57MOL    H4310235   6.439   1.407   1.930  0.0467 -1.2964 -2.5994
   57MOL    H4410236   6.550   1.500   2.102 -0.3106  0.6530 -0.3175
   57MOL    H4510237   6.543   1.653   2.028  3.6069 -1.1190 -1.0925
   57MOL    H4610238   6.391   1.583   2.085  0.3348  0.2801 -0.1813
   57MOL    C4710239   6.355   1.597   1.831  0.2521 -0.1920  0.8466
   57MOL    C4810240   6.293   1.542   1.703 -0.1238 -0.4844 -0.2463
   57MOL    C4910241   6.159   1.617   1.677 -0.3112  0.2647 -0.4924
   57MOL    H5010242   6.275   1.592   1.904 -1.3973 -0.3813 -0.9517
   57MOL    H5110243   6.385   1.701   1.815  0.0582 -0.3890 -0.9361
   57MOL    H5210244   6.273   1.436   1.722 -1.6809  0.0672  1.2649
   57MOL    H5310245   6.104   1.574   1.593 -2.0069  1.4414 -0.0177
   57MOL    H5410246   6.108   1.637   1.771  2.1401 -1.4575  1.2706
   57MOL    H5510247   6.190   1.719   1.652  1.7847  0.7946  3.9698
   57MOL    C5610248   6.378   1.546   1.579 -0.4590 -0.0041 -0.1515
   57MOL    C5710249   6.317   1.480   1.454  0.0751  0.6435  0.3071
   57MOL    C5810250   6.439   1.483   1.354  0.6900 -0.3460 -0.3491
   57MOL    H5910251   6.401   1.652   1.563 -0.5563 -0.1047 -0.9815
   57MOL    H6010252   6.476   1.501   1.595 -0.3236  0.5061  0.5047
   57MOL    H6110253   6.234   1.544   1.424  1.7222  1.7027 -2.1767
   57MOL    H6210254   6.414   1.455   1.251  0.0148 -1.9109  0.2282
   57MOL    H6310255   6.476   1.585   1.347 -1.8980  0.5430 -1.5719
   57MOL    H6410256   6.519   1.414   1.382 -0.3396 -1.6406 -0.5353
   57MOL    C6510257   6.272   1.339   1.485 -0.0664  0.9008 -0.5300
   57MOL    C6610258   6.213   1.260   1.362  0.3470  0.3597  0.1861
   57MOL    C6710259   6.205   1.113   1.393  0.2974 -0.2435 -0.0562
   57MOL    H6810260   6.352   1.273   1.518  0.4128  2.1431  0.8025
   57MOL    H6910261   6.189   1.347   1.555  1.2437 -0.6787  1.2569
   57MOL    H7010262   6.290   1.268   1.286  1.9690  0.7986  1.8371
   57MOL    H7110263   6.124   1.087   1.462 -1.4122  1.3756 -1.4051
   57MOL    H7210264   6.198   1.051   1.304 -0.5163  0.4066 -0.4488
   57MOL    H7310265   6.292   1.067   1.441  0.4854 -1.2861 -1.3724
   57MOL    C7410266   6.075   1.321   1.327 -0.4980  0.9022 -0.1699
   57MOL    C7510267   6.051   1.323   1.181 -0.6521  0.1280  0.4093
   57MOL    C7610268   5.903   1.357   1.158  0.4299 -0.0759  0.2351
   57MOL    H7710269   5.994   1.265   1.373 -0.7845  0.0902 -1.6392
   57MOL    H7810270   6.058   1.420   1.369  0.0165 -0.2477  2.8853
   57MOL    H7910271   6.079   1.227   1.138 -0.7319  0.1046  0.4095
   57MOL    H8010272   5.865   1.437   1.221  2.0240  1.1800 -0.3836
   57MOL    H8110273   5.883   1.376   1.053 -0.4195  0.3035  0.4665
   57MOL    H8210274   5.840   1.271   1.184  4.2314 -2.8063  0.9383
   57MOL    C8310275   6.133   1.432   1.105  0.1977  0.0797 -0.4382
   57MOL    C8410276   6.224   1.383   0.988 -0.3216  0.0674  0.0497
   57MOL    C8510277   6.144   1.321   0.874 -0.5262 -0.4002 -0.6057
   57MOL    H8610278   6.075   1.519   1.076 -0.2321  0.2065  0.7681
   57MOL    H8710279   6.195   1.485   1.178 -1.9069  0.3210  1.2312
   57MOL    H8810280   6.289   1.309   1.034  0.7249  0.6203 -0.5173
   57MOL    H8910281   6.091   1.235   0.916 -0.2938 -0.1926  0.1242
   57MOL    H9010282   6.080   1.392   0.820 -2.0305 -0.7870  0.6200
   57MOL    H9110283   6.215   1.276   0.805  2.4505 -0.5036  2.4078
   57MOL    C9210284   6.309   1.503   0.942 -0.5982  0.5145 -0.2733
   57MOL    C9310285   6.462   1.471   0.934 -0.7825  0.3524 -0.2776
   57MOL    C9410286   6.490   1.356   0.830 -0.2685 -0.0732 -0.1258
   57MOL    H9510287   6.275   1.539   0.844 -2.4832 -0.6888 -0.0775
   57MOL    H9610288   6.303   1.584   1.015 -2.1468 -0.6419  0.8914
   57MOL    H9710289   6.489   1.439   1.035  4.0446  3.6238 -0.3691
   57MOL    H9810290   6.441   1.382   0.736  1.8236 -0.6294 -1.4068
   57MOL    H9910291   6.595   1.327   0.826 -0.1944  0.4147 -2.5996
   57MOL   H10010292   6.441   1.270   0.875  2.5744 -0.4856  2.3613
   57MOL   C10110293   6.547   1.602   0.917 -0.0327  0.1392  0.3067
   57MOL   C10210294   6.697   1.591   0.951 -0.9847 -0.1955  0.1017
   57MOL   C10310295   6.763   1.721   0.892  0.1969 -0.0985  0.0084
   57MOL   H10410296   6.549   1.630   0.812  4.2120 -0.6289  0.1035
   57MOL   H10510297   6.507   1.685   0.976 -2.3348 -1.2860  0.8248
   57MOL   H10610298   6.737   1.505   0.898  0.6632 -0.4162  1.6632
   57MOL   H10710299   6.760   1.709   0.784 -0.1315  0.6264 -0.0615
   57MOL   H10810300   6.720   1.818   0.915  1.4447  1.0433 -2.3114
   57MOL   H10910301   6.866   1.719   0.929 -0.2588 -0.1047  1.2877
   57MOL   C11010302   6.739   1.569   1.104  0.1450 -0.8384  0.4223
   57MOL   C11110303   6.881   1.522   1.112 -0.2434 -0.3420  0.7241
   57MOL   C11210304   6.938   1.567   1.248  0.6581 -0.0758 -0.1980
   57MOL   H11310305   6.732   1.666   1.155  2.1800  0.3106 -1.3900
   57MOL   H11410306   6.678   1.501   1.163  0.4257 -1.6831 -0.2599
   57MOL   H11510307   6.951   1.558   1.037  0.6262 -1.5279  0.9426
   57MOL   H11610308   6.924   1.673   1.270 -1.3854 -0.4288  0.3739
   57MOL   H11710309   6.896   1.503   1.326 -0.3989 -1.9789 -2.2842
   57MOL   H11810310   7.045   1.550   1.240  0.4435 -0.7559 -1.7130
   57MOL   C11910311   6.884   1.368   1.081  0.1783  0.1158  0.1962
   57MOL   C12010312   7.020   1.304   1.123 -0.1791 -0.1855  0.4916
   57MOL   C12110313   7.006   1.152   1.099  0.0636  0.1169  0.2471
   57MOL   H12210314   6.816   1.311   1.145  0.9212  0.7130  1.5433
   57MOL   H12310315   6.846   1.343   0.982 -0.1098  1.1964  0.0215
   57MOL   H12410316   7.031   1.328   1.229  1.1402 -2.5677  0.9287
   57MOL   H12510317   6.908   1.115   1.131  0.2353 -0.9439 -0.4209
   57MOL   H12610318   7.019   1.113   0.998 -0.0197 -1.5847  0.8778
   57MOL   H12710319   7.091   1.103   1.147 -0.2969  0.6792  1.4770
   57MOL   C12810320   7.140   1.375   1.059 -0.1023 -0.5845 -0.8211
   57MOL   C12910321   7.276   1.316   1.103 -0.0966 -0.3093 -0.0990
   57MOL   C13010322   7.382   1.389   1.011 -0.1809 -0.2038  0.1874
   57MOL   H13110323   7.128   1.378   0.950  0.0693 -2.1094 -0.8887
   57MOL   H13210324   7.147   1.482   1.078  2.9334 -1.0747  1.1388
   57MOL   H13310325   7.274   1.207   1.092  1.7264 -0.4837  1.1544
   57MOL   H13410326   7.369   1.363   0.906  3.7238  0.2253 -0.4596
   57MOL   H13510327   7.391   1.496   1.033 -0.1119 -0.0388 -0.6020
   57MOL   H13610328   7.480   1.345   1.027  0.2462  0.7311  0.1843
   57MOL   C13710329   7.299   1.356   1.247  0.2100  0.5647  0.1224
   57MOL   C13810330   7.417   1.294   1.329  0.4621 -0.5565 -0.1547
   57MOL   C13910331   7.410   1.365   1.469 -0.1810 -0.3220  0.4847
   57MOL   H14010332   7.301   1.464   1.259 -0.5397  0.5168  0.7621
   57MOL   H14110333   7.216   1.335   1.314  0.7871  2.0052  1.3172
   57MOL   H14210334   7.510   1.324   1.282 -0.7539  1.8863 -1.1436
   57MOL   H14310335   7.321   1.353   1.530 -1.4175 -0.0421 -1.2377
   57MOL   H14410336   7.488   1.318   1.529  0.9420  3.1171  1.7962
   57MOL   H14510337   7.445   1.467   1.459 -1.5371  0.1133  0.1085
   57MOL   C14610338   7.405   1.137   1.343 -0.3857 -0.9566 -0.7384
   57MOL   C14710339   7.530   1.062   1.295  0.7193 -0.0568 -0.0833
   57MOL   C14810340   7.665   1.107   1.365 -0.1348 -0.1191  0.2262
   57MOL   H14910341   7.392   1.111   1.448  1.3889  0.2657 -0.2018
   57MOL   H15010342   7.320   1.094   1.290 -1.4590 -2.4614  2.0809
   57MOL   H15110343   7.535   1.094   1.191  1.1573 -0.4851 -0.1977
   57MOL   H15210344   0.050   1.042   1.337 -0.5872 -0.6303  0.0751
   57MOL   H15310345   7.694   1.209   1.341  2.8487 -0.8361  0.6534
   57MOL   H15410346   7.660   1.111   1.473 -2.3563  0.2409  0.1447
   57MOL   C15510347   7.511   0.912   1.290  0.9625  0.8712  0.6855
   57MOL   C15610348   7.432   0.856   1.168  0.4997 -0.4923 -0.3238
   57MOL   C15710349   7.506   0.882   1.035 -0.6382  0.2619  0.4850
   57MOL   H15810350   7.603   0.853   1.297 -0.7462 -1.7161  2.7393
   57MOL   H15910351   7.459   0.889   1.384  1.6502 -0.1233  0.8345
   57MOL   H16010352   7.343   0.918   1.162  0.0331 -1.0125  1.0509
   57MOL   H16110353   7.449   0.836   0.954  0.0650  0.6140 -0.2111
   57MOL   H16210354   7.528   0.985   1.008  1.5873 -0.4348 -0.4338
   57MOL   H16310355   7.601   0.828   1.035  0.8951  2.8768  1.5315
   57MOL   C16410356   7.394   0.709   1.174 -0.3046 -0.4891 -0.4421
   57MOL   C16510357   7.260   0.681   1.106  0.9305 -0.2761  0.0284
   57MOL   C16610358   7.238   0.530   1.090 -0.0204 -0.2519 -0.4083
   57MOL   H16710359   7.471   0.657   1.117 -1.3700 -2.9438  0.3298
   57MOL   H16810360   7.406   0.682   1.278 -0.1258  2.5256  0.3795
   57MOL   H16910361   7.273   0.736   1.013 -0.4431 -0.8071 -0.4819
   57MOL   H17010362   7.235   0.486   1.189 -3.2858 -1.0572 -0.8265
   57MOL   H17110363   7.152   0.505   1.028  0.0774 -0.8978 -0.2824
   57MOL   H17210364   7.334   0.493   1.053  0.3858 -0.2290  0.6137
   57MOL   C17310365   7.134   0.741   1.183  0.0209  0.5886 -0.5282
   57MOL   C17410366   7.014   0.783   1.089 -0.6880 -0.4853  0.8178
   57MOL   C17510367   6.879   0.805   1.157  0.2524 -0.4242  0.0813
   57MOL   H17610368   7.084   0.679   1.258  0.0487  1.4897  0.2554
   57MOL   H17710369   7.156   0.839   1.226  2.0897 -0.8007  1.6784
   57MOL   H17810370   7.017   0.705   1.013 -0.6495  1.0228 -0.7838
   57MOL   H17910371   6.848   0.735   1.235  1.2851 -0.1200  0.7706
   57MOL   H18010372   6.877   0.905   1.200 -0.7367  0.3052 -1.5928
   57MOL   H18110373   6.796   0.820   1.088 -1.5831  1.0935  2.5304
   57MOL   H18210374   7.050   0.876   1.044 -3.1274  0.1627  0.1177
   58MOL     C110375   4.824   6.105   0.301  0.1294  0.2987  0.5362
   58MOL     C210376   4.829   6.161   0.161  0.5938 -0.1523  0.0106
   58MOL     C310377   4.881   6.310   0.159 -0.3843  0.0245 -0.8701
   58MOL     H410378   4.744   6.032   0.315  0.7028 -0.3011  0.7257
   58MOL     H510379   4.803   6.185   0.372 -1.1077 -0.0713  0.5944
   58MOL     H610380   4.729   6.172   0.119  0.0151  0.3255  1.4954
   58MOL     H710381   4.985   6.295   0.188 -0.1875  1.4113 -0.8268
   58MOL     H810382   4.874   6.360   0.063 -0.0600  2.5598  0.3923
   58MOL     H910383   4.822   6.374   0.225  0.4800 -0.3804  0.3097
   58MOL    H1010384   4.924   6.075   0.334  0.5182  0.6805 -0.2866
   58MOL    C1110385   4.890   6.069   0.052 -0.2033 -0.5553  0.0042
   58MOL    C1210386   4.840   5.922   0.016  0.4770 -0.5358  0.0558
   58MOL    C1310387   4.686   5.920   7.661  0.5708 -0.3790  0.4059
   58MOL    H1410388   4.901   6.129   7.658  2.2249 -2.6213 -1.0966
   58MOL    H1510389   4.994   6.063   0.081 -0.4618 -0.7547  0.9044
   58MOL    H1610390   4.838   5.875   0.114 -2.2725  0.4246  0.5143
   58MOL    H1710391   4.676   5.984   7.573 -0.4531  1.0115  1.4995
   58MOL    H1810392   4.650   5.825   7.623  1.6323  0.0216 -1.6947
   58MOL    H1910393   4.614   5.974   0.025 -0.8195 -2.7193  0.8796
   58MOL    C2010394   4.924   5.830   7.624 -0.4004  0.6214 -0.4399
   58MOL    C2110395   5.078   5.832   7.667  0.7835 -0.0992 -0.1749
   58MOL    C2210396   5.099   5.781   0.112 -0.5021 -0.3403  0.3781
   58MOL    H2310397   4.889   5.728   7.634  0.3767  0.0633 -3.1078
   58MOL    H2410398   4.911   5.861   7.520 -0.7603  0.5283 -0.4220
   58MOL    H2510399   5.100   5.939   7.666 -0.6068  0.1950 -0.2538
   58MOL    H2610400   5.034   5.823   0.189  0.1454  0.8697  0.2746
   58MOL    H2710401   5.085   5.673   0.120  2.8503 -0.8022  0.5665
   58MOL    H2810402   5.201   5.794   0.148 -0.5212  3.3368 -0.6700
   58MOL    C2910403   5.162   5.746   7.563  0.1124 -0.6969 -0.4689
   58MOL    C3010404   5.315   5.766   7.556 -0.7646  0.1172  0.0035
   58MOL    C3110405   5.374   5.647   7.477 -0.1714  0.7261  0.6449
   58MOL    H3210406   5.143   5.640   7.580  1.2251 -1.0913 -1.6213
   58MOL    H3310407   5.128   5.768   7.462  2.2478  1.8837 -0.6818
   58MOL    H3410408   5.359   5.749   7.654 -1.4697 -0.0431  0.2948
   58MOL    H3510409   5.482   5.656   7.478 -0.1525  1.2197 -2.0953
   58MOL    H3610410   5.347   5.550   7.518  0.7633  1.4579  3.0998
   58MOL    H3710411   5.337   5.640   7.375 -0.0253 -4.5957  0.8622
   58MOL    C3810412   5.360   5.903   7.495  0.1396 -0.0630  0.1466
   58MOL    C3910413   5.506   5.951   7.516 -0.3546 -0.2892 -0.6809
   58MOL    C4010414   5.602   5.920   7.399  0.0943  0.1333  0.0698
   58MOL    H4110415   5.316   5.925   7.398 -2.5310 -1.8243  0.8809
   58MOL    H4210416   5.299   5.979   7.545  0.4442  0.3372 -0.0854
   58MOL    H4310417   5.539   5.891   7.601 -1.7053  0.7250  0.5909
   58MOL    H4410418   5.708   5.944   7.410  0.0687 -0.5621  1.9024
   58MOL    H4510419   5.589   5.817   7.367 -2.6294  0.2372  0.6629
   58MOL    H4610420   5.570   5.985   7.317  0.4250  1.5901  1.0835
   58MOL    C4710421   5.513   6.102   7.534  0.4161 -0.1999 -0.6202
   58MOL    C4810422   5.572   6.148   7.667  0.5722 -0.4354 -0.1383
   58MOL    C4910423   5.715   6.184   7.663  0.3314  0.3511  0.8820
   58MOL    H5010424   5.577   6.150   7.459 -0.6008  1.8288 -0.2272
   58MOL    H5110425   5.418   6.149   7.506  0.1379 -0.9218 -0.8850
   58MOL    H5210426   5.566   6.066   0.041  2.4515 -0.8440 -0.4245
   58MOL    H5310427   5.781   6.103   7.634 -1.5664 -0.3377 -1.5907
   58MOL    H5410428   5.732   6.267   7.595  2.2158 -0.2136  0.6476
   58MOL    H5510429   5.741   6.222   0.065 -0.5512  3.9430 -0.1668
   58MOL    C5610430   5.498   6.264   0.027  0.4277 -0.0218  0.5053
   58MOL    C5710431   5.345   6.237   0.047 -0.4928  0.2553  0.0051
   58MOL    C5810432   5.318   6.110   0.133 -0.0491 -0.1318  0.1126
   58MOL    H5910433   5.547   6.288   0.122  1.1477  0.9403 -0.1068
   58MOL    H6010434   5.506   6.358   7.671  0.0614 -1.7720 -2.7304
   58MOL    H6110435   5.293   6.236   7.648 -0.5616 -3.2403  0.0280
   58MOL    H6210436   5.320   6.015   0.079  0.3877 -1.5333  2.5452
   58MOL    H6310437   5.392   6.101   0.212 -0.1584 -3.8844 -0.1361
   58MOL    H6410438   5.218   6.115   0.176  0.5649  1.3093  1.4086
   58MOL    C6510439   5.282   6.362   0.116  0.3939  0.0042 -0.1046
   58MOL    C6610440   5.280   6.506   0.048 -0.8422  0.5412 -0.3576
   58MOL    C6710441   5.145   6.564   0.036  0.0571  0.0276  0.7320
   58MOL    H6810442   5.179   6.341   0.146  1.2481  0.4646  3.2790
   58MOL    H6910443   5.332   6.370   0.212 -2.9525 -0.6768  1.8034
   58MOL    H7010444   5.308   6.490   7.641  0.5127  0.1153  0.0570
   58MOL    H7110445   5.075   6.498   7.682 -0.3191  0.6126  0.4903
   58MOL    H7210446   5.104   6.597   0.131  3.2463 -1.2257  2.6241
   58MOL    H7310447   5.155   6.656   7.676  1.0941 -0.8088 -0.4637
   58MOL    C7410448   5.374   6.608   0.106 -0.2698  0.1141  0.0057
   58MOL    C7510449   5.528   6.588   0.095 -0.2038 -0.7717 -0.0241
   58MOL    C7610450   5.567   6.632   7.648  0.4865 -0.4819  0.2899
   58MOL    H7710451   5.369   6.709   0.065 -0.4688 -0.1216 -0.5486
   58MOL    H7810452   5.348   6.612   0.212 -1.8457 -0.0187 -0.3593
   58MOL    H7910453   5.558   6.486   0.122 -1.5821 -0.4624  2.9956
   58MOL    H8010454   5.520   6.563   7.578 -2.3233  1.8236 -0.1714
   58MOL    H8110455   5.549   6.735   7.617 -1.3298 -0.5987  0.8943
   58MOL    H8210456   5.674   6.612   7.641  1.2237  2.3838  2.1790
   58MOL    C8310457   5.598   6.680   0.199  1.0591  0.3993 -0.2375
   58MOL    C8410458   5.751   6.656   0.207 -0.3627  0.5891 -0.4818
   58MOL    C8510459   5.818   6.788   0.220  0.5392  0.1278 -0.0982
   58MOL    H8610460   5.573   6.780   0.161  1.1179  1.0674  1.4213
   58MOL    H8710461   5.551   6.675   0.297  0.7187  1.6451 -0.3212
   58MOL    H8810462   5.790   6.605   0.119 -0.1929 -0.9660  0.4774
   58MOL    H8910463   5.760   6.858   0.281 -0.0783  0.2210 -0.7944
   58MOL    H9010464   5.918   6.783   0.263  0.9000 -0.0841 -0.9548
   58MOL    H9110465   5.824   6.837   0.123 -1.7379  1.8617  0.5908
   58MOL    C9210466   5.790   6.573   0.327  0.8757 -0.2796  0.1519
   58MOL    C9310467   5.928   6.504   0.330 -0.6008  0.1064  0.1320
   58MOL    C9410468   5.965   6.463   0.472  0.1228  0.1777 -0.2252
   58MOL    H9510469   5.777   6.641   0.411  1.3806  0.0803 -0.0607
   58MOL    H9610470   5.713   6.497   0.343  1.2148 -1.4382 -3.3284
   58MOL    H9710471   6.005   6.570   0.290  0.2082  0.3056  2.0131
   58MOL    H9810472   5.925   6.367   0.504 -1.6543  1.2469  0.8559
   58MOL    H9910473   6.073   6.453   0.480  0.0160 -1.0898 -0.2262
   58MOL   H10010474   5.949   6.539   0.548  0.4057 -0.5173  0.5418
   58MOL   C10110475   5.932   6.386   0.235 -0.4293 -0.3166  0.1405
   58MOL   C10210476   6.073   6.320   0.227  0.4888  0.2892 -0.8156
   58MOL   C10310477   6.042   6.177   0.166 -0.3102 -0.0468  0.3388
   58MOL   H10410478   5.866   6.308   0.273  1.6908 -1.7526  0.9865
   58MOL   H10510479   5.895   6.400   0.134  0.6016  1.3739 -0.0244
   58MOL   H10610480   6.123   6.311   0.323 -2.1716 -1.7631  0.4637
   58MOL   H10710481   6.135   6.120   0.168 -0.1497  0.0771 -1.7053
   58MOL   H10810482   5.967   6.119   0.220  0.2229  1.1138  2.3518
   58MOL   H10910483   6.007   6.175   0.063 -1.0535  0.2135  0.5845
   58MOL   C11010484   6.154   6.408   0.131  0.2958 -0.1750  0.1028
   58MOL   C11110485   6.303   6.360   0.100 -0.2519  0.3104  0.3865
   58MOL   C11210486   6.366   6.440   7.687 -0.9332  0.0832 -0.3264
   58MOL   H11310487   6.094   6.403   0.040 -0.2733 -0.0199  0.4653
   58MOL   H11410488   6.158   6.512   0.163  0.3837 -0.1505  0.0103
   58MOL   H11510489   6.304   6.254   0.073 -0.5305  0.0438  1.3796
   58MOL   H11610490   6.463   6.398   7.657 -0.7893 -0.8316  1.3539
   58MOL   H11710491   6.299   6.448   7.602 -1.4452  1.7997  0.2095
   58MOL   H11810492   6.389   6.543   0.018  1.4845 -0.0569 -1.5880
   58MOL   C11910493   6.389   6.359   0.228 -0.6855  0.2215 -0.2537
   58MOL   C12010494   6.395   6.223   0.308  0.1439 -0.1150 -0.2651
   58MOL   C12110495   6.486   6.129   0.224 -0.3226  0.8482 -0.3086
   58MOL   H12210496   6.490   6.389   0.201 -0.0428  1.2479  2.9883
   58MOL   H12310497   6.346   6.435   0.295 -1.2602 -1.1368  0.9454
   58MOL   H12410498   6.299   6.172   0.311  0.2227 -0.2269  0.4387
   58MOL   H12510499   6.445   6.112   0.124  1.3450 -0.0773 -0.8549
   58MOL   H12610500   6.587   6.169   0.216  0.8326 -1.5383  1.7011
   58MOL   H12710501   6.509   6.034   0.272  1.0230  1.0099 -0.6272
   58MOL   C12810502   6.441   6.236   0.447 -0.3039 -0.3479 -0.5963
   58MOL   C12910503   6.337   6.300   0.544  0.0883 -0.5356  0.0491
   58MOL   C13010504   6.211   6.206   0.574 -0.0195 -0.1844  1.1120
   58MOL   H13110505   6.481   6.145   0.490 -1.1392 -0.8628 -0.8960
   58MOL   H13210506   6.526   6.304   0.437  0.8705 -1.9667 -1.8329
   58MOL   H13310507   6.293   6.386   0.494  1.8027  0.1524 -0.2907
   58MOL   H13410508   6.173   6.218   0.675 -1.3848  3.2466  0.2685
   58MOL   H13510509   6.125   6.228   0.511  0.7652  1.2152  0.5140
   58MOL   H13610510   6.233   6.100   0.564  2.3659  0.3265  0.7037
   58MOL   C13710511   6.396   6.372   0.677  0.0776 -0.5541  0.0143
   58MOL   C13810512   6.304   6.467   0.750 -0.3531  0.9873  0.2794
   58MOL   C13910513   6.293   6.421   0.900  0.5260 -0.0351 -0.1364
   58MOL   H14010514   6.443   6.301   0.745  2.8865  0.7960 -0.4440
   58MOL   H14110515   6.487   6.425   0.647 -0.0441 -1.1841 -1.5093
   58MOL   H14210516   6.209   6.441   0.703 -0.0858 -0.9394  0.7713
   58MOL   H14310517   6.370   6.444   0.973  0.5808  1.9827 -0.8086
   58MOL   H14410518   6.199   6.458   0.939 -0.2649  0.3979 -2.3940
   58MOL   H14510519   6.275   6.313   0.898 -0.1833  0.0928 -0.7705
   58MOL   C14610520   6.342   6.612   0.736 -0.1996  0.3166  0.3712
   58MOL   C14710521   6.222   6.713   0.740 -0.2613  0.5076 -0.2951
   58MOL   C14810522   6.173   6.745   0.883 -0.1538 -0.4037 -0.5923
   58MOL   H14910523   6.425   6.642   0.801 -2.1033  2.3470  1.9728
   58MOL   H15010524   6.380   6.620   0.634 -3.2381 -0.6339 -0.8950
   58MOL   H15110525   6.139   6.667   0.685  0.3854  0.6941 -1.4526
   58MOL   H15210526   6.122   6.841   0.881  1.7597  0.7656  2.9861
   58MOL   H15310527   6.106   6.666   0.917  0.8876 -1.5886 -1.2171
   58MOL   H15410528   6.252   6.754   0.958 -1.0272  1.2784  0.1509
   58MOL   C15510529   6.264   6.841   0.669  0.2435 -0.0302 -0.1811
   58MOL   C15610530   6.296   6.832   0.518 -1.3069 -0.2402  0.1344
   58MOL   C15710531   6.214   6.742   0.426  0.2259 -0.5581 -0.4077
   58MOL   H15810532   6.185   6.913   0.689 -1.6658 -2.5971  1.8591
   58MOL   H15910533   6.347   6.889   0.721  0.1488  0.7917 -0.7680
   58MOL   H16010534   6.398   6.792   0.513 -1.8510 -1.3958 -2.0768
   58MOL   H16110535   6.118   6.790   0.407  0.4031  0.0488  0.2125
   58MOL   H16210536   6.262   6.735   0.329  2.9365  2.1270  0.6399
   58MOL   H16310537   6.196   6.644   0.469 -1.1177 -0.3588 -0.4869
   58MOL   C16410538   6.289   6.979   0.454 -0.3690  0.4210 -0.3320
   58MOL   C16510539   6.358   6.998   0.318  0.0974 -0.4021  0.4018
   58MOL   C16610540   6.335   7.152   0.279  0.3019 -0.4149 -0.3143
   58MOL   H16710541   6.183   7.002   0.441 -0.4716 -0.6385 -1.4343
   58MOL   H16810542   6.334   7.050   0.524 -0.2786 -2.0444  2.2276
   58MOL   H16910543   6.309   6.930   0.248  0.6313 -0.3050 -0.0637
   58MOL   H17010544   6.383   7.225   0.344  0.6107 -1.7694  1.0088
   58MOL   H17110545   6.366   7.166   0.175 -0.0078 -3.3850 -0.8580
   58MOL   H17210546   6.227   7.165   0.290  0.2571  0.0324 -1.2071
   58MOL   C17310547   6.511   6.975   0.324 -0.2031  0.2672  0.1193
   58MOL   C17410548   6.566   6.929   0.190  0.9612  0.0123  0.2740
   58MOL   C17510549   6.720   6.901   0.216  0.5561 -0.0277 -0.5655
   58MOL   H17610550   6.570   7.062   0.352  2.4565 -1.1066 -0.9908
   58MOL   H17710551   6.532   6.893   0.392 -0.2926  0.2211  0.0917
   58MOL   H17810552   6.558   7.004   0.111 -0.1618  0.5138  0.8631
   58MOL   H17910553   6.774   6.995   0.229 -0.2149  0.6096 -1.8545
   58MOL   H18010554   6.744   6.841   0.304  1.6895 -1.0059 -1.5135
   58MOL   H18110555   6.765   6.862   0.124 -1.7868 -1.1424 -1.2918
   58MOL   H18210556   6.510   6.840   0.159  0.9818  0.0220  0.2089
   59MOL     C110557   3.332   4.259   3.114  0.2092 -0.0493 -0.4518
   59MOL     C210558   3.394   4.171   3.226  0.0663  0.6307 -0.4862
   59MOL     C310559   3.424   4.038   3.156 -0.8689 -0.4828 -0.1876
   59MOL     H410560   3.338   4.364   3.143  0.8945 -0.5879  1.4218
   59MOL     H510561   3.235   4.214   3.092  0.7903 -0.6992 -1.8021
   59MOL     H610562   3.321   4.158   3.307  0.7400 -1.8372 -0.2322
   59MOL     H710563   3.460   3.968   3.231  0.9736  0.5088 -0.1242
   59MOL     H810564   3.339   4.000   3.099 -0.5883 -0.6488 -0.4968
   59MOL     H910565   3.498   4.056   3.079 -1.8832  0.3601 -0.9848
   59MOL    H1010566   3.390   4.249   3.022 -0.5047  1.3880 -1.0713
   59MOL    C1110567   3.532   4.218   3.272 -0.3005 -0.1401  0.0163
   59MOL    C1210568   3.585   4.154   3.403 -0.3169  0.0548  0.2546
   59MOL    C1310569   3.722   4.214   3.429 -0.3628 -0.6031  0.6764
   59MOL    H1410570   3.601   4.227   3.188 -2.7356 -0.3375 -2.0430
   59MOL    H1510571   3.528   4.324   3.297 -1.9664 -0.2609  0.2890
   59MOL    H1610572   3.607   4.051   3.374  1.6160  0.8872 -1.4149
   59MOL    H1710573   3.714   4.305   3.488  0.9709  0.0602 -0.1306
   59MOL    H1810574   3.782   4.140   3.481 -0.6435 -0.0212  1.8312
   59MOL    H1910575   3.774   4.242   3.337 -0.0017  2.8463  1.8610
   59MOL    C2010576   3.492   4.150   3.521  0.6088 -0.9424 -0.4655
   59MOL    C2110577   3.549   4.090   3.653 -0.5126  0.6162 -0.3357
   59MOL    C2210578   3.451   4.098   3.772  0.3676 -0.5987  0.8303
   59MOL    H2310579   3.463   4.253   3.542 -0.8781 -1.3045 -0.6396
   59MOL    H2410580   3.402   4.092   3.498 -2.1895  2.8729  0.4235
   59MOL    H2510581   3.634   4.153   3.680  1.8384 -3.4975  2.4288
   59MOL    H2610582   3.358   4.045   3.751  0.0340  0.6218 -0.9105
   59MOL    H2710583   3.489   4.058   3.866 -1.0750  0.1220  1.7464
   59MOL    H2810584   3.406   4.195   3.793 -1.6072 -1.2888 -0.0355
   59MOL    C2910585   3.621   3.951   3.647 -0.7158  0.0257  0.1032
   59MOL    C3010586   3.540   3.829   3.586 -0.0437  0.3499 -0.2884
   59MOL    C3110587   3.639   3.706   3.603 -0.3661  0.1128 -0.2088
   59MOL    H3210588   3.699   3.969   3.573 -0.0419  0.7882  0.9919
   59MOL    H3310589   3.659   3.925   3.746 -0.1897  1.2539  0.2303
   59MOL    H3410590   3.550   3.847   3.479  0.5090 -2.1833 -0.6957
   59MOL    H3510591   3.736   3.734   3.561 -0.2442 -0.5871 -0.4157
   59MOL    H3610592   3.668   3.676   3.704 -0.8693 -1.0382 -0.3892
   59MOL    H3710593   3.595   3.616   3.559 -2.1296  0.2455  1.2341
   59MOL    C3810594   3.394   3.806   3.624 -0.0480  0.2105 -0.6203
   59MOL    C3910595   3.330   3.676   3.560 -0.2405  0.3162  0.0301
   59MOL    C4010596   3.206   3.642   3.632 -0.0818  0.9232 -0.6202
   59MOL    H4110597   3.394   3.803   3.732  1.5786  2.9353 -0.4980
   59MOL    H4210598   3.335   3.891   3.590 -1.0629  0.5301  1.8653
   59MOL    H4310599   3.392   3.589   3.579 -0.7339  0.2379  1.3196
   59MOL    H4410600   3.125   3.714   3.636 -0.4635  0.6121 -2.3309
   59MOL    H4510601   3.160   3.549   3.600 -1.2198  1.8226 -1.6569
   59MOL    H4610602   3.232   3.617   3.735  1.3708  0.3661 -1.1058
   59MOL    C4710603   3.314   3.697   3.406  0.2991 -0.0658  0.3333
   59MOL    C4810604   3.240   3.581   3.327  0.0405 -0.5896 -0.2637
   59MOL    C4910605   3.217   3.636   3.177  0.6931 -0.1017 -0.1146
   59MOL    H5010606   3.270   3.790   3.370  0.6765 -0.5954 -1.5612
   59MOL    H5110607   3.415   3.705   3.365  0.0032 -1.1943 -0.6257
   59MOL    H5210608   3.138   3.569   3.362  0.6575 -1.5736  1.2586
   59MOL    H5310609   3.307   3.648   3.117  1.0078 -1.6074  0.0284
   59MOL    H5410610   3.143   3.577   3.122  1.3030 -2.2149  1.2660
   59MOL    H5510611   3.176   3.737   3.171 -0.8148 -0.6134  1.0569
   59MOL    C5610612   3.326   3.445   3.329  0.8596  0.1065  0.4231
   59MOL    C5710613   3.250   3.309   3.290  0.4764  0.0421 -0.0080
   59MOL    C5810614   3.328   3.223   3.184 -0.3157 -0.0922 -0.9193
   59MOL    H5910615   3.407   3.466   3.258  1.0387  1.3833  0.9911
   59MOL    H6010616   3.375   3.421   3.423 -1.1721 -2.5986  0.8356
   59MOL    H6110617   3.163   3.345   3.235  1.8452  2.2153 -0.8572
   59MOL    H6210618   3.264   3.153   3.130  2.4617 -1.9847 -1.8811
   59MOL    H6310619   3.366   3.287   3.104  1.6657  1.6635  1.3423
   59MOL    H6410620   3.407   3.168   3.234  0.1097 -0.8889 -2.4313
   59MOL    C6510621   3.205   3.223   3.410 -0.3718 -0.1091 -0.0851
   59MOL    C6610622   3.115   3.104   3.385 -0.1288  0.6735  0.1122
   59MOL    C6710623   3.111   3.005   3.496 -0.0622  0.2703  0.4790
   59MOL    H6810624   3.297   3.185   3.455 -0.4256  0.2555  0.3288
   59MOL    H6910625   3.155   3.288   3.481 -0.9593 -0.0038 -0.5917
   59MOL    H7010626   3.160   3.051   3.301  1.9236 -0.2189  1.7183
   59MOL    H7110627   3.036   2.928   3.480 -0.3228  0.5575  0.3206
   59MOL    H7210628   3.204   2.951   3.515 -0.1264 -0.4826 -1.2165
   59MOL    H7310629   3.070   3.053   3.585 -0.1211 -1.1004  1.2100
   59MOL    C7410630   2.970   3.143   3.338  0.2589 -0.2933  0.2571
   59MOL    C7510631   2.892   3.248   3.425 -0.2999  0.2083 -0.0792
   59MOL    C7610632   2.898   3.393   3.356 -1.0236  0.0757 -0.3238
   59MOL    H7710633   2.988   3.177   3.236 -1.4246  0.3102  0.1516
   59MOL    H7810634   2.907   3.054   3.336  0.7617 -0.6530  0.1934
   59MOL    H7910635   2.941   3.243   3.522  0.0912  0.0121 -0.2842
   59MOL    H8010636   2.995   3.412   3.310 -0.9386 -0.6533 -0.4519
   59MOL    H8110637   2.836   3.398   3.267  0.1559  3.0881 -1.0392
   59MOL    H8210638   2.874   3.475   3.425  0.5287 -0.5172  0.9520
   59MOL    C8310639   2.747   3.207   3.442  0.2859 -0.3165  0.0453
   59MOL    C8410640   2.659   3.289   3.551  0.3580  0.9236 -0.1188
   59MOL    C8510641   2.505   3.274   3.529  0.5234 -0.7770  0.1423
   59MOL    H8610642   2.702   3.216   3.344  1.2255  0.2778 -0.3447
   59MOL    H8710643   2.745   3.102   3.472  0.6320 -0.3467 -0.0282
   59MOL    H8810644   2.679   3.394   3.529  0.1290  1.3180  1.5154
   59MOL    H8910645   2.475   3.313   3.432  2.8268  1.3367  0.2408
   59MOL    H9010646   2.476   3.170   3.541  0.5436 -0.7889  0.0842
   59MOL    H9110647   2.450   3.320   3.611  1.5820  1.0578 -0.1309
   59MOL    C9210648   2.696   3.245   3.690  0.2021  0.0621 -0.7198
   59MOL    C9310649   2.690   3.352   3.798 -0.1687 -0.2804 -0.0205
   59MOL    C9410650   2.691   3.287   3.940 -0.0239  0.3551  0.3049
   59MOL    H9510651   2.640   3.157   3.721  3.2632 -0.8868  2.3905
   59MOL    H9610652   2.795   3.201   3.691  0.3984  0.5058 -0.2018
   59MOL    H9710653   2.593   3.399   3.784 -2.1787 -4.1529  0.0578
   59MOL    H9810654   2.784   3.232   3.953  0.8865  1.3217 -1.8281
   59MOL    H9910655   2.686   3.355   4.024  0.2116  0.7305  0.0185
   59MOL   H10010656   2.600   3.227   3.940  0.7104 -0.7864 -0.4495
   59MOL   C10110657   2.809   3.446   3.779 -0.1201  0.4755 -0.1229
   59MOL   C10210658   2.798   3.584   3.844 -0.3356  0.7610  0.0460
   59MOL   C10310659   2.930   3.612   3.928  0.8512 -0.3362  0.6933
   59MOL   H10410660   2.891   3.396   3.828 -0.9896  0.9914  1.9264
   59MOL   H10510661   2.833   3.452   3.673  0.2602  0.7296 -0.0221
   59MOL   H10610662   2.705   3.588   3.901  0.0823 -1.3070  0.9387
   59MOL   H10710663   2.933   3.535   4.005  1.6521  0.2017  1.2030
   59MOL   H10810664   3.028   3.601   3.884  1.6562  1.0683  2.0620
   59MOL   H10910665   2.913   3.703   3.986  1.7427  1.4630 -1.7768
   59MOL   C11010666   2.775   3.697   3.739 -0.3216 -0.2863 -0.1017
   59MOL   C11110667   2.644   3.695   3.649 -0.0919  0.4709  0.1965
   59MOL   C11210668   2.515   3.696   3.733 -0.0444  0.5459 -0.2229
   59MOL   H11310669   2.760   3.797   3.782 -0.5731  0.0910 -1.0563
   59MOL   H11410670   2.859   3.710   3.671 -1.8843  1.1755 -1.8351
   59MOL   H11510671   2.654   3.605   3.589  0.6513  0.4127  0.3924
   59MOL   H11610672   2.432   3.654   3.675  0.7000 -0.6894 -0.4157
   59MOL   H11710673   2.529   3.635   3.823 -0.1973  0.8358 -0.0042
   59MOL   H11810674   2.501   3.798   3.767 -0.3534  0.9439 -1.5295
   59MOL   C11910675   2.641   3.800   3.534 -0.4110  0.2015 -0.2428
   59MOL   C12010676   2.706   3.772   3.394 -0.0751 -0.8578  0.1128
   59MOL   C12110677   2.630   3.668   3.308 -0.2311  0.2031 -0.1528
   59MOL   H12210678   2.543   3.838   3.506  0.2752  0.2554 -2.6733
   59MOL   H12310679   2.678   3.892   3.580  0.3096  1.0816 -2.5030
   59MOL   H12410680   2.801   3.727   3.422 -1.1908 -1.6428  2.7153
   59MOL   H12510681   2.633   3.568   3.352  1.2804  1.0401  1.7622
   59MOL   H12610682   2.527   3.701   3.301 -0.3170  0.3735  1.7793
   59MOL   H12710683   2.664   3.644   3.207  0.8088  1.1281 -0.0413
   59MOL   C12810684   2.743   3.903   3.312  0.5827 -0.2597 -0.2002
   59MOL   C12910685   2.854   3.987   3.376 -0.1971  0.4515  0.1085
   59MOL   C13010686   2.990   3.908   3.363  0.5637  0.1987 -0.1235
   59MOL   H13110687   2.785   3.876   3.215  1.4830  0.2078  0.0584
   59MOL   H13210688   2.658   3.968   3.292  0.7827 -0.0008 -0.2161
   59MOL   H13310689   2.846   3.997   3.484  1.8655  1.0696  0.2135
   59MOL   H13410690   3.013   3.886   3.259 -0.1928  1.0376 -0.4735
   59MOL   H13510691   3.079   3.963   3.391  2.2261 -2.0988 -0.7084
   59MOL   H13610692   2.997   3.807   3.405  0.1274  0.7706  1.3591
   59MOL   C13710693   2.861   4.136   3.314  0.2919 -0.0866  0.2283
   59MOL   C13810694   2.962   4.235   3.378 -0.1262 -0.5537  0.1899
   59MOL   C13910695   2.971   4.359   3.290  0.9218 -0.6808 -0.0388
   59MOL   H14010696   2.898   4.134   3.211 -0.8947 -0.1402 -0.2047
   59MOL   H14110697   2.760   4.176   3.309  0.0848 -0.4704  1.2389
   59MOL   H14210698   3.058   4.184   3.382  1.2957  2.1098  0.7558
   59MOL   H14310699   3.015   4.328   3.195  1.1397  0.9521 -0.4838
   59MOL   H14410700   2.880   4.413   3.266  0.6001 -1.8224 -1.5107
   59MOL   H14510701   3.041   4.424   3.343  0.3325 -0.3409  0.3158
   59MOL   C14610702   2.928   4.274   3.520  0.1244 -0.1302  0.5124
   59MOL   C14710703   3.056   4.269   3.615 -0.0517 -0.2991 -0.1708
   59MOL   C14810704   3.159   4.382   3.589 -0.4261  0.2403 -0.5526
   59MOL   H14910705   2.882   4.372   3.523  0.1083 -0.0312 -2.0669
   59MOL   H15010706   2.856   4.203   3.559 -0.7040  0.0302 -0.6975
   59MOL   H15110707   3.111   4.178   3.591  0.1185 -0.4437  0.7432
   59MOL   H15210708   3.191   4.370   3.486 -3.1668 -1.9489 -1.2278
   59MOL   H15310709   3.116   4.483   3.593  0.7363  0.6710  2.2348
   59MOL   H15410710   3.247   4.364   3.651 -0.6361  2.4780  0.4667
   59MOL   C15510711   3.021   4.254   3.763  0.3373 -0.4730  0.4391
   59MOL   C15610712   2.941   4.124   3.806  0.1425  0.0598  0.8512
   59MOL   C15710713   3.020   4.005   3.760  0.7391  0.0143 -0.1281
   59MOL   H15810714   3.115   4.266   3.817  0.0117 -2.0742  1.3844
   59MOL   H15910715   2.958   4.340   3.787  0.8734  0.2846 -0.7798
   59MOL   H16010716   2.839   4.119   3.768 -0.4103 -0.4364  2.3634
   59MOL   H16110717   2.973   3.910   3.785 -2.2668  1.5189  0.1575
   59MOL   H16210718   3.030   4.004   3.652  0.5623  0.6821 -0.1530
   59MOL   H16310719   3.119   3.995   3.805  1.0007 -0.8342 -0.8577
   59MOL   C16410720   2.926   4.128   3.962  0.0437 -0.1742  0.0547
   59MOL   C16510721   2.828   4.015   4.008  0.2956 -0.4763  0.1798
   59MOL   C16610722   2.850   3.985   4.150 -1.1259  0.5385 -0.9104
   59MOL   H16710723   3.027   4.103   3.991  0.1852 -2.1186 -1.9613
   59MOL   H16810724   2.892   4.228   3.990  0.4073 -0.0914  0.2004
   59MOL   H16910725   2.848   3.916   3.966  1.1962 -0.1083 -0.2663
   59MOL   H17010726   2.811   3.886   4.173 -0.1774  0.2264 -0.6340
   59MOL   H17110727   2.955   3.979   4.175 -1.5489 -0.6434  0.6894
   59MOL   H17210728   2.801   4.052   4.222 -1.2327 -0.0553 -0.4265
   59MOL   C17310729   2.677   4.050   3.985  0.4971  0.8078 -0.2963
   59MOL   C17410730   2.579   3.939   4.031  0.6636  0.2203 -0.5061
   59MOL   C17510731   2.432   3.976   3.997  0.7775 -0.3092  0.5828
   59MOL   H17610732   2.657   4.138   4.045  3.0098  0.7889  0.6554
   59MOL   H17710733   2.662   4.077   3.881 -1.1822 -0.9541 -0.5321
   59MOL   H17810734   2.579   3.928   4.139 -3.1408  1.7819 -0.2666
   59MOL   H17910735   2.420   3.972   3.889  2.9196 -2.5424  0.3857
   59MOL   H18010736   2.364   3.908   4.049  1.6786 -1.4916  0.2434
   59MOL   H18110737   2.415   4.075   4.039 -0.1435 -0.5917  0.8832
   59MOL   H18210738   2.612   3.842   3.994  1.0372 -0.0662  0.5549
   60MOL     C110739   7.616   4.703   6.156  0.1461 -0.2009 -0.1009
   60MOL     C210740   7.602   4.556   6.113  0.3459 -0.2747 -0.4958
   60MOL     C310741   7.487   4.496   6.198 -0.3111  1.2737 -0.0590
   60MOL     H410742   0.002   4.762   6.117 -0.1513  1.3693  1.5605
   60MOL     H510743   7.615   4.701   6.265 -4.4929  0.5311 -0.0350
   60MOL     H610744   7.695   4.505   6.137  0.7056  0.5442 -0.0991
   60MOL     H710745   7.516   4.493   6.303  0.8203 -2.4454 -0.4028
   60MOL     H810746   7.390   4.546   6.196 -0.8799  0.1957  0.1113
   60MOL     H910747   7.459   4.396   6.164 -0.3456  0.6160  1.8494
   60MOL    H1010748   7.534   4.770   6.130 -0.7880 -1.9601 -1.7694
   60MOL    C1110749   7.581   4.546   5.967 -0.0871 -0.1159  0.1299
   60MOL    C1210750   0.020   4.569   5.893 -0.3388  0.7223 -0.0699
   60MOL    C1310751   0.097   4.431   5.887 -0.1250  0.3995 -0.3435
   60MOL    H1410752   7.532   4.452   5.940  0.5504 -0.2145 -0.7367
   60MOL    H1510753   7.509   4.623   5.936 -1.5710 -1.6574 -0.3229
   60MOL    H1610754   0.080   4.646   5.940 -1.4873  1.4074  0.2871
   60MOL    H1710755   0.199   4.438   5.848  0.1026 -2.6842 -0.4300
   60MOL    H1810756   0.100   4.388   5.987  2.2062  1.2068 -0.0331
   60MOL    H1910757   0.041   4.359   5.827  1.1823 -1.0240  0.0928
   60MOL    C2010758   0.013   4.619   5.739  0.3296 -0.1888 -0.0669
   60MOL    C2110759   7.639   4.760   5.721 -0.6496 -0.1063 -0.8410
   60MOL    C2210760   0.043   4.868   5.743 -0.2342  0.6691 -0.0862
   60MOL    H2310761   0.112   4.614   5.692  1.5561  1.0316  2.2769
   60MOL    H2410762   7.656   4.551   5.674  1.0116 -0.3393 -0.4850
   60MOL    H2510763   7.564   4.776   5.799 -0.5743 -1.0838 -0.5574
   60MOL    H2610764   0.069   4.844   5.846 -2.1599 -0.0965  0.2453
   60MOL    H2710765   0.133   4.860   5.682 -0.5035 -1.2930 -0.2436
   60MOL    H2810766   0.007   4.970   5.728 -1.8407 -0.4101 -4.0248
   60MOL    C2910767   7.567   4.783   5.588 -0.1594 -0.0645  0.4043
   60MOL    C3010768   7.443   4.696   5.558  0.3448  0.5078  0.2831
   60MOL    C3110769   7.338   4.706   5.675  0.3692  0.7316 -0.2943
   60MOL    H3210770   7.529   4.885   5.584  1.9842  0.7038 -2.3587
   60MOL    H3310771   7.645   4.787   5.512  0.8198  0.3406  1.4231
   60MOL    H3410772   7.464   4.592   5.536  2.8061  1.3968 -1.8821
   60MOL    H3510773   7.237   4.668   5.663  0.0115  1.4470  0.4197
   60MOL    H3610774   7.363   4.658   5.770  2.1814  1.8520 -0.1830
   60MOL    H3710775   7.320   4.814   5.675 -0.9811  0.5548  2.6507
   60MOL    C3810776   7.366   4.752   5.434  0.7895  0.4251  0.8401
   60MOL    C3910777   7.431   4.727   5.295 -1.1811 -0.6812  0.3112
   60MOL    C4010778   7.425   4.584   5.243 -0.9279 -0.0652 -0.0195
   60MOL    H4110779   7.268   4.704   5.428  0.5449  0.8073  1.7284
   60MOL    H4210780   7.337   4.856   5.446 -0.6676  0.6651 -3.8242
   60MOL    H4310781   7.536   4.747   5.318 -0.8541 -1.8494 -0.1335
   60MOL    H4410782   7.497   4.570   5.163  0.0251 -0.4466  0.8963
   60MOL    H4510783   7.471   4.527   5.323 -0.5748  0.9079  0.4764
   60MOL    H4610784   7.327   4.538   5.229 -0.2095 -1.4644 -0.5182
   60MOL    C4710785   7.380   4.828   5.183 -0.6596  0.0193  0.4628
   60MOL    C4810786   7.453   4.834   5.046 -0.1074  0.2256  0.1852
   60MOL    C4910787   7.387   4.932   4.946  0.6208 -0.1025 -0.1252
   60MOL    H5010788   7.276   4.811   5.155 -0.9662  1.3521  0.7908
   60MOL    H5110789   7.380   4.927   5.228 -2.6437  0.6358 -0.8177
   60MOL    H5210790   7.446   4.742   4.987  0.3086 -0.4333  1.1486
   60MOL    H5310791   7.431   4.929   4.846 -0.4989 -0.1552 -0.6302
   60MOL    H5410792   7.282   4.905   4.933  0.7531  0.5656 -2.8934
   60MOL    H5510793   7.395   5.033   4.986 -2.3084  0.0904  0.0536
   60MOL    C5610794   7.605   4.871   5.062 -0.4496  0.7761  0.1541
   60MOL    C5710795   0.014   4.756   5.037 -0.0802 -0.4295 -0.1988
   60MOL    C5810796   0.043   4.740   4.888  0.2484 -0.1255  0.2034
   60MOL    H5910797   7.637   4.953   4.998  0.4905 -0.7914 -1.3939
   60MOL    H6010798   7.609   4.918   5.161  2.4604  0.6946  0.1172
   60MOL    H6110799   7.651   4.673   5.073  1.0034 -1.0000  0.3363
   60MOL    H6210800   0.099   4.824   4.848  0.9863 -0.3616  0.7302
   60MOL    H6310801   0.101   4.650   4.870 -1.2152 -0.7909 -1.2773
   60MOL    H6410802   7.653   4.737   4.824  0.8288  1.1959 -0.6760
   60MOL    C6510803   0.149   4.784   5.111 -0.6900  0.0136  0.3982
   60MOL    C6610804   0.139   4.759   5.260 -0.5834  0.5339  0.5557
   60MOL    C6710805   0.136   4.606   5.274  0.7621 -0.3818  0.3772
   60MOL    H6810806   0.219   4.725   5.053 -1.0047  0.2920 -0.2709
   60MOL    H6910807   0.169   4.885   5.075 -0.1535 -1.1555 -2.6867
   60MOL    H7010808   0.046   4.799   5.300 -0.4345  2.6811 -1.1623
   60MOL    H7110809   0.058   4.556   5.217 -1.3746  2.7376  0.4294
   60MOL    H7210810   0.231   4.571   5.233 -0.0883 -1.0265 -1.0884
   60MOL    H7310811   0.125   4.576   5.378 -0.4459  0.2059  0.4307
   60MOL    C7410812   0.257   4.811   5.341 -0.9814 -0.2636  0.1703
   60MOL    C7510813   0.278   4.967   5.351  0.2238  0.1166  0.6239
   60MOL    C7610814   0.149   5.057   5.384 -0.0254 -0.1157  0.0056
   60MOL    H7710815   0.243   4.782   5.445 -0.4948 -3.9717 -0.7422
   60MOL    H7810816   0.345   4.756   5.308 -0.7301 -0.0434  0.4706
   60MOL    H7910817   0.308   4.998   5.251  0.0633 -1.4496  0.0818
   60MOL    H8010818   0.171   5.163   5.397  0.2983  0.1314 -2.2541
   60MOL    H8110819   0.075   5.047   5.304  2.4473 -2.5423 -2.0746
   60MOL    H8210820   0.102   5.020   5.475 -0.1323  1.5586  0.6596
   60MOL    C8310821   0.380   5.012   5.458 -0.0770  0.5677  0.5065
   60MOL    C8410822   0.524   4.976   5.419  0.1559 -0.2937  0.4271
   60MOL    C8510823   0.569   5.066   5.307 -0.5117 -0.2366  0.4436
   60MOL    H8610824   0.380   5.121   5.469 -3.3118  0.6166  0.5665
   60MOL    H8710825   0.346   4.971   5.553  0.5780 -1.4584 -0.1147
   60MOL    H8810826   0.541   4.872   5.391 -0.9239 -0.7858  1.5305
   60MOL    H8910827   0.534   5.008   5.221  0.3524 -1.1314  0.6981
   60MOL    H9010828   0.530   5.168   5.303 -1.3221 -0.5831 -1.3168
   60MOL    H9110829   0.677   5.080   5.301 -0.4388 -1.0052 -0.0416
   60MOL    C9210830   0.617   5.010   5.538  0.3108  0.5328 -0.4201
   60MOL    C9310831   0.598   4.901   5.654  0.4069 -0.3854 -0.1790
   60MOL    C9410832   0.651   4.756   5.621  0.2097  0.1396  0.4014
   60MOL    H9510833   0.723   4.998   5.513  0.8520  0.5243  1.7786
   60MOL    H9610834   0.601   5.105   5.589 -0.8566 -1.0416  2.2133
   60MOL    H9710835   0.492   4.899   5.678  0.2474  0.8002 -0.7448
   60MOL    H9810836   0.576   4.681   5.644  0.8421 -0.4548  0.5452
   60MOL    H9910837   0.675   4.733   5.517 -0.7338 -2.5549  0.7476
   60MOL   H10010838   0.743   4.736   5.675  0.2688 -2.5884 -0.6247
   60MOL   C10110839   0.664   4.949   5.777 -0.7069  0.1783  0.5631
   60MOL   C10210840   0.634   4.868   5.909  0.1425  0.0462  0.0714
   60MOL   C10310841   0.734   4.887   6.023  0.3338  0.3073 -0.1984
   60MOL   H10410842   0.770   4.947   5.750 -1.1651 -0.3701 -1.2698
   60MOL   H10510843   0.646   5.055   5.792  0.6418  0.1735  2.3161
   60MOL   H10610844   0.641   4.763   5.880 -1.7654  0.1920 -1.0818
   60MOL   H10710845   0.711   4.816   6.103  0.3436  1.9169  1.2871
   60MOL   H10810846   0.834   4.868   5.985  0.3963 -1.1870  0.6586
   60MOL   H10910847   0.729   4.984   6.074 -1.1360 -0.4489  1.1562
   60MOL   C11010848   0.500   4.895   5.964  0.2443 -0.0604  0.5663
   60MOL   C11110849   0.443   4.797   6.071 -0.0034 -0.6088 -0.0425
   60MOL   C11210850   0.306   4.857   6.125  0.7099 -0.0337 -0.6186
   60MOL   H11310851   0.499   4.996   6.004 -0.5310 -1.0680  3.2012
   60MOL   H11410852   0.429   4.890   5.881  0.5252 -1.0295  0.3750
   60MOL   H11510853   0.514   4.801   6.154 -0.3153  2.3789  0.1261
   60MOL   H11610854   0.229   4.877   6.050  2.7495  1.5730 -2.3408
   60MOL   H11710855   0.255   4.788   6.192  0.8628 -0.7346 -1.2167
   60MOL   H11810856   0.321   4.948   6.183 -0.2657  0.0266 -0.4466
   60MOL   C11910857   0.416   4.654   6.025 -0.2020 -1.1460 -0.3275
   60MOL   C12010858   0.451   4.534   6.119  0.2455 -0.4490 -0.3081
   60MOL   C12110859   0.370   4.525   6.243  0.4008 -0.6763 -0.4064
   60MOL   H12210860   0.316   4.644   5.984 -0.9173  0.2463  1.0206
   60MOL   H12310861   0.479   4.641   5.937  1.3128  2.6079  0.1146
   60MOL   H12410862   0.556   4.550   6.140  0.4110  0.7503 -1.9919
   60MOL   H12510863   0.391   4.439   6.306 -2.4769 -1.5876 -0.6301
   60MOL   H12610864   0.384   4.618   6.298  0.6512 -1.3117  0.6180
   60MOL   H12710865   0.262   4.522   6.229 -0.0283  2.5434  1.7540
   60MOL   C12810866   0.439   4.393   6.047 -0.6952  0.0320 -0.0152
   60MOL   C12910867   0.527   4.371   5.926 -0.2002 -0.0954 -0.4363
   60MOL   C13010868   0.676   4.394   5.942  0.0395  0.4287 -0.3773
   60MOL   H13110869   0.461   4.319   6.124 -2.8518 -0.7249 -0.1024
   60MOL   H13210870   0.335   4.367   6.025  0.3190 -3.7365 -0.7306
   60MOL   H13310871   0.485   4.433   5.847  0.4531  0.4636 -0.3527
   60MOL   H13410872   0.705   4.309   6.003 -2.0250 -0.2380 -0.2913
   60MOL   H13510873   0.729   4.388   5.846 -0.7606 -0.4420 -0.7667
   60MOL   H13610874   0.711   4.488   5.985 -0.3019 -0.2793  1.4900
   60MOL   C13710875   0.495   4.229   5.873  0.3153  0.7109  0.8429
   60MOL   C13810876   0.569   4.181   5.745  0.1317 -0.6252 -0.1973
   60MOL   C13910877   0.555   4.030   5.741  0.0868 -0.3839 -0.0409
   60MOL   H14010878   0.512   4.157   5.953  0.7629  0.5641  0.6203
   60MOL   H14110879   0.388   4.217   5.858  0.7167 -1.4940 -0.5024
   60MOL   H14210880   0.674   4.202   5.766 -0.1529 -1.6682  2.5265
   60MOL   H14310881   0.581   3.979   5.834  1.3242 -0.3761 -0.3742
   60MOL   H14410882   0.450   4.013   5.718  0.2954 -1.2886 -0.3475
   60MOL   H14510883   0.622   3.984   5.668  1.4437 -1.7175  1.9860
   60MOL   C14610884   0.526   4.257   5.614  0.2667  0.8825  0.6438
   60MOL   C14710885   0.598   4.217   5.482  0.1304 -0.3790 -0.0343
   60MOL   C14810886   0.512   4.264   5.364  0.6698  0.2363  0.4151
   60MOL   H14910887   0.419   4.238   5.600  0.3853 -0.3395  1.3358
   60MOL   H15010888   0.539   4.365   5.623  2.7905  0.8682 -1.9879
   60MOL   H15110889   0.588   4.109   5.480 -1.2388 -0.3514  2.9071
   60MOL   H15210890   0.540   4.203   5.279  1.6492 -0.5483  1.2853
   60MOL   H15310891   0.406   4.244   5.384  0.3788  0.6263 -0.7125
   60MOL   H15410892   0.536   4.368   5.342  1.6058  0.2783  1.5653
   60MOL   C15510893   0.742   4.261   5.471 -0.1580  0.5929  0.0808
   60MOL   C15610894   0.853   4.163   5.508 -0.1898 -0.0370  0.9016
   60MOL   C15710895   0.856   4.036   5.420  0.2722  0.8270  0.1861
   60MOL   H15810896   0.770   4.298   5.372  1.8562 -0.9146  0.0486
   60MOL   H15910897   0.765   4.350   5.529  1.4863  1.0862 -1.2648
   60MOL   H16010898   0.820   4.139   5.609  0.1542 -1.8155  0.6063
   60MOL   H16110899   0.758   3.987   5.420  0.4416  0.4695 -1.3239
   60MOL   H16210900   0.882   4.055   5.316  2.2964 -1.4900  0.2226
   60MOL   H16310901   0.932   3.961   5.441  1.0949  2.5325  3.5670
   60MOL   C16410902   0.985   4.236   5.507 -0.2313  0.4539 -0.3412
   60MOL   C16510903   1.100   4.167   5.598  0.5866  0.2195  0.3845
   60MOL   C16610904   1.233   4.231   5.557  1.2342  0.3413 -0.1755
   60MOL   H16710905   1.014   4.248   5.403 -0.3907  0.6764 -0.3587
   60MOL   H16810906   0.984   4.338   5.544  1.7407  0.2861  0.2611
   60MOL   H16910907   1.089   4.061   5.575 -0.3556 -0.3138  3.1358
   60MOL   H17010908   1.243   4.199   5.454  0.9828 -0.7715  0.1343
   60MOL   H17110909   1.231   4.339   5.554 -0.0634  0.3139 -0.5998
   60MOL   H17210910   1.317   4.199   5.619  0.4265  0.0296  0.7776
   60MOL   C17310911   1.072   4.171   5.753  0.2536 -0.3596  0.1642
   60MOL   C17410912   1.113   4.294   5.827  0.0690  0.6280 -0.6950
   60MOL   C17510913   1.076   4.283   5.980  0.1024 -0.2356 -0.0563
   60MOL   H17610914   0.965   4.160   5.774 -0.3151 -0.2749 -2.4898
   60MOL   H17710915   1.108   4.081   5.803  0.2019  0.3090  1.4259
   60MOL   H17810916   1.067   4.382   5.783 -0.9603 -0.3067 -1.4811
   60MOL   H17910917   0.969   4.267   5.995  0.7147 -3.8592  0.9315
   60MOL   H18010918   1.118   4.192   6.023  3.0009  1.1304  0.1105
   60MOL   H18110919   1.096   4.375   6.034  0.7809  0.1877 -1.0120
   60MOL   H18210920   1.220   4.314   5.817 -0.0232  0.4297 -2.1415
   61MOL     C110921   7.244   7.115   6.124 -0.0249 -0.8538  0.9400
   61MOL     C210922   7.089   7.117   6.103 -0.2037  0.3149 -0.0271
   61MOL     C310923   7.049   6.991   6.032  1.0435  1.0780  0.4235
   61MOL     H410924   7.275   7.049   6.206 -1.2913  0.3943  2.4589
   61MOL     H510925   7.277   7.217   6.142  0.5734 -0.6353 -1.2994
   61MOL     H610926   7.060   7.198   6.036 -0.4690  1.0895  1.0237
   61MOL     H710927   7.086   6.971   5.932 -1.9269  0.6455 -0.6425
   61MOL     H810928   7.062   6.901   6.093  0.1004  0.2270 -0.6083
   61MOL     H910929   6.941   6.983   6.017  1.3638  1.5658 -2.2585
   61MOL    H1010930   7.296   7.078   6.036 -0.2097 -0.3813  0.6309
   61MOL    C1110931   7.006   7.135   6.232 -0.4681 -0.5468 -0.0789
   61MOL    C1210932   7.055   7.258   6.313 -0.1507 -0.0677  0.0304
   61MOL    C1310933   6.993   7.394   6.257  0.3745 -0.1201  0.0967
   61MOL    H1410934   6.904   7.155   6.198 -0.1218  0.7209 -0.4148
   61MOL    H1510935   6.997   7.047   6.295  2.8498  0.0800  1.3990
   61MOL    H1610936   7.163   7.266   6.318 -0.1101 -0.7011  0.1322
   61MOL    H1710937   6.885   7.402   6.273  0.1613  0.9726 -1.7449
   61MOL    H1810938   7.037   7.483   6.302 -1.0548 -0.0171  1.3567
   61MOL    H1910939   7.013   7.412   6.151  1.3211  0.1769  0.3251
   61MOL    C2010940   7.008   7.241   6.457  0.5098  0.5182 -0.1027
   61MOL    C2110941   7.050   7.112   6.536  0.0939  0.2228  0.9494
   61MOL    C2210942   7.190   7.059   6.503  0.5965 -0.7274 -0.0069
   61MOL    H2310943   7.052   7.326   6.510  0.0037  0.8728 -0.2566
   61MOL    H2410944   6.900   7.249   6.456  0.3071 -1.8768 -0.9987
   61MOL    H2510945   6.992   7.025   6.506  2.2043 -1.1058  0.6268
   61MOL    H2610946   7.261   7.143   6.501  1.0018 -1.0526  0.6535
   61MOL    H2710947   7.223   6.984   6.574 -1.7291 -2.0379 -0.2910
   61MOL    H2810948   7.205   7.009   6.408  0.6575  0.5471 -0.6827
   61MOL    C2910949   7.036   7.132   6.696  0.0395  0.3055 -0.1782
   61MOL    C3010950   6.901   7.168   6.755  0.0023 -0.1608 -0.2117
   61MOL    C3110951   6.798   7.061   6.734 -0.1610  0.3391 -0.2016
   61MOL    H3210952   7.076   7.038   6.734  1.1538  1.3727  1.3185
   61MOL    H3310953   7.109   7.203   6.734 -0.6634  0.5818  0.6685
   61MOL    H3410954   6.866   7.254   6.697 -2.3204 -0.5907  0.5187
   61MOL    H3510955   6.805   6.972   6.796  0.5324 -0.7002 -1.7587
   61MOL    H3610956   6.699   7.100   6.759 -0.4312 -0.2150 -0.4118
   61MOL    H3710957   6.781   7.028   6.632 -2.3351 -1.0244  0.5766
   61MOL    C3810958   6.914   7.228   6.897  0.1575  0.1206  0.0098
   61MOL    C3910959   6.786   7.276   6.965 -0.2515 -0.1432 -0.3916
   61MOL    C4010960   6.810   7.305   7.110 -0.0033  0.1150 -0.4138
   61MOL    H4110961   6.958   7.151   6.961  0.1855  2.1916  2.5448
   61MOL    H4210962   6.976   7.317   6.901  1.1907 -0.6068  0.4318
   61MOL    H4310963   6.715   7.194   6.952  0.7045 -0.8270 -1.3608
   61MOL    H4410964   6.878   7.230   7.150  0.8170  2.3325  2.4832
   61MOL    H4510965   6.870   7.396   7.113  0.5924 -0.1869 -2.1619
   61MOL    H4610966   6.722   7.301   7.174  1.3353 -0.6238  1.3875
   61MOL    C4710967   6.720   7.401   6.894  0.1690 -0.4484 -0.3188
   61MOL    C4810968   6.577   7.430   6.951 -0.5289  0.5706 -0.1422
   61MOL    C4910969   6.583   7.550   7.047  0.3274  0.2138 -0.0476
   61MOL    H5010970   6.786   7.488   6.890 -0.1654  0.0524  3.0952
   61MOL    H5110971   6.701   7.374   6.790 -0.2877 -0.8705 -0.1257
   61MOL    H5210972   6.559   7.352   7.026  0.7207  1.5866  1.2595
   61MOL    H5310973   6.593   7.633   6.977 -2.6331  0.1782 -0.6010
   61MOL    H5410974   6.495   7.572   7.108 -2.0362  0.6195 -3.4397
   61MOL    H5510975   6.675   7.551   7.105  0.5184 -0.6607 -0.3451
   61MOL    C5610976   6.459   7.429   6.847  0.1481 -0.3515 -0.1257
   61MOL    C5710977   6.317   7.450   6.908  0.0443  0.0260 -0.3781
   61MOL    C5810978   6.225   7.488   6.791  0.1919 -0.0508  0.0383
   61MOL    H5910979   6.473   7.506   6.771 -0.5698  1.1116  1.1825
   61MOL    H6010980   6.453   7.334   6.795 -1.3538  0.4657 -1.4941
   61MOL    H6110981   6.323   7.534   6.978  0.2485  0.3431 -0.7779
   61MOL    H6210982   6.263   7.559   6.718  1.3909 -1.3516 -0.6180
   61MOL    H6310983   6.195   7.400   6.735 -0.4921  0.3994 -0.3069
   61MOL    H6410984   6.135   7.540   6.822 -0.7697 -1.5255 -0.2227
   61MOL    C6510985   6.262   7.323   6.981  0.5924 -0.3913 -0.6582
   61MOL    C6610986   6.125   7.333   7.044  0.2369 -0.5329 -0.5361
   61MOL    C6710987   6.075   7.195   7.065 -0.2247  0.0699  0.4282
   61MOL    H6810988   6.260   7.250   6.900 -2.0751 -0.0566 -0.9398
   61MOL    H6910989   6.332   7.262   7.038  0.4760 -0.1450 -0.2524
   61MOL    H7010990   6.060   7.371   6.966  1.7002  2.9442 -0.1408
   61MOL    H7110991   6.105   7.134   6.980  1.2284  1.1659  0.1310
   61MOL    H7210992   6.121   7.149   7.153 -1.5384 -1.9815  0.0724
   61MOL    H7310993   5.967   7.183   7.077 -0.5052  2.3001  0.2840
   61MOL    C7410994   6.126   7.422   7.172  0.4075  0.0590  0.2037
   61MOL    C7510995   5.993   7.418   7.248  0.7116  0.9477 -0.0253
   61MOL    C7610996   6.005   7.499   7.378 -0.1020  0.1685 -1.2390
   61MOL    H7710997   6.208   7.405   7.243 -1.4131 -0.6156  2.1902
   61MOL    H7810998   6.136   7.526   7.140 -0.7804 -0.1011 -0.6988
   61MOL    H7910999   5.966   7.316   7.276 -0.0835  0.5313 -2.2681
   61MOL    H8011000   5.936   7.467   7.456  1.7427  0.7153  0.6523
   61MOL    H8111001   6.098   7.488   7.434 -1.1635  1.3326  0.8294
   61MOL    H8211002   5.988   7.607   7.372 -0.0170  0.3331  0.9529
   61MOL    C8311003   5.869   7.457   7.164  0.1890 -0.0586 -0.0340
   61MOL    C8411004   5.742   7.436   7.249  0.3022  0.2918 -0.0523
   61MOL    C8511005   5.695   7.563   7.321  0.5449 -0.0936 -0.2883
   61MOL    H8611006   5.884   7.563   7.142  2.0495 -0.0381  1.2503
   61MOL    H8711007   5.867   7.399   7.071  0.0904 -0.6371  0.3290
   61MOL    H8811008   5.768   7.357   7.320 -0.4191 -0.1953 -0.3171
   61MOL    H8911009   5.622   7.538   7.397 -0.5145  1.9589 -0.6012
   61MOL    H9011010   5.773   7.612   7.379 -0.7180  1.9882 -0.2795
   61MOL    H9111011   5.652   7.641   7.258  0.3363 -0.7243 -0.9314
   61MOL    C9211012   5.629   7.392   7.153 -0.1438 -0.0457 -0.0677
   61MOL    C9311013   5.643   7.249   7.089  0.2915  0.3040  0.5573
   61MOL    C9411014   5.652   7.134   7.190  0.9976 -0.5701  0.0248
   61MOL    H9511015   5.535   7.392   7.208  0.0815 -3.9618  0.4246
   61MOL    H9611016   5.619   7.462   7.069  1.9330 -0.8747 -1.0339
   61MOL    H9711017   5.733   7.244   7.028 -0.1978 -0.5060 -0.1062
   61MOL    H9811018   5.725   7.150   7.270  0.0522  0.7521  0.6588
   61MOL    H9911019   5.559   7.098   7.234  2.0105 -2.8526  0.3856
   61MOL   H10011020   5.690   7.051   7.131  0.5086 -0.7989  0.0251
   61MOL   C10111021   5.530   7.216   6.981  0.0727 -0.2461 -0.2603
   61MOL   C10211022   5.518   7.317   6.861  0.3792  0.2528 -0.2889
   61MOL   C10311023   5.651   7.363   6.801 -0.5036  0.5490  0.2797
   61MOL   H10411024   5.561   7.119   6.939 -1.5360 -0.6050 -0.6483
   61MOL   H10511025   5.436   7.205   7.034  1.4729 -0.3203  2.2980
   61MOL   H10611026   5.474   7.404   6.910  0.6085 -0.3263  0.9703
   61MOL   H10711027   5.694   7.277   6.749  0.3590  1.5654 -0.6973
   61MOL   H10811028   5.624   7.446   6.736 -1.1333  0.9308  1.0253
   61MOL   H10911029   5.733   7.386   6.870  0.8317 -0.4620 -0.9312
   61MOL   C11011030   5.429   7.244   6.750 -1.0549  0.0008  0.3595
   61MOL   C11111031   5.368   7.346   6.651  0.2448 -0.1050 -0.3282
   61MOL   C11211032   5.351   7.262   6.523  0.6528  0.0085  0.7007
   61MOL   H11311033   5.501   7.173   6.711 -1.7076 -0.5655  0.1755
   61MOL   H11411034   5.347   7.184   6.791 -1.4337 -1.2743 -2.1583
   61MOL   H11511035   5.442   7.423   6.630 -1.7981  2.1120  0.3923
   61MOL   H11611036   5.286   7.175   6.538 -0.0697  0.3024 -0.6502
   61MOL   H11711037   5.304   7.317   6.442 -0.4146 -0.7744  0.7632
   61MOL   H11811038   5.449   7.242   6.481 -0.4801  2.3694 -3.2299
   61MOL   C11911039   5.237   7.418   6.706  0.0179  0.8506 -0.1509
   61MOL   C12011040   5.198   7.544   6.626  0.0042  0.0584 -0.4417
   61MOL   C12111041   5.065   7.585   6.688  0.5869  0.0886  0.0975
   61MOL   H12211042   5.159   7.342   6.709  0.4318  0.3711 -1.2389
   61MOL   H12311043   5.248   7.443   6.811 -0.0456 -3.9970  1.1102
   61MOL   H12411044   5.192   7.505   6.525  1.7841  1.4569 -1.1075
   61MOL   H12511045   5.007   7.653   6.626 -1.5080 -1.7934 -0.0775
   61MOL   H12611046   4.990   7.510   6.715  0.3722  0.6709  1.1514
   61MOL   H12711047   5.084   7.640   6.780  0.6798 -0.6389  0.5178
   61MOL   C12811048   5.304   7.654   6.637  0.4264 -0.0660  0.8927
   61MOL   C12911049   5.263   0.094   6.571 -0.0333 -0.4906  0.3489
   61MOL   C13011050   5.352   0.209   6.625  0.5469  0.5402  0.1798
   61MOL   H13111051   5.335   7.667   6.740 -0.9737 -0.9327  1.4312
   61MOL   H13211052   5.390   7.619   6.579  0.1534  2.5610 -1.2207
   61MOL   H13311053   5.169   0.127   6.615  2.3267  3.8851  2.3659
   61MOL   H13411054   5.306   0.299   6.585 -1.4796 -0.3613  0.3884
   61MOL   H13511055   5.361   0.223   6.733  1.8219  1.2156 -0.0080
   61MOL   H13611056   5.447   0.210   6.572 -0.4645  2.4283 -1.6867
   61MOL   C13711057   5.268   0.088   6.418  0.7479  0.5054  1.0723
   61MOL   C13811058   5.135   0.050   6.354  0.2978 -0.5454 -0.5159
   61MOL   C13911059   5.049   0.171   6.350  0.4192  0.6942  0.1632
   61MOL   H14011060   5.306   0.180   6.373 -0.3780  0.2399 -0.4836
   61MOL   H14111061   5.336   0.006   6.396  0.6740  1.1004 -1.6123
   61MOL   H14211062   5.084   7.675   6.417 -0.7447  0.8894  0.3066
   61MOL   H14311063   5.040   0.213   6.450  2.2114 -0.2077  0.7143
   61MOL   H14411064   5.073   0.247   6.275 -0.5977  0.9500  0.0880
   61MOL   H14511065   4.947   0.141   6.325  1.8947 -2.7040 -2.1694
   61MOL   C14611066   5.152   7.694   6.210  0.1935 -0.0317  0.2965
   61MOL   C14711067   5.024   7.647   6.138 -0.7619  0.4770 -0.5479
   61MOL   C14811068   5.055   7.628   5.990 -0.5829  0.6099 -0.0530
   61MOL   H14911069   5.201   0.078   6.156 -3.3176  1.0690 -1.3857
   61MOL   H15011070   5.219   7.609   6.219 -0.1561 -0.3678 -0.2561
   61MOL   H15111071   4.944   0.022   6.146 -1.7976 -0.6442 -0.5527
   61MOL   H15211072   4.961   7.618   5.936 -1.9845  1.6073  2.1550
   61MOL   H15311073   5.118   0.011   5.950  0.4725  0.0275  0.4305
   61MOL   H15411074   5.121   7.541   5.986 -0.2903  0.7459  1.5580
   61MOL   C15511075   4.959   7.522   6.200  0.2992 -0.1665  0.5487
   61MOL   C15611076   4.805   7.510   6.188  0.2068 -0.5429  0.5354
   61MOL   C15711077   4.751   7.525   6.046  0.2651 -0.0151  0.6907
   61MOL   H15811078   5.005   7.433   6.156  3.9887  1.6898  0.4319
   61MOL   H15911079   4.973   7.526   6.308 -0.7876  0.7557  0.6551
   61MOL   H16011080   4.772   7.596   6.246  2.8278 -0.2947  1.7313
   61MOL   H16111081   4.645   7.501   6.035  0.8286 -2.0329 -0.6510
   61MOL   H16211082   4.753   7.626   6.007 -0.6475 -0.4180 -0.4153
   61MOL   H16311083   4.801   7.455   5.979 -0.2372  1.8958 -1.7395
   61MOL   C16411084   4.754   7.378   6.258  0.5904  0.5045 -0.0114
   61MOL   C16511085   4.782   7.357   6.418  0.1344 -0.5002 -0.6053
   61MOL   C16611086   4.712   7.469   6.493 -0.2152 -1.1184  0.0848
   61MOL   H16711087   4.647   7.371   6.243  0.7160  0.8075 -1.1184
   61MOL   H16811088   4.802   7.299   6.201  1.0218 -0.5385  1.7418
   61MOL   H16911089   4.887   7.382   6.438  0.9299 -2.6635 -1.8673
   61MOL   H17011090   4.729   7.455   6.600 -0.9517  1.5963  0.5894
   61MOL   H17111091   4.751   7.568   6.472  0.0925 -1.0545  0.9303
   61MOL   H17211092   4.604   7.463   6.484 -0.2111 -0.0716 -0.7251
   61MOL   C17311093   4.733   7.218   6.464  0.0546 -1.0120 -0.4503
   61MOL   C17411094   4.800   7.102   6.404 -0.1141  0.2654  0.0652
   61MOL   C17511095   4.780   6.973   6.478  0.1487  0.4271 -0.6170
   61MOL   H17611096   4.745   7.225   6.572 -1.2370  0.1806 -0.3660
   61MOL   H17711097   4.624   7.221   6.464  0.0688  0.3178 -2.4608
   61MOL   H17811098   4.907   7.121   6.397 -0.1104  0.7089  1.1637
   61MOL   H17911099   4.696   6.923   6.430 -0.3921  0.8766 -0.1428
   61MOL   H18011100   4.863   6.910   6.447 -1.1639 -1.1120 -1.0500
   61MOL   H18111101   4.751   6.967   6.583 -3.6633  0.8840 -1.5858
   61MOL   H18211102   4.764   7.078   6.304 -0.0080 -1.7160  0.4872
   62MOL     C111103   3.585   5.406   6.155 -0.5535  0.4655 -0.4797
   62MOL     C211104   3.648   5.339   6.032 -0.4008  0.1480  0.1514
   62MOL     C311105   3.546   5.246   5.963  0.3923  0.5961 -1.1832
   62MOL     H411106   3.510   5.474   6.113 -3.8446 -2.6572  0.1064
   62MOL     H511107   3.646   5.469   6.220 -2.0012  1.7198 -0.3042
   62MOL     H611108   3.729   5.275   6.067 -0.7129 -0.6347 -0.5335
   62MOL     H711109   3.573   5.190   5.875 -1.9101 -1.9848 -0.3076
   62MOL     H811110   3.508   5.174   6.035  1.0342  1.1622 -0.2504
   62MOL     H911111   3.449   5.294   5.951  0.2936  1.1308  1.2910
   62MOL    H1011112   3.520   5.341   6.214 -1.5846  0.1733 -1.9233
   62MOL    C1111113   3.706   5.441   5.933  0.3122 -0.6159  0.2143
   62MOL    C1211114   3.801   5.391   5.820  0.0898  0.7239 -0.5542
   62MOL    C1311115   3.828   5.507   5.722  0.4209  0.2392  0.2589
   62MOL    H1411116   3.621   5.498   5.893  0.7594 -0.2004 -0.1495
   62MOL    H1511117   3.765   5.513   5.989 -0.2898 -1.1090  1.4914
   62MOL    H1611118   3.749   5.314   5.763 -0.9627  0.4283  0.8009
   62MOL    H1711119   3.730   5.550   5.699  0.2659  0.2532  0.9295
   62MOL    H1811120   3.881   5.586   5.776  1.2809 -0.0949 -0.0946
   62MOL    H1911121   3.874   5.473   5.629  0.0661 -3.6275  1.4157
   62MOL    C2011122   3.938   5.346   5.875  0.3034 -0.0916 -0.1781
   62MOL    C2111123   4.055   5.316   5.779  0.2439  0.3436  0.4655
   62MOL    C2211124   4.173   5.279   5.865 -0.3400  0.1570 -0.2988
   62MOL    H2311125   3.977   5.416   5.949  1.2498  0.6061 -1.3148
   62MOL    H2411126   3.923   5.251   5.926  1.1719 -0.8885 -1.3555
   62MOL    H2511127   4.081   5.413   5.736  0.3584  0.0060 -0.2147
   62MOL    H2611128   4.222   5.361   5.916  0.7964 -0.6266 -0.1077
   62MOL    H2711129   4.144   5.214   5.949  1.5173  2.2157  1.9895
   62MOL    H2811130   4.252   5.228   5.810 -1.1529 -0.6282 -0.7585
   62MOL    C2911131   4.027   5.205   5.684  0.0936  0.3165  0.2700
   62MOL    C3011132   4.116   5.188   5.563  1.0142  0.6418  0.2849
   62MOL    C3111133   4.116   5.043   5.500 -0.2702 -0.0598 -0.7198
   62MOL    H3211134   4.024   5.115   5.747 -1.9027  1.0602  1.2944
   62MOL    H3311135   3.925   5.206   5.644 -0.6037 -1.6367  1.8565
   62MOL    H3411136   4.219   5.212   5.593  1.3331  1.7567 -1.6828
   62MOL    H3511137   4.196   5.029   5.428  1.9369 -2.3212  2.0764
   62MOL    H3611138   4.122   4.960   5.571 -0.2162 -1.2557 -2.0926
   62MOL    H3711139   4.032   5.020   5.434  0.0092 -2.5862 -0.2286
   62MOL    C3811140   4.084   5.293   5.460 -0.4572  0.1575 -0.2073
   62MOL    C3911141   4.180   5.414   5.434 -0.2841  0.7591 -0.7374
   62MOL    C4011142   4.317   5.369   5.378 -0.1840  0.2395  0.6023
   62MOL    H4111143   4.067   5.242   5.365  1.9140 -1.7064  0.3061
   62MOL    H4211144   3.985   5.334   5.476 -0.4145  0.0427  0.3708
   62MOL    H4311145   4.192   5.461   5.531 -0.4497 -0.0416 -0.3229
   62MOL    H4411146   4.392   5.443   5.404  0.7870 -0.9515  1.2509
   62MOL    H4511147   4.351   5.270   5.408  0.1573 -0.8454 -3.0509
   62MOL    H4611148   4.320   5.385   5.270 -1.6369  0.5919  0.6064
   62MOL    C4711149   4.117   5.513   5.330  0.6451 -0.0125 -0.4443
   62MOL    C4811150   4.006   5.607   5.388  0.4483  0.4435  0.0244
   62MOL    C4911151   4.066   5.707   5.488 -0.4011 -0.4307  0.1392
   62MOL    H5011152   4.197   5.580   5.298  0.8900  1.5088  3.1071
   62MOL    H5111153   4.086   5.459   5.240  1.0807 -1.5809  0.3288
   62MOL    H5211154   3.932   5.556   5.450 -1.0703  1.2593 -1.0700
   62MOL    H5311155   3.990   5.766   5.540 -0.9583 -0.1960 -0.9419
   62MOL    H5411156   4.128   5.658   5.564 -0.8789 -1.5166 -0.1598
   62MOL    H5511157   4.131   5.777   5.435 -0.9595 -0.1620 -0.1894
   62MOL    C5611158   3.914   5.676   5.280  0.3929 -0.3414  0.3008
   62MOL    C5711159   3.833   5.591   5.184 -0.2504 -0.3631  0.3709
   62MOL    C5811160   3.738   5.501   5.254  0.2506  0.0534 -0.2514
   62MOL    H5911161   3.847   5.732   5.345  0.4784  2.9082 -2.2889
   62MOL    H6011162   3.981   5.747   5.232  0.6712 -1.0566 -0.3774
   62MOL    H6111163   3.904   5.523   5.138 -2.6263 -1.3351 -1.9558
   62MOL    H6211164   3.762   5.443   5.343 -0.5842  0.2385  0.1114
   62MOL    H6311165   3.654   5.561   5.292  0.1435 -0.1530 -0.1626
   62MOL    H6411166   3.701   5.428   5.182  0.1849 -1.6413  1.4544
   62MOL    C6511167   3.762   5.666   5.072 -0.2701  0.2960 -0.1283
   62MOL    C6611168   3.861   5.700   4.955  0.9345  0.0530 -0.1649
   62MOL    C6711169   3.870   5.570   4.873 -0.2903  0.6931  0.0631
   62MOL    H6811170   3.662   5.637   5.040 -0.6416  1.5368 -0.1331
   62MOL    H6911171   3.745   5.762   5.121 -1.7604 -0.0347  0.0026
   62MOL    H7011172   3.958   5.739   4.987  0.3930  1.2466  0.0726
   62MOL    H7111173   3.774   5.532   4.837  0.2831 -3.1150  2.2628
   62MOL    H7211174   3.932   5.580   4.784  1.7088 -1.5125  1.1465
   62MOL    H7311175   3.915   5.487   4.927  1.7604  2.3082  0.9301
   62MOL    C7411176   3.811   5.827   4.869  0.0801  1.1854  0.2722
   62MOL    C7511177   3.900   5.866   4.747 -0.5440 -0.0295 -0.3183
   62MOL    C7611178   3.824   5.957   4.654 -0.2730 -1.1366  0.1629
   62MOL    H7711179   3.707   5.813   4.839 -0.6950  1.0094  2.9212
   62MOL    H7811180   3.810   5.911   4.937 -1.4775  1.4874 -0.1106
   62MOL    H7911181   3.914   5.780   4.682 -3.8811 -0.5261 -0.4796
   62MOL    H8011182   3.880   5.958   4.561  1.6433 -1.5524  1.2861
   62MOL    H8111183   3.725   5.921   4.627 -1.2572  1.0883  0.6717
   62MOL    H8211184   3.816   6.056   4.700 -0.8926 -0.7179 -0.8358
   62MOL    C8311185   4.029   5.921   4.800  0.2453  0.4057  0.4334
   62MOL    C8411186   4.146   5.949   4.706  0.3603  0.2560  0.7211
   62MOL    C8511187   4.272   6.006   4.777 -0.3731  0.1680  0.0677
   62MOL    H8611188   4.020   6.017   4.851 -1.1864  0.9084 -0.7249
   62MOL    H8711189   4.080   5.874   4.884  1.3008 -1.9739 -1.4757
   62MOL    H8811190   4.106   6.025   4.640 -0.8286 -0.9915 -0.0312
   62MOL    H8911191   4.357   6.021   4.710 -0.9782  0.0970 -0.7117
   62MOL    H9011192   4.241   6.090   4.840 -2.7783 -1.7601  1.5426
   62MOL    H9111193   4.310   5.929   4.845  0.5653  0.2116 -0.3983
   62MOL    C9211194   4.184   5.818   4.633 -0.3307  0.0735 -0.0538
   62MOL    C9311195   4.294   5.818   4.531  0.1143 -0.3456 -0.3322
   62MOL    C9411196   4.313   5.676   4.474 -0.2307  0.2879  0.2268
   62MOL    H9511197   4.213   5.746   4.710 -2.1147 -0.7497 -0.1234
   62MOL    H9611198   4.099   5.775   4.581  1.2645 -1.2845 -1.6051
   62MOL    H9711199   4.384   5.834   4.591 -0.6321  1.0931  0.4348
   62MOL    H9811200   4.320   5.597   4.549 -2.4330  0.2446  0.4243
   62MOL    H9911201   4.229   5.648   4.410  0.8828  0.9426 -1.5321
   62MOL   H10011202   4.403   5.675   4.413  1.3505 -0.7163  2.5120
   62MOL   C10111203   4.276   5.935   4.424  0.4821  0.1612  0.1938
   62MOL   C10211204   4.370   5.927   4.304 -0.9716  0.6629 -0.5699
   62MOL   C10311205   4.334   6.014   4.183  0.1443 -0.4741  0.1944
   62MOL   H10411206   4.174   5.927   4.387  0.8774  0.6206 -1.0152
   62MOL   H10511207   4.287   6.035   4.467 -0.1991 -0.6892  2.4161
   62MOL   H10611208   4.377   5.821   4.283  1.0307  0.8892 -1.1287
   62MOL   H10711209   4.241   5.974   4.142 -0.2932 -0.4261  1.1360
   62MOL   H10811210   4.321   6.120   4.205  0.9025 -0.5262  0.8972
   62MOL   H10911211   4.419   6.009   4.115 -0.4515  0.6435 -0.6532
   62MOL   C11011212   4.512   5.963   4.359  0.1223  0.2639  0.4369
   62MOL   C11111213   4.632   5.907   4.272  0.2333 -0.4899 -0.3267
   62MOL   C11211214   4.685   6.011   4.171  0.3145  0.2686 -0.6269
   62MOL   H11311215   4.524   6.069   4.384 -1.0840  0.6873 -0.6975
   62MOL   H11411216   4.524   5.927   4.461  1.0111  0.6365  0.4668
   62MOL   H11511217   4.588   5.825   4.214 -4.4088  0.3229  1.7778
   62MOL   H11611218   4.786   5.974   4.158  0.7404 -0.0894  3.2139
   62MOL   H11711219   4.642   5.997   4.071 -0.0548 -1.0485 -0.2942
   62MOL   H11811220   4.686   6.119   4.187 -2.3502  0.1008  0.9119
   62MOL   C11911221   4.756   5.861   4.356 -0.1530 -0.1828  0.2735
   62MOL   C12011222   4.733   5.723   4.432 -0.1752 -0.0320  0.2600
   62MOL   C12111223   4.753   5.589   4.352 -0.2010 -0.3638  0.4085
   62MOL   H12211224   4.852   5.857   4.304 -1.0881 -0.5374 -1.4521
   62MOL   H12311225   4.782   5.933   4.435 -1.7358 -0.6210  1.2086
   62MOL   H12411226   4.626   5.722   4.449 -0.4197 -1.8933 -1.2156
   62MOL   H12511227   4.725   5.614   4.250  0.5622 -0.0402  0.2749
   62MOL   H12611228   4.859   5.563   4.353  0.1227  0.9367  0.5416
   62MOL   H12711229   4.695   5.501   4.381  0.7197 -0.9480  0.5070
   62MOL   C12811230   4.803   5.717   4.569  0.1473 -0.1763 -0.0322
   62MOL   C12911231   4.745   5.813   4.684  0.2308  0.3614  0.5830
   62MOL   C13011232   4.616   5.760   4.734 -0.1388  0.4306 -0.2340
   62MOL   H13111233   4.794   5.614   4.604 -3.5635 -0.0209 -0.2974
   62MOL   H13211234   4.907   5.738   4.548 -0.4747  3.1779  0.0760
   62MOL   H13311235   4.721   5.914   4.652 -0.7392  0.0706  0.3649
   62MOL   H13411236   4.561   5.831   4.796 -0.8896 -1.7753  1.7294
   62MOL   H13511237   4.552   5.719   4.655  1.5420 -1.5611 -0.6062
   62MOL   H13611238   4.636   5.674   4.798 -0.4526  1.0576  0.7297
   62MOL   C13711239   4.849   5.827   4.795  0.1210  0.5910 -0.5429
   62MOL   C13811240   4.917   5.969   4.782  0.1958 -0.2561  0.1475
   62MOL   C13911241   4.812   6.081   4.840  0.1974 -0.2099  0.1902
   62MOL   H14011242   4.816   5.812   4.898 -1.4599 -0.2935 -1.1529
   62MOL   H14111243   4.914   5.741   4.778  1.0981  1.5435 -1.6644
   62MOL   H14211244   4.931   5.988   4.676  3.2457  0.2761  0.5963
   62MOL   H14311245   4.806   6.079   4.949 -0.0710 -0.0169  0.1782
   62MOL   H14411246   4.825   6.183   4.805  0.3394  0.2525  1.5492
   62MOL   H14511247   4.712   6.060   4.803  0.5846  0.1476 -1.1020
   62MOL   C14611248   5.054   5.982   4.853  0.0391  1.0093 -0.6016
   62MOL   C14711249   5.155   6.097   4.814 -0.0260 -0.0337 -0.0501
   62MOL   C14811250   5.294   6.066   4.861  0.4819  0.3070 -0.0572
   62MOL   H14911251   5.043   5.977   4.961 -2.6767  0.4518 -0.8828
   62MOL   H15011252   5.119   5.900   4.822 -0.1268  0.6110  0.0976
   62MOL   H15111253   5.130   6.179   4.881 -1.6226 -0.4744 -0.0739
   62MOL   H15211254   5.289   6.023   4.961 -0.2488  2.0462  0.6544
   62MOL   H15311255   5.349   6.010   4.785  0.4338 -0.9785  0.8336
   62MOL   H15411256   5.352   6.157   4.876 -0.7866  1.4200 -1.6773
   62MOL   C15511257   5.164   6.162   4.667 -0.2036  0.6874  0.6354
   62MOL   C15611258   5.122   6.309   4.656 -0.6421 -0.6097 -0.1188
   62MOL   C15711259   5.242   6.393   4.698 -0.4240 -0.8290  0.3444
   62MOL   H15811260   5.266   6.175   4.630 -1.0718  1.0806 -1.7432
   62MOL   H15911261   5.124   6.092   4.594  0.9230  0.7753 -0.0825
   62MOL   H16011262   5.047   6.336   4.730  0.4392  1.3215  0.3375
   62MOL   H16111263   5.211   6.498   4.701  2.9349  0.2186 -0.1743
   62MOL   H16211264   5.293   6.376   4.792 -0.0163  0.8861  0.4523
   62MOL   H16311265   5.321   6.382   4.624  0.1284 -2.5464  1.1770
   62MOL   C16411266   5.082   6.338   4.505 -0.3252 -0.5433 -0.0551
   62MOL   C16511267   4.946   6.272   4.458 -0.0535  0.6896  0.4158
   62MOL   C16611268   4.822   6.330   4.521 -1.2183  0.5169  0.3535
   62MOL   H16711269   5.074   6.446   4.492  0.1469 -0.5974 -0.8330
   62MOL   H16811270   5.165   6.303   4.444 -0.7567  1.2740 -1.7268
   62MOL   H16911271   4.945   6.163   4.459  5.1973  0.5087  0.0990
   62MOL   H17011272   4.794   6.428   4.483 -0.2924  0.8182  0.4257
   62MOL   H17111273   4.737   6.262   4.514 -0.0052 -1.0534  0.4287
   62MOL   H17211274   4.847   6.355   4.624 -2.0634 -0.2442  0.7598
   62MOL   C17311275   4.921   6.288   4.303 -0.4291  0.2367  0.4482
   62MOL   C17411276   5.016   6.209   4.211 -0.2464 -0.4156  0.3243
   62MOL   C17511277   5.007   6.258   4.068 -0.1941 -0.0621 -0.5122
   62MOL   H17611278   4.820   6.255   4.279  0.2520 -2.7126  1.5092
   62MOL   H17711279   4.938   6.394   4.282  0.2331  0.0966  0.2636
   62MOL   H17811280   4.990   6.103   4.218 -0.1309 -0.3046  3.4167
   62MOL   H17911281   4.904   6.262   4.035 -1.0273  0.1606  1.9752
   62MOL   H18011282   5.055   6.356   4.064 -0.6657  0.1652 -0.5490
   62MOL   H18111283   5.067   6.186   4.013  2.0257  0.0893  1.6164
   62MOL   H18211284   5.119   6.221   4.244  0.2078 -0.1730 -1.1495
   63MOL     C111285   0.125   4.285   1.349  0.2627  0.6888 -0.0398
   63MOL     C211286   0.008   4.206   1.285  0.9360 -0.0908 -0.8221
   63MOL     C311287   7.668   4.092   1.379  0.2742 -0.1218 -0.6775
   63MOL     H411288   0.172   4.350   1.275  3.0220  1.3345  2.1874
   63MOL     H511289   0.197   4.223   1.403  0.9206  0.7215 -0.8750
   63MOL     H611290   0.036   4.161   1.190 -1.1401 -2.9321 -0.1448
   63MOL     H711291   0.045   4.013   1.368  1.0399  0.6702 -1.2972
   63MOL     H811292   7.655   4.122   1.483 -1.8567  0.0600 -0.9824
   63MOL     H911293   7.572   4.049   1.352 -0.1235 -0.0675  0.6379
   63MOL    H1011294   0.074   4.351   1.419 -0.6401  0.6588 -0.6607
   63MOL    C1111295   7.585   4.292   1.246  0.0526 -0.5899  0.1874
   63MOL    C1211296   7.597   4.397   1.130 -0.3820 -0.3605  0.0375
   63MOL    C1311297   7.639   4.342   0.999 -0.1093 -0.2748  0.6719
   63MOL    H1411298   7.521   4.216   1.202  1.6565 -1.4007 -0.7828
   63MOL    H1511299   7.543   4.338   1.336  0.5434 -1.0651  0.6600
   63MOL    H1611300   7.677   4.467   1.154  1.1104 -1.7837 -0.7147
   63MOL    H1711301   0.031   4.284   1.020  0.0715 -0.0749  0.4617
   63MOL    H1811302   7.576   4.278   0.937 -0.0431  0.3294 -0.0290
   63MOL    H1911303   7.667   4.423   0.932 -0.5020 -1.0678 -0.4762
   63MOL    C2011304   7.465   4.471   1.112 -0.2395 -0.3140  0.7023
   63MOL    C2111305   7.424   4.585   1.207 -0.8271 -0.7311 -1.0759
   63MOL    C2211306   7.514   4.708   1.184 -0.1322  0.4119  0.1849
   63MOL    H2311307   7.460   4.505   1.009  0.7988 -3.6274 -0.5094
   63MOL    H2411308   7.385   4.396   1.112 -1.2286  0.7250  0.4072
   63MOL    H2511309   7.431   4.551   1.311 -0.5354  2.9511  0.2008
   63MOL    H2611310   7.492   4.761   1.091  0.1064  1.3631  0.6623
   63MOL    H2711311   7.485   4.782   1.259 -1.3396 -0.4909  0.6247
   63MOL    H2811312   7.621   4.688   1.180 -0.2307  0.1120 -1.2091
   63MOL    C2911313   7.279   4.612   1.175  0.7170  0.0754 -0.2173
   63MOL    C3011314   7.216   4.724   1.260 -0.2731 -0.1945 -0.5562
   63MOL    C3111315   7.140   4.829   1.170  0.2139 -0.2774  0.6540
   63MOL    H3211316   7.272   4.639   1.069 -0.7386  1.1349  0.1343
   63MOL    H3311317   7.221   4.520   1.188 -0.2228  0.5968 -0.6515
   63MOL    H3411318   7.283   4.779   1.326 -0.2245 -0.6037 -0.2620
   63MOL    H3511319   7.115   4.922   1.222 -0.0396 -1.8748  3.4661
   63MOL    H3611320   7.220   4.860   1.103  0.7848 -2.0386  0.5058
   63MOL    H3711321   7.054   4.795   1.114  1.7674 -0.4884 -1.6740
   63MOL    C3811322   7.116   4.664   1.362 -0.3633  0.0162 -0.3851
   63MOL    C3911323   7.044   4.759   1.469 -0.0064  1.0637  0.4622
   63MOL    C4011324   6.932   4.682   1.536  0.6525  0.1565 -0.4063
   63MOL    H4111325   7.034   4.623   1.302 -0.0075 -0.0622 -0.8221
   63MOL    H4211326   7.160   4.585   1.423 -0.9544  1.0908  1.4683
   63MOL    H4311327   7.003   4.847   1.419  1.4547 -0.1366 -2.9852
   63MOL    H4411328   6.976   4.611   1.606 -0.2349 -0.6593 -0.6648
   63MOL    H4511329   6.864   4.746   1.590  0.0575 -0.3628 -0.5369
   63MOL    H4611330   6.867   4.628   1.467  0.9556  0.8264 -1.2268
   63MOL    C4711331   7.138   4.821   1.577  0.2633 -0.0509  0.0815
   63MOL    C4811332   7.087   4.922   1.684 -0.0622  0.3601 -0.3140
   63MOL    C4911333   7.181   4.926   1.804  0.4068  0.3243 -0.5322
   63MOL    H5011334   7.178   4.733   1.628  0.0962  0.6235  1.3988
   63MOL    H5111335   7.222   4.877   1.536  0.0904  0.1221 -0.0372
   63MOL    H5211336   7.003   4.876   1.737 -1.0848  1.4623 -0.9634
   63MOL    H5311337   7.267   4.986   1.776  0.3743  0.0817 -1.1592
   63MOL    H5411338   7.139   4.985   1.886 -1.0650  0.0522 -1.0625
   63MOL    H5511339   7.214   4.829   1.840 -0.4478  0.0438 -0.4744
   63MOL    C5611340   7.055   5.055   1.628 -0.4341 -0.0895 -0.1608
   63MOL    C5711341   6.998   5.168   1.725  0.2525 -0.1334 -0.5135
   63MOL    C5811342   6.991   5.300   1.643  0.5443  0.1432  0.3941
   63MOL    H5911343   7.146   5.100   1.587  0.6668  0.7685  3.1229
   63MOL    H6011344   6.988   5.045   1.542  2.2079 -2.8812 -2.0151
   63MOL    H6111345   7.059   5.177   1.815 -0.8829 -2.5410  0.5378
   63MOL    H6211346   7.088   5.343   1.620  0.0224  0.3604 -1.5398
   63MOL    H6311347   6.939   5.291   1.547  1.8281 -0.4048 -0.2622
   63MOL    H6411348   6.929   5.375   1.692  0.0537 -0.4289  0.6526
   63MOL    C6511349   6.853   5.128   1.777  0.3609 -0.6758  0.7182
   63MOL    C6611350   6.810   5.198   1.905  0.3629 -0.4949  0.7012
   63MOL    C6711351   6.659   5.227   1.908  0.0595  0.0902 -0.3256
   63MOL    H6811352   6.775   5.141   1.702 -0.0245 -2.4936  0.7698
   63MOL    H6911353   6.854   5.020   1.792  0.2626 -0.6971  0.5763
   63MOL    H7011354   6.870   5.288   1.910  0.7465 -0.8411  2.6670
   63MOL    H7111355   6.640   5.327   1.945 -0.5638 -0.2693  0.3515
   63MOL    H7211356   6.610   5.224   1.810 -0.0898  0.9496 -0.2781
   63MOL    H7311357   6.606   5.151   1.966 -0.0002 -0.6375 -1.3224
   63MOL    C7411358   6.850   5.123   2.036  0.8672 -0.4176 -0.6444
   63MOL    C7511359   6.854   5.210   2.164  0.2558  0.3290  0.5203
   63MOL    C7611360   6.849   5.125   2.290  0.8278 -0.1016  0.3844
   63MOL    H7711361   6.780   5.041   2.054  1.4576 -0.6563  0.6714
   63MOL    H7811362   6.947   5.075   2.024  1.5912  1.1653 -1.2129
   63MOL    H7911363   6.763   5.270   2.168  0.4069  0.6847 -1.2940
   63MOL    H8011364   6.866   5.183   2.380 -2.8656  1.6444  0.0400
   63MOL    H8111365   6.750   5.080   2.298  0.2142  1.0198 -0.7091
   63MOL    H8211366   6.922   5.045   2.275  0.8550  0.2748 -1.6531
   63MOL    C8311367   6.970   5.313   2.167  0.5969 -0.1429  0.2873
   63MOL    C8411368   6.984   5.422   2.271 -0.1807  0.3172  0.2125
   63MOL    C8511369   7.120   5.497   2.235 -0.5719  0.3578 -0.4092
   63MOL    H8611370   7.060   5.251   2.171  1.0093  0.4772  0.7573
   63MOL    H8711371   6.981   5.364   2.071  1.1092 -0.5882  0.1062
   63MOL    H8811372   6.993   5.382   2.372  0.7553  0.0909  0.0493
   63MOL    H8911373   7.197   5.420   2.228 -0.5092  0.4972 -1.2970
   63MOL    H9011374   7.116   5.560   2.146 -0.9779 -0.2645 -0.8361
   63MOL    H9111375   7.165   5.555   2.315  0.1098 -2.0657  1.0347
   63MOL    C9211376   6.872   5.526   2.299 -0.2171 -0.1163 -0.6363
   63MOL    C9311377   6.748   5.481   2.376  0.1311  0.0692 -0.4796
   63MOL    C9411378   6.790   5.481   2.528 -0.2304  0.0704  0.6891
   63MOL    H9511379   6.921   5.603   2.359 -1.4862 -1.9676  2.9833
   63MOL    H9611380   6.846   5.575   2.205  1.4289  3.1274  0.5329
   63MOL    H9711381   6.707   5.384   2.346 -1.0609  0.6546 -0.7929
   63MOL    H9811382   6.884   5.433   2.555  1.0691  1.2603 -1.5893
   63MOL    H9911383   6.795   5.585   2.559 -0.6252 -0.1125  1.3837
   63MOL   H10011384   6.706   5.440   2.585 -0.2041 -0.4854  0.3269
   63MOL   C10111385   6.621   5.571   2.360 -0.4909 -0.0964  0.0328
   63MOL   C10211386   6.564   5.582   2.218  0.2320 -0.0453 -0.8876
   63MOL   C10311387   6.496   5.450   2.185  0.6326  0.4279 -0.1827
   63MOL   H10411388   6.539   5.532   2.421 -0.0959 -0.2947  0.4389
   63MOL   H10511389   6.653   5.671   2.392 -2.4242  1.4895 -2.7940
   63MOL   H10611390   6.633   5.613   2.140 -1.6344 -1.5585 -3.2172
   63MOL   H10711391   6.435   5.407   2.265  2.6226  0.4273  1.3876
   63MOL   H10811392   6.430   5.466   2.101  0.0639  0.0738  0.1963
   63MOL   H10911393   6.570   5.372   2.163  0.7986  0.6229 -0.3163
   63MOL   C11011394   6.450   5.685   2.212 -0.4660  0.0650  0.5860
   63MOL   C11111395   6.422   5.750   2.071 -0.2770 -0.5153  0.4122
   63MOL   C11211396   6.287   5.820   2.055 -0.0576  0.4503 -0.0053
   63MOL   H11311397   6.361   5.646   2.261 -1.9315  0.4782 -1.7108
   63MOL   H11411398   6.462   5.763   2.288  0.6930 -1.6974  2.2689
   63MOL   H11511399   6.411   5.659   2.011 -3.1387  1.5693 -2.4333
   63MOL   H11611400   6.260   5.854   1.955 -3.1208  2.0072  1.2929
   63MOL   H11711401   6.210   5.754   2.095  1.9930 -2.2458 -0.3232
   63MOL   H11811402   6.284   5.907   2.120  2.6957  1.3666 -1.0504
   63MOL   C11911403   6.534   5.845   2.034 -0.2855 -0.1076 -0.3371
   63MOL   C12011404   6.595   5.805   1.896  0.0001 -0.1419 -1.0450
   63MOL   C12111405   6.508   5.855   1.780  0.1159  0.8696 -1.0946
   63MOL   H12211406   6.498   5.948   2.027  0.1077  0.0938  0.5146
   63MOL   H12311407   6.613   5.839   2.109  1.6903  0.0489 -2.3590
   63MOL   H12411408   6.600   5.696   1.890 -2.6760 -0.9114  5.4967
   63MOL   H12511409   6.413   5.805   1.761  0.2828  0.8921 -2.0190
   63MOL   H12611410   6.500   5.960   1.807 -2.5588 -0.0538  1.9772
   63MOL   H12711411   6.565   5.848   1.687  1.0503  0.3970 -0.5019
   63MOL   C12811412   6.740   5.859   1.888  0.7523  0.2160  0.1846
   63MOL   C12911413   6.844   5.763   1.948 -1.2662  0.2524  0.4466
   63MOL   C13011414   6.855   5.628   1.870 -0.0200 -0.4341 -0.3026
   63MOL   H13111415   6.781   5.880   1.789  0.1439  0.3281 -0.0434
   63MOL   H13211416   6.740   5.954   1.940 -1.8119  0.1425  0.3835
   63MOL   H13311417   6.829   5.744   2.054  2.6265  3.4965  1.7243
   63MOL   H13411418   6.834   5.640   1.764 -0.5582  1.2661 -0.0197
   63MOL   H13511419   6.956   5.589   1.869 -0.3739 -1.3910  0.4943
   63MOL   H13611420   6.787   5.550   1.905 -2.2089  1.5260 -0.0597
   63MOL   C13711421   6.985   5.824   1.957  0.4689  0.5525 -0.0541
   63MOL   C13811422   7.000   5.948   2.056  0.1110 -0.1082 -0.4558
   63MOL   C13911423   6.971   5.905   2.207  0.1185  0.4337 -0.3480
   63MOL   H14011424   7.057   5.753   1.995 -1.0753 -0.2470  1.4206
   63MOL   H14111425   7.021   5.842   1.855 -0.7120 -0.2630 -0.6310
   63MOL   H14211426   6.935   6.028   2.024 -1.3458 -1.8286 -1.8775
   63MOL   H14311427   7.005   5.977   2.281  0.5147 -0.1384  0.0270
   63MOL   H14411428   6.868   5.873   2.226  0.1667 -0.0374 -0.8450
   63MOL   H14511429   7.025   5.813   2.227 -1.2382 -0.5491 -1.0716
   63MOL   C14611430   7.148   6.005   2.052 -0.5532  0.7870 -0.0204
   63MOL   C14711431   7.177   6.144   2.099  0.0875 -0.1768  0.6233
   63MOL   C14811432   7.331   6.161   2.104 -0.0964  0.2545  0.4048
   63MOL   H14911433   7.215   5.937   2.103  0.8464  2.3016  0.2120
   63MOL   H15011434   7.186   5.995   1.950 -1.4366  1.3597 -0.4148
   63MOL   H15111435   7.135   6.153   2.199  0.6833  0.9737  0.7802
   63MOL   H15211436   7.386   6.098   2.175  0.7136  0.3695 -0.1154
   63MOL   H15311437   7.385   6.154   2.010  0.3093 -1.1306  0.7307
   63MOL   H15411438   7.348   6.264   2.135 -0.7705  0.3022  0.6242
   63MOL   C15511439   7.114   6.258   2.013 -0.2000 -0.5621 -0.3741
   63MOL   C15611440   7.146   6.410   2.041 -0.4520 -0.3429 -0.7008
   63MOL   C15711441   7.095   6.510   1.937  0.8028  0.1775 -0.9344
   63MOL   H15811442   7.125   6.245   1.906  2.3392 -0.1101 -0.2104
   63MOL   H15911443   7.007   6.260   2.036 -0.3061 -3.4696 -0.3963
   63MOL   H16011444   7.254   6.417   2.025 -0.3111  0.2078  0.4275
   63MOL   H16111445   7.006   6.559   1.978  0.6702  0.8093 -1.9809
   63MOL   H16211446   7.162   6.593   1.919  0.0874  1.6040  2.4787
   63MOL   H16311447   7.071   6.465   1.841  1.1351 -1.2948 -0.3398
   63MOL   C16411448   7.102   6.454   2.181  0.8005 -0.4087  0.1128
   63MOL   C16511449   7.155   6.581   2.231 -0.9800  0.3633 -0.2110
   63MOL   C16611450   7.060   6.648   2.335 -0.3773 -0.1236 -0.1751
   63MOL   H16711451   6.995   6.469   2.186  0.9459  1.2970 -1.4038
   63MOL   H16811452   7.127   6.374   2.251  2.5119 -2.7640 -3.0348
   63MOL   H16911453   7.171   6.642   2.142  1.9438 -0.1696 -0.0835
   63MOL   H17011454   7.105   6.733   2.386 -1.6426 -0.0455  0.8549
   63MOL   H17111455   6.957   6.663   2.302  0.0659 -0.4917 -1.7334
   63MOL   H17211456   7.055   6.578   2.419  0.1791 -0.7199 -0.6400
   63MOL   C17311457   7.295   6.562   2.292 -1.2847  1.0547 -0.4676
   63MOL   C17411458   7.382   6.682   2.289  0.4311  0.4195 -0.1628
   63MOL   C17511459   7.445   6.713   2.147  0.4020 -0.6504  0.1943
   63MOL   H17611460   7.295   6.526   2.395  3.9632  1.3109 -0.2115
   63MOL   H17711461   7.347   6.486   2.233  0.1881  1.0960  0.7426
   63MOL   H17811462   7.456   6.683   2.368  0.0535  0.6082  0.1903
   63MOL   H17911463   7.514   6.798   2.144 -0.6316  0.1934 -0.1065
   63MOL   H18011464   7.493   6.620   2.116  0.4699 -1.0243  1.3827
   63MOL   H18111465   7.362   6.739   2.082  1.1697 -0.2902 -0.6697
   63MOL   H18211466   7.324   6.769   2.318  0.6833  1.0316 -1.4582
   64MOL     C111467   7.472   7.448   1.171 -0.1058 -0.8306  0.1519
   64MOL     C211468   7.322   7.428   1.197  0.2147 -0.2774  0.5907
   64MOL     C311469   7.247   7.507   1.080 -0.2322  0.1583 -0.5271
   64MOL     H411470   7.532   7.443   1.262 -0.9830 -2.4137  0.6523
   64MOL     H511471   7.487   7.548   1.129  0.3960 -0.4304  1.2693
   64MOL     H611472   7.302   7.463   1.298  0.3888  0.6080  0.3236
   64MOL     H711473   7.259   7.460   0.983  0.6525  0.8046 -0.7289
   64MOL     H811474   7.139   7.506   1.100  0.1677 -1.4381  1.7815
   64MOL     H911475   7.290   7.606   1.065 -1.7097  0.3003 -4.1371
   64MOL    H1011476   7.514   7.376   1.101 -1.6572 -0.9808 -0.6560
   64MOL    C1111477   7.274   7.284   1.194 -0.3254  0.1794  0.2400
   64MOL    C1211478   7.135   7.244   1.248  0.2007 -0.4807 -0.5067
   64MOL    C1311479   7.101   7.104   1.198  0.0558  0.3499 -0.0285
   64MOL    H1411480   7.267   7.272   1.086  0.8065  0.8744  0.0834
   64MOL    H1511481   7.355   7.222   1.232 -2.6431 -2.3653  1.2248
   64MOL    H1611482   7.067   7.311   1.197  1.4003 -0.0168 -1.5226
   64MOL    H1711483   7.000   7.079   1.232 -0.0077  1.7451  0.8937
   64MOL    H1811484   7.107   7.096   1.090 -0.9436 -1.2231  0.0139
   64MOL    H1911485   7.167   7.023   1.229 -0.6664 -0.5774 -0.8988
   64MOL    C2011486   7.122   7.269   1.400 -0.2864 -0.5910  0.1272
   64MOL    C2111487   7.022   7.371   1.454 -0.1116 -0.8440  0.4070
   64MOL    C2211488   7.069   7.517   1.424  0.1173 -0.2630 -0.2619
   64MOL    H2311489   7.096   7.176   1.450 -1.8392 -0.4918 -0.4616
   64MOL    H2411490   7.223   7.292   1.435 -1.4346  0.7644  2.7165
   64MOL    H2511491   7.036   7.366   1.562 -1.4460  0.6287  0.6653
   64MOL    H2611492   7.019   7.595   1.483  1.5508  1.0540 -0.7518
   64MOL    H2711493   7.170   7.530   1.460 -0.6594  3.2032  0.9237
   64MOL    H2811494   7.071   7.545   1.319  0.7602  0.5476 -0.0373
   64MOL    C2911495   6.873   7.357   1.411  0.4301  0.6720  0.4576
   64MOL    C3011496   6.774   7.434   1.500 -0.9882  0.2975 -0.8406
   64MOL    C3111497   6.633   7.447   1.441  0.2218  0.0191  0.0968
   64MOL    H3211498   6.870   7.391   1.307 -2.0008  2.2737  1.0183
   64MOL    H3311499   6.835   7.255   1.410  2.8998 -0.2732  0.1483
   64MOL    H3411500   6.809   7.537   1.494  0.8666 -0.3113 -0.8567
   64MOL    H3511501   6.636   7.495   1.344 -0.6566 -0.0924  0.0138
   64MOL    H3611502   6.594   7.350   1.412 -0.5164  0.8394 -1.7147
   64MOL    H3711503   6.560   7.502   1.500  0.4570  0.9807 -0.4914
   64MOL    C3811504   6.777   7.378   1.649  0.0049  0.4269  0.1461
   64MOL    C3911505   6.756   7.483   1.756  0.7347  0.5000  0.2352
   64MOL    C4011506   6.688   7.410   1.875  0.8732 -0.3929  0.7425
   64MOL    H4111507   6.701   7.299   1.653  0.9265 -0.6142 -1.9394
   64MOL    H4211508   6.869   7.321   1.658 -0.5495 -0.3548  0.9358
   64MOL    H4311509   6.691   7.563   1.719  0.7712  1.0669  1.3527
   64MOL    H4411510   6.594   7.362   1.848  1.8993 -1.8534 -0.2839
   64MOL    H4511511   6.747   7.329   1.917 -1.0560 -1.4313  1.4870
   64MOL    H4611512   6.652   7.475   1.955 -2.0338  0.6956 -1.3775
   64MOL    C4711513   6.892   7.542   1.800  0.5760 -0.5546  0.0351
   64MOL    C4811514   6.890   7.668   1.883  0.4883 -0.4131  0.1882
   64MOL    C4911515   6.933   7.631   2.022 -0.6430  0.5004 -0.1538
   64MOL    H5011516   6.958   7.462   1.834  0.8361 -0.9304 -1.3302
   64MOL    H5111517   6.937   7.566   1.704 -0.3078 -0.0587 -0.2624
   64MOL    H5211518   6.790   0.015   1.889 -0.0628 -2.0698  4.2588
   64MOL    H5311519   7.037   7.607   2.045 -0.4322  0.7875 -0.8135
   64MOL    H5411520   6.911   0.018   2.087 -0.7794 -1.0281  1.8242
   64MOL    H5511521   6.878   7.554   2.077  0.2302  0.3520  0.5265
   64MOL    C5611522   6.995   0.070   1.822 -0.1583  0.7609 -0.7792
   64MOL    C5711523   6.946   0.158   1.709 -0.2429 -0.2972 -0.3470
   64MOL    C5811524   6.822   0.243   1.747 -0.5534 -0.0923  0.5771
   64MOL    H5911525   7.034   0.125   1.909  2.1013 -1.9094 -0.0274
   64MOL    H6011526   7.085   0.013   1.798  1.1765  1.2494  2.5938
   64MOL    H6111527   6.904   0.094   1.632  1.1134  1.3789 -2.5592
   64MOL    H6211528   6.735   0.191   1.787 -0.8829  1.4571  1.9545
   64MOL    H6311529   6.851   0.326   1.812  0.5123 -1.0597  1.3728
   64MOL    H6411530   6.781   0.286   1.656  2.0470  2.2742  0.4428
   64MOL    C6511531   7.070   0.242   1.661  0.0521  0.7648 -0.5536
   64MOL    C6611532   7.040   0.325   1.532  0.2517 -0.5971  0.2590
   64MOL    C6711533   7.028   0.474   1.569  0.1497 -0.6016 -0.7090
   64MOL    H6811534   7.115   0.318   1.724  1.5553 -0.0415 -0.6404
   64MOL    H6911535   7.148   0.170   1.636 -0.9829 -0.3969 -0.5085
   64MOL    H7011536   6.942   0.293   1.495  1.8998 -2.2391 -2.8596
   64MOL    H7111537   7.006   0.536   1.483  0.5543 -0.0088 -0.3843
   64MOL    H7211538   6.954   0.486   1.649 -0.8262  0.0639 -1.6984
   64MOL    H7311539   7.123   0.510   1.609 -0.0241 -2.4480  1.4668
   64MOL    C7411540   7.162   0.305   1.431  0.8995 -0.3146 -0.1986
   64MOL    C7511541   7.153   0.189   1.330  0.5150  0.4210 -0.5099
   64MOL    C7611542   7.028   0.201   1.236  0.0765  0.4190  0.2281
   64MOL    H7711543   7.165   0.392   1.367 -1.3689 -1.0412 -1.3690
   64MOL    H7811544   7.250   0.297   1.495  1.1915  1.7482 -0.3130
   64MOL    H7911545   7.146   0.094   1.383  0.9285  1.0513  0.7120
   64MOL    H8011546   7.028   0.306   1.207  0.8443 -0.0718 -1.6137
   64MOL    H8111547   7.038   0.147   1.142  0.2752  0.7181  0.0763
   64MOL    H8211548   6.931   0.177   1.280  0.6819 -0.9799  0.8313
   64MOL    C8311549   7.288   0.168   1.255  0.1801 -0.1382 -0.0597
   64MOL    C8411550   7.423   0.177   1.333  0.0441 -0.9296  0.8816
   64MOL    C8511551   7.441   0.046   1.416 -0.0595 -0.0846  0.0559
   64MOL    H8611552   7.293   0.076   1.196  2.1286 -1.6781  2.4044
   64MOL    H8711553   7.283   0.246   1.179  0.6637  1.8127  1.8583
   64MOL    H8811554   7.419   0.257   1.407 -1.5798 -0.9468  0.8366
   64MOL    H8911555   7.435   7.656   1.351 -0.3111 -1.2863  1.6482
   64MOL    H9011556   7.524   0.051   1.486 -0.4358 -1.5988  0.6249
   64MOL    H9111557   7.354   0.045   1.482 -1.2420  2.8071 -1.3621
   64MOL    C9211558   7.542   0.226   1.248  0.1004  0.3629  0.0119
   64MOL    C9311559   7.678   0.230   1.327 -0.5396 -1.0825 -0.5820
   64MOL    C9411560   0.084   0.122   1.291 -0.5708  0.3995  0.1234
   64MOL    H9511561   7.546   0.162   1.160 -0.8450  0.3206 -0.0042
   64MOL    H9611562   7.522   0.318   1.192  0.7100 -0.8299 -2.2366
   64MOL    H9711563   7.660   0.208   1.432  0.1549  1.6599  0.1459
   64MOL    H9811564   0.109   0.123   1.185  1.8225 -2.0971  0.6095
   64MOL    H9911565   0.169   0.140   1.357  0.2699  0.5122 -0.9733
   64MOL   H10011566   0.028   0.032   1.316 -0.4388 -0.0548 -1.1810
   64MOL   C10111567   0.047   0.367   1.346 -0.2066  0.3177 -0.2676
   64MOL   C10211568   0.137   0.419   1.229  1.2487 -0.4478  0.1478
   64MOL   C10311569   0.073   0.403   1.089  0.2927 -0.0191 -0.6250
   64MOL   H10411570   7.672   0.439   1.383 -1.8789  0.7540 -4.1320
   64MOL   H10511571   0.111   0.346   1.432 -0.8462  0.5351  0.2695
   64MOL   H10611572   0.232   0.366   1.217  1.6214  0.4983 -1.1875
   64MOL   H10711573   0.034   0.302   1.076  1.7181 -0.8625  1.4795
   64MOL   H10811574   7.680   0.462   1.075 -0.0525 -0.8251 -1.8701
   64MOL   H10911575   0.155   0.421   1.020  1.0263  1.2531  0.5601
   64MOL   C11011576   0.155   0.573   1.242 -0.0164  0.0539  0.2373
   64MOL   C11111577   0.245   0.616   1.361  0.0001 -0.0804 -0.4658
   64MOL   C11211578   0.398   0.588   1.334  0.6211  0.2102 -0.1484
   64MOL   H11311579   0.206   0.614   1.155 -1.5958 -1.7111 -1.5656
   64MOL   H11411580   0.061   0.629   1.239 -0.1009 -0.0942  0.1039
   64MOL   H11511581   0.219   0.558   1.450 -0.6328  1.7879  0.6152
   64MOL   H11611582   0.425   0.663   1.259  0.0901 -1.4743 -2.0485
   64MOL   H11711583   0.458   0.610   1.422  0.2239  0.6809  0.0043
   64MOL   H11811584   0.414   0.489   1.291 -0.1702 -0.6748  1.5785
   64MOL   C11911585   0.211   0.757   1.412 -0.5796  0.9828  0.0441
   64MOL   C12011586   0.276   0.806   1.545  0.0765 -0.3330 -0.6119
   64MOL   C12111587   0.260   0.960   1.546  0.2270 -0.3832 -0.3403
   64MOL   H12211588   0.231   0.821   1.326 -3.0597  1.9508  0.1475
   64MOL   H12311589   0.104   0.758   1.434 -0.1217  0.9759  2.4297
   64MOL   H12411590   0.382   0.781   1.547  0.0836 -0.3184  2.4550
   64MOL   H12511591   0.306   0.989   1.641 -1.5840 -0.5783  0.6021
   64MOL   H12611592   0.313   1.009   1.464 -0.5802 -1.2622 -1.3956
   64MOL   H12711593   0.156   0.991   1.539  0.6974  1.3705  0.1597
   64MOL   C12811594   0.212   0.749   1.673  0.4076 -0.5787  0.2163
   64MOL   C12911595   0.253   0.605   1.726 -0.4349 -0.7054  0.4879
   64MOL   C13011596   0.407   0.595   1.753  0.0957 -0.1226  0.2355
   64MOL   H13111597   0.224   0.816   1.759  1.8698  0.7633 -1.0030
   64MOL   H13211598   0.104   0.741   1.656  0.5328 -2.3448  0.1929
   64MOL   H13311599   0.237   0.528   1.650 -3.6831  0.2827  0.0648
   64MOL   H13411600   0.423   0.503   1.810 -1.1258 -0.1423  0.5466
   64MOL   H13511601   0.463   0.577   1.661 -0.7093  0.5861 -0.3961
   64MOL   H13611602   0.443   0.677   1.815  1.4262 -2.5602  2.8174
   64MOL   C13711603   0.172   0.567   1.845 -0.5028  0.1797  0.4373
   64MOL   C13811604   0.022   0.552   1.836 -0.1480 -0.5986 -0.1829
   64MOL   C13911605   7.692   0.441   1.729  0.2835  0.8518 -0.1356
   64MOL   H14011606   0.224   0.488   1.898 -1.7342  0.2036  1.7154
   64MOL   H14111607   0.196   0.653   1.907  0.8178  2.2838 -2.8386
   64MOL   H14211608   7.680   0.651   1.812 -1.8067 -0.4115  3.0669
   64MOL   H14311609   7.584   0.431   1.713  0.5538  0.3877 -1.6827
   64MOL   H14411610   0.043   0.442   1.632 -1.9865  1.8035 -1.3035
   64MOL   H14511611   0.031   0.350   1.778 -0.8172 -0.2489 -1.3316
   64MOL   C14611612   7.671   0.521   1.979 -0.6299 -0.3906  0.4238
   64MOL   C14711613   7.526   0.484   1.992  0.5089  0.5141 -0.4854
   64MOL   C14811614   7.513   0.395   2.113  0.1315  0.2889  0.1582
   64MOL   H14911615   0.041   0.447   2.021 -0.1676  0.0482  0.4646
   64MOL   H15011616   0.007   0.606   2.038  2.4894  0.3742 -2.2965
   64MOL   H15111617   7.492   0.428   1.904 -0.3402 -0.4318  0.4249
   64MOL   H15211618   7.412   0.355   2.117 -0.2496  1.3757  2.3361
   64MOL   H15311619   7.581   0.310   2.107  0.0268  0.0887  1.5211
   64MOL   H15411620   7.537   0.447   2.206 -0.1989  0.0666  0.3710
   64MOL   C15511621   7.431   0.610   1.995  0.5744  0.3585  0.0437
   64MOL   C15611622   7.322   0.630   1.877  0.7242 -0.5763 -0.4490
   64MOL   C15711623   7.221   0.516   1.890  0.0753 -0.2773  0.3095
   64MOL   H15811624   7.401   0.623   2.099 -1.0412 -0.8141 -0.2561
   64MOL   H15911625   7.482   0.706   1.990  0.3826  0.4316 -0.6280
   64MOL   H16011626   7.356   0.613   1.775  1.0638 -1.8841 -0.1329
   64MOL   H16111627   7.186   0.499   1.992 -0.7400 -0.0889  0.0678
   64MOL   H16211628   7.137   0.544   1.826  0.2733  0.3045  0.3032
   64MOL   H16311629   7.264   0.430   1.839 -0.0732  1.5355 -3.0038
   64MOL   C16411630   7.251   0.762   1.876 -0.1747  0.5729  0.0051
   64MOL   C16511631   7.334   0.884   1.814 -0.2615  0.5687  0.9363
   64MOL   C16611632   7.343   0.889   1.653 -0.3463  0.7330 -0.4924
   64MOL   H16711633   7.162   0.748   1.815  0.2369 -0.1140 -0.4448
   64MOL   H16811634   7.217   0.781   1.978  0.4257  0.8851  0.1540
   64MOL   H16911635   7.433   0.870   1.858 -0.7493 -0.8619  1.6374
   64MOL   H17011636   7.377   0.797   1.606 -0.5432  0.4280 -0.0553
   64MOL   H17111637   7.242   0.912   1.619  0.1833  0.4490 -2.3116
   64MOL   H17211638   7.421   0.960   1.626  0.9273 -0.3535  0.2740
   64MOL   C17311639   7.292   1.018   1.874 -0.5458  1.1184  0.3053
   64MOL   C17411640   7.140   1.046   1.875 -0.0742  0.2396 -0.1184
   64MOL   C17511641   7.091   1.183   1.925 -0.0440  0.5207  0.4728
   64MOL   H17611642   7.322   1.020   1.979  2.4528  0.6179 -0.4876
   64MOL   H17711643   7.348   1.100   1.828 -0.6726  0.3971 -1.1805
   64MOL   H17811644   7.102   0.973   1.947 -0.0879 -0.7134 -1.0781
   64MOL   H17911645   7.142   1.198   2.020  1.3809 -0.4588 -0.1221
   64MOL   H18011646   7.121   1.269   1.865 -0.2643  0.4256  0.2216
   64MOL   H18111647   6.986   1.198   1.950 -0.6868 -0.9765 -1.1587
   64MOL   H18211648   7.097   1.008   1.782  1.1452 -0.1351 -0.5396
   65MOL     C111649   3.200   0.714   0.950 -0.5518 -0.1054  0.7973
   65MOL     C211650   3.334   0.799   0.934  0.3918  0.7255 -0.3134
   65MOL     C311651   3.429   0.754   1.041 -0.7203  0.3717 -0.1025
   65MOL     H411652   3.154   0.737   1.046  1.8357 -0.6613  2.1120
   65MOL     H511653   3.222   0.608   0.937  3.9139  0.7666  0.3279
   65MOL     H611654   3.310   0.905   0.935  1.0597  0.8804  0.6978
   65MOL     H711655   3.401   0.761   1.146  1.0989 -0.0831  0.4271
   65MOL     H811656   3.440   0.646   1.029 -0.4059  0.0910  2.4711
   65MOL     H911657   3.524   0.807   1.036 -2.3662  3.2788 -1.7327
   65MOL    H1011658   3.130   0.747   0.872 -2.0481  0.4062  2.3267
   65MOL    C1111659   3.396   0.768   0.796  0.1604  0.0462 -0.0819
   65MOL    C1211660   3.506   0.861   0.760  0.0570 -0.6111  0.2518
   65MOL    C1311661   3.518   0.853   0.606 -0.3116  0.3721  0.0582
   65MOL    H1411662   3.424   0.662   0.793  0.2212  0.0588  0.0629
   65MOL    H1511663   3.310   0.778   0.730 -0.7245 -0.0992  1.0462
   65MOL    H1611664   3.598   0.813   0.795  0.3105 -0.8332 -0.7002
   65MOL    H1711665   3.527   0.747   0.583 -0.1938 -0.0982  2.1393
   65MOL    H1811666   3.441   0.900   0.545  0.5390  0.0380 -1.2808
   65MOL    H1911667   3.612   0.902   0.579 -1.0259  1.8495  0.1941
   65MOL    C2011668   3.498   1.016   0.794  0.7379  0.1642 -0.1908
   65MOL    C2111669   3.628   1.100   0.798 -0.0113  0.2088 -0.7128
   65MOL    C2211670   3.594   1.240   0.852 -0.5327 -0.5419  0.0850
   65MOL    H2311671   3.429   1.065   0.726 -0.0196 -1.2352 -0.4368
   65MOL    H2411672   3.463   1.020   0.897  0.5987 -2.4013 -0.1162
   65MOL    H2511673   3.660   1.112   0.695 -0.0117 -1.0957 -0.8783
   65MOL    H2611674   3.686   1.295   0.830  1.0441 -3.0352  0.2225
   65MOL    H2711675   3.503   1.287   0.815 -0.4243 -0.2906  0.1352
   65MOL    H2811676   3.604   1.238   0.961  2.6068  0.0288 -0.1451
   65MOL    C2911677   3.749   1.023   0.863  0.3581 -0.2256 -0.1149
   65MOL    C3011678   3.882   1.103   0.875  0.0796  0.2158  0.1267
   65MOL    C3111679   3.996   1.020   0.940  0.2460  0.8217 -0.2911
   65MOL    H3211680   3.725   0.997   0.966  1.8808 -1.0440  0.0536
   65MOL    H3311681   3.779   0.933   0.808  3.2924 -0.6758  2.0957
   65MOL    H3411682   3.858   1.186   0.943 -2.2157  1.6082 -2.2776
   65MOL    H3511683   4.042   0.950   0.871 -0.6446 -1.0466  0.9771
   65MOL    H3611684   4.070   1.098   0.958 -0.3343  1.6551 -1.4043
   65MOL    H3711685   3.974   0.974   1.036 -2.2897  0.1316 -1.1516
   65MOL    C3811686   3.927   1.154   0.733  0.3040  0.1407  0.5181
   65MOL    C3911687   4.037   1.262   0.729 -0.0224  0.0387 -0.5480
   65MOL    C4011688   4.086   1.279   0.583 -0.1197  0.5579  1.0541
   65MOL    H4111689   3.963   1.070   0.674  2.5957  3.1569 -2.5788
   65MOL    H4211690   3.841   1.192   0.678  0.5567 -0.4304 -0.2865
   65MOL    H4311691   4.121   1.222   0.787 -1.7433  2.0369  3.4825
   65MOL    H4411692   4.099   1.179   0.543 -2.3275  1.1394 -1.2473
   65MOL    H4511693   4.007   1.333   0.532  0.6890  1.0311  0.2899
   65MOL    H4611694   4.186   1.322   0.582 -0.6432  1.8003  0.1863
   65MOL    C4711695   4.005   1.404   0.794  0.0791  0.0542 -0.2891
   65MOL    C4811696   4.119   1.510   0.800 -0.0454  0.1841  0.3915
   65MOL    C4911697   4.062   1.637   0.853  0.1334  0.3802  0.5880
   65MOL    H5011698   3.925   1.455   0.741  0.0412  0.5722  0.2584
   65MOL    H5111699   3.958   1.398   0.893  0.4303  1.6848 -0.0215
   65MOL    H5211700   4.144   1.532   0.696  1.0888  0.2881  0.6809
   65MOL    H5311701   3.978   1.662   0.788  0.7916 -0.7098 -0.7133
   65MOL    H5411702   4.022   1.625   0.954  1.4960  1.5001  1.2856
   65MOL    H5511703   4.134   1.719   0.846  0.1959  0.2909  0.1597
   65MOL    C5611704   4.256   1.466   0.866  0.1922 -0.5422  0.2089
   65MOL    C5711705   4.372   1.572   0.842  0.6158 -0.0684  0.1370
   65MOL    C5811706   4.503   1.528   0.919  0.1082 -0.3223  0.4994
   65MOL    H5911707   4.244   1.443   0.971  2.2076 -2.9513 -0.0552
   65MOL    H6011708   4.295   1.380   0.813 -0.1000 -1.0297  0.7854
   65MOL    H6111709   4.351   1.666   0.892  4.2949  0.1432  1.4651
   65MOL    H6211710   4.498   1.522   1.028  3.2015  1.6730  0.8341
   65MOL    H6311711   4.528   1.431   0.877 -0.0342  0.4203 -1.3715
   65MOL    H6411712   4.596   1.584   0.906  0.2801 -0.2744  1.8835
   65MOL    C6511713   4.401   1.597   0.695 -0.1330 -0.5657 -0.1904
   65MOL    C6611714   4.516   1.696   0.659 -0.5013  0.0706 -0.1242
   65MOL    C6711715   4.537   1.710   0.513  0.0078  0.4193  0.5789
   65MOL    H6811716   4.417   1.500   0.647  2.2630 -0.4413  0.2767
   65MOL    H6911717   4.314   1.650   0.656  0.4348 -0.1487 -0.8949
   65MOL    H7011718   4.615   1.663   0.691 -0.3910 -0.2525 -0.7892
   65MOL    H7111719   4.496   1.626   0.457 -2.9665  2.0364  0.2139
   65MOL    H7211720   4.488   1.789   0.456  0.1731 -1.0660 -1.6988
   65MOL    H7311721   4.645   1.705   0.498  0.1480 -0.2104  1.7432
   65MOL    C7411722   4.495   1.838   0.726 -0.0379  0.4396  0.7364
   65MOL    C7511723   4.634   1.910   0.742 -0.3093 -0.3186 -0.4195
   65MOL    C7611724   4.600   2.056   0.749 -0.1859  0.0228 -0.3515
   65MOL    H7711725   4.426   1.894   0.663  0.8475  0.8426  0.1088
   65MOL    H7811726   4.446   1.835   0.824 -0.4146  1.9108  0.6096
   65MOL    H7911727   4.700   1.912   0.656 -1.5499  0.8171 -1.3796
   65MOL    H8011728   4.686   2.123   0.757 -0.4315  0.7047 -3.0015
   65MOL    H8111729   4.534   2.077   0.664  1.5503 -0.2350 -1.8110
   65MOL    H8211730   4.548   2.074   0.842  0.2801  2.9404 -0.6056
   65MOL    C8311731   4.720   1.866   0.866 -0.1569 -0.5269  0.4780
   65MOL    C8411732   4.863   1.920   0.879  0.0973 -0.3461  0.5201
   65MOL    C8511733   4.924   1.860   1.005  0.3667  0.2886 -0.1053
   65MOL    H8611734   4.665   1.887   0.958 -0.0034  2.6396 -0.0861
   65MOL    H8711735   4.726   1.757   0.862 -0.5659 -0.5430  0.3044
   65MOL    H8811736   4.864   2.029   0.885  1.3052 -0.4300  1.9324
   65MOL    H8911737   4.919   1.752   0.990  1.3804  0.1840  0.2605
   65MOL    H9011738   5.030   1.883   1.009  0.1814  1.1812 -0.3137
   65MOL    H9111739   4.888   1.888   1.104 -0.6521 -0.9594 -0.1105
   65MOL    C9211740   4.953   1.877   0.757 -0.4071 -0.4209 -0.2819
   65MOL    C9311741   5.090   1.957   0.736  0.6209  0.3166  0.2074
   65MOL    C9411742   5.184   1.871   0.659  0.2036  0.5348  0.2646
   65MOL    H9511743   4.990   1.777   0.777 -1.8589 -0.7454  0.8864
   65MOL    H9611744   4.899   1.871   0.662 -0.7048  0.6851 -0.1937
   65MOL    H9711745   5.149   1.977   0.826 -0.9375  1.8516  0.9235
   65MOL    H9811746   5.282   1.917   0.648  0.2575  0.2428 -0.4974
   65MOL    H9911747   5.196   1.769   0.697  0.0040  0.6703  0.6985
   65MOL   H10011748   5.149   1.863   0.556  0.6044 -1.1001  0.2339
   65MOL   C10111749   5.072   2.094   0.666  0.3081  0.5283 -0.4088
   65MOL   C10211750   5.185   2.194   0.675  0.4639  0.0033  0.0626
   65MOL   C10311751   5.182   2.306   0.574  0.2818 -0.4032 -0.1022
   65MOL   H10411752   5.056   2.069   0.562 -0.3532  0.2331 -0.2404
   65MOL   H10511753   4.975   2.140   0.687 -0.2036 -1.3175  1.4686
   65MOL   H10611754   5.276   2.138   0.651  0.4203 -0.8151  1.7313
   65MOL   H10711755   5.200   2.269   0.473 -0.9688  1.6216 -1.0994
   65MOL   H10811756   5.085   2.356   0.581 -0.6343 -2.2916  0.8909
   65MOL   H10911757   5.257   2.379   0.603 -0.5898  0.7172 -0.5864
   65MOL   C11011758   5.210   2.247   0.818 -0.8647  0.5572 -0.2414
   65MOL   C11111759   5.088   2.301   0.894  0.1567 -0.6020 -0.5297
   65MOL   C11211760   5.100   2.246   1.039 -0.2445 -0.4528 -0.1795
   65MOL   H11311761   5.269   2.173   0.871  0.9981  0.5441 -2.2615
   65MOL   H11411762   5.284   2.327   0.821 -0.7704  0.4261  1.4587
   65MOL   H11511763   4.996   2.261   0.851  1.3190 -2.9054 -0.9413
   65MOL   H11611764   5.198   2.265   1.085 -1.6957  1.2002  2.3299
   65MOL   H11711765   5.031   2.287   1.112  1.8218  0.4667  1.3118
   65MOL   H11811766   5.080   2.141   1.018 -0.8631 -0.1119 -1.2867
   65MOL   C11911767   5.079   2.456   0.893 -0.2000 -0.5024  0.3992
   65MOL   C12011768   4.937   2.511   0.911 -0.0732  0.0474 -0.2975
   65MOL   C12111769   4.941   2.610   1.022  0.6039 -1.0579 -0.0382
   65MOL   H12211770   5.149   2.486   0.970 -1.4287  1.0743  0.9414
   65MOL   H12311771   5.104   2.501   0.796  0.8855 -0.3453  0.7464
   65MOL   H12411772   4.873   2.433   0.952 -0.9594  0.0397 -1.6672
   65MOL   H12511773   4.842   2.649   1.047  1.2205 -0.0067  0.7891
   65MOL   H12611774   4.981   2.558   1.108  0.0875 -1.7626 -0.2211
   65MOL   H12711775   5.019   2.680   0.993 -0.3207  0.5503  1.3085
   65MOL   C12811776   4.867   2.573   0.790 -0.1177 -0.1704 -0.5792
   65MOL   C12911777   4.809   2.478   0.680 -0.1294 -0.1076  0.0028
   65MOL   C13011778   4.704   2.387   0.739 -0.0242  0.2673 -0.1571
   65MOL   H13111779   4.785   2.636   0.825 -0.6720 -0.7697 -0.7728
   65MOL   H13211780   4.936   2.645   0.747  1.1305 -0.2916  1.1338
   65MOL   H13311781   4.894   2.417   0.651  0.9960  0.7021  1.5884
   65MOL   H13411782   4.617   2.441   0.780  0.4828  0.9579  0.0252
   65MOL   H13511783   4.669   2.324   0.658  3.0500  1.4962 -2.5265
   65MOL   H13611784   4.749   2.330   0.820  1.2786  1.0286 -0.3307
   65MOL   C13711785   4.755   2.567   0.568 -0.0548  0.6102 -0.4850
   65MOL   C13811786   4.725   2.488   0.441 -0.1150  0.3543  0.1251
   65MOL   C13911787   4.661   2.576   0.337  0.3622  0.4452  0.1062
   65MOL   H14011788   4.675   2.633   0.600 -0.1515  0.4942 -0.4853
   65MOL   H14111789   4.835   2.639   0.551 -1.3708  1.6611 -2.4729
   65MOL   H14211790   4.649   2.413   0.461  0.6383 -0.3418  0.4306
   65MOL   H14311791   4.594   2.653   0.378  0.0059 -0.0398  0.4417
   65MOL   H14411792   4.731   2.636   0.278 -0.0371  2.0810  1.2439
   65MOL   H14511793   4.599   2.533   0.258 -1.3644  1.4262  0.8878
   65MOL   C14611794   4.850   2.419   0.382 -0.7022  0.0914 -0.6217
   65MOL   C14711795   4.830   2.329   0.264 -0.1382 -0.0953 -0.2269
   65MOL   C14811796   4.965   2.269   0.230 -0.5083 -0.2048  0.8349
   65MOL   H14911797   4.918   2.501   0.357  0.3674 -0.4461  0.5014
   65MOL   H15011798   4.882   2.352   0.461  0.0764  0.6549 -0.4511
   65MOL   H15111799   4.788   2.378   0.176 -1.2418 -0.1777  0.2373
   65MOL   H15211800   4.968   2.210   0.139 -2.4400  1.0828 -0.1010
   65MOL   H15311801   5.046   2.341   0.223 -0.7606 -0.1776 -2.8064
   65MOL   H15411802   4.992   2.198   0.308  0.6305  1.6410  2.1760
   65MOL   C15511803   4.730   2.208   0.290  0.3287 -0.4855  0.3915
   65MOL   C15611804   4.688   2.122   0.170 -0.9024  0.1500  0.0358
   65MOL   C15711805   4.606   2.004   0.231  0.2224  0.5304  0.2813
   65MOL   H15811806   4.775   2.146   0.368  2.7681  0.2658 -0.3990
   65MOL   H15911807   4.640   2.244   0.341  0.8146  0.2726  0.7073
   65MOL   H16011808   4.780   2.085   0.125  0.3198  1.0793  1.7227
   65MOL   H16111809   4.573   1.925   0.164  1.2603 -0.2115  0.6345
   65MOL   H16211810   4.651   1.945   0.311 -1.5231 -2.4193 -0.8434
   65MOL   H16311811   4.517   2.029   0.288 -0.9168  0.5087 -1.4716
   65MOL   C16411812   4.613   2.188   0.049  0.2782 -0.5129  0.3299
   65MOL   C16511813   4.621   2.121   7.606  0.2297 -0.9002 -0.4797
   65MOL   C16611814   4.482   2.111   7.552 -0.3597 -0.2122 -0.9679
   65MOL   H16711815   4.510   2.203   0.084 -0.1739  1.6184 -1.7814
   65MOL   H16811816   4.633   2.295   0.063  0.8966 -0.5862  0.0173
   65MOL   H16911817   4.670   2.023   7.612  0.0700 -0.9328  0.3683
   65MOL   H17011818   4.412   2.068   7.623  0.8973  0.2542  0.5649
   65MOL   H17111819   4.448   2.213   7.533  1.4128  0.7867  1.0459
   65MOL   H17211820   4.477   2.066   7.452  2.3377 -3.7345  0.3809
   65MOL   C17311821   4.725   2.197   7.515 -0.4999 -0.0401  0.0594
   65MOL   C17411822   4.733   2.154   7.372  0.5617 -0.0364 -0.0929
   65MOL   C17511823   4.835   2.230   7.283  0.3528 -0.4487  0.6845
   65MOL   H17611824   4.716   2.305   7.513  0.6797  0.0446 -1.5624
   65MOL   H17711825   4.823   2.172   7.557 -0.4932 -2.1712 -1.1492
   65MOL   H17811826   4.635   2.160   7.324 -0.7560 -2.3680  2.1638
   65MOL   H17911827   4.801   2.333   7.265 -0.5923 -0.7964  0.4450
   65MOL   H18011828   4.931   2.232   7.335  1.7329 -0.8711 -1.7931
   65MOL   H18111829   4.827   2.180   7.187 -0.0547 -0.1818  0.5749
   65MOL   H18211830   4.758   2.048   7.374  0.3028 -0.1138 -0.8315
   66MOL     C111831   1.350   0.542   7.445  0.9587  0.1480  0.2330
   66MOL     C211832   1.210   0.494   7.483 -0.2447 -0.5577 -0.3111
   66MOL     C311833   1.170   0.385   7.378  0.4167 -0.0711 -0.9292
   66MOL     H411834   1.347   0.584   7.344  0.2291 -1.0653 -0.2570
   66MOL     H511835   1.429   0.467   7.448  1.3941  0.5872 -0.0696
   66MOL     H611836   1.139   0.576   7.472  0.7061  0.3138  0.0228
   66MOL     H711837   1.239   0.302   7.387 -0.0531 -0.3688  0.0709
   66MOL     H811838   1.065   0.359   7.391  0.0791  1.3170 -0.7143
   66MOL     H911839   1.171   0.425   7.277 -0.9627 -0.8908 -1.2701
   66MOL    H1011840   1.379   0.621   7.514  0.7068  1.1028 -0.7239
   66MOL    C1111841   1.209   0.427   7.620 -0.3344  0.2832 -0.7903
   66MOL    C1211842   1.253   0.519   0.039 -0.0534 -0.4813 -0.1547
   66MOL    C1311843   1.206   0.666   0.020  0.1082 -0.3265 -0.4345
   66MOL    H1411844   1.105   0.399   7.637  0.1652 -1.3438 -0.2696
   66MOL    H1511845   1.266   0.334   7.618 -0.8812 -0.0484 -0.9983
   66MOL    H1611846   1.362   0.526   0.035 -0.1192  1.6960  0.7046
   66MOL    H1711847   1.256   0.725   7.641 -0.8860 -0.3015 -1.0808
   66MOL    H1811848   1.101   0.670   7.687  0.4365 -0.7924 -1.6457
   66MOL    H1911849   1.212   0.726   0.111 -0.0792  1.3735 -1.5272
   66MOL    C2011850   1.209   0.467   0.179 -0.4335  0.1636  0.0887
   66MOL    C2111851   1.261   0.321   0.223  0.2429 -0.7788 -0.2155
   66MOL    C2211852   1.410   0.312   0.240  0.4492 -0.3050  0.5234
   66MOL    H2311853   1.237   0.543   0.252  2.7598  0.2715 -1.1612
   66MOL    H2411854   1.101   0.468   0.184 -0.3228  1.5701  2.8163
   66MOL    H2511855   1.232   0.252   0.143 -0.9179  0.4217 -0.8558
   66MOL    H2611856   1.439   0.374   0.325 -3.7204  2.1772  0.2704
   66MOL    H2711857   1.441   0.209   0.259  1.7855  0.2859  1.6906
   66MOL    H2811858   1.469   0.344   0.154  0.6333  3.2799  1.9019
   66MOL    C2911859   1.177   0.280   0.350 -0.3200 -0.5751 -0.0485
   66MOL    C3011860   1.201   0.137   0.395 -0.0168  0.6000  0.2050
   66MOL    C3111861   1.307   0.121   0.504 -0.1182  0.7892 -0.5003
   66MOL    H3211862   1.193   0.353   0.430 -3.4671  3.8146 -3.1465
   66MOL    H3311863   1.070   0.296   0.334  0.3439  0.9822 -3.1169
   66MOL    H3411864   1.242   0.087   0.307 -0.8698 -0.1804  0.2429
   66MOL    H3511865   1.393   0.179   0.471  0.3974 -0.1184 -0.7652
   66MOL    H3611866   1.269   0.151   0.602  0.7874 -1.8322  0.6712
   66MOL    H3711867   1.327   0.016   0.523 -3.3177  0.0702 -0.8788
   66MOL    C3811868   1.071   0.067   0.451 -0.2963 -0.0810  0.3153
   66MOL    C3911869   0.961   0.035   0.342 -0.2698 -0.9037 -0.2410
   66MOL    C4011870   1.008   7.629   0.234 -0.4158 -0.2092 -0.6190
   66MOL    H4111871   1.105   7.667   0.485  0.5777  0.1728  0.1838
   66MOL    H4211872   1.030   0.107   0.544  1.0551 -1.1998  1.4081
   66MOL    H4311873   0.954   0.128   0.286 -1.0546 -2.2791 -2.5362
   66MOL    H4411874   1.028   7.532   0.279 -0.6715 -0.0713 -0.2039
   66MOL    H4511875   0.932   7.617   0.156 -0.9191  0.3276 -0.2155
   66MOL    H4611876   1.101   7.665   0.191  0.0292 -3.9382 -3.0226
   66MOL    C4711877   0.836   7.685   0.414  0.7143 -0.2410 -0.0050
   66MOL    C4811878   0.706   7.661   0.333 -0.7943  0.8255  0.0233
   66MOL    C4911879   0.656   7.517   0.356  0.6054  0.0043 -0.0056
   66MOL    H5011880   0.855   7.592   0.468  0.8922 -0.5988 -0.6709
   66MOL    H5111881   0.813   0.067   0.484  1.6690  0.7892 -0.8533
   66MOL    H5211882   0.738   7.670   0.229  0.7145  1.4589  0.5212
   66MOL    H5311883   0.582   7.506   0.277  0.5303 -0.4208  0.1221
   66MOL    H5411884   0.733   7.441   0.345  0.4097 -0.2943  0.6901
   66MOL    H5511885   0.607   7.504   0.452  0.1523  0.6774 -0.1401
   66MOL    C5611886   0.588   0.061   0.362 -0.7488 -0.5191  0.8316
   66MOL    C5711887   0.607   0.207   0.317  0.1845 -0.0465  0.0266
   66MOL    C5811888   0.658   0.227   0.174 -0.7411  0.0552 -0.7539
   66MOL    H5911889   0.496   0.033   0.310 -1.2601  2.1107  0.2901
   66MOL    H6011890   0.564   0.043   0.467 -0.4088 -3.8505  0.4032
   66MOL    H6111891   0.697   0.234   0.372 -0.8176  0.2963  1.5363
   66MOL    H6211892   0.604   0.159   0.108  1.2125 -2.3507  0.0553
   66MOL    H6311893   0.647   0.328   0.132  1.1051  1.2968  1.6427
   66MOL    H6411894   0.763   0.201   0.163 -0.6040 -0.0850  0.8557
   66MOL    C6511895   0.479   0.285   0.341  0.5454  0.8369  0.0329
   66MOL    C6611896   0.425   0.285   0.488 -0.5602  0.3125  0.2978
   66MOL    C6711897   0.542   0.314   0.586 -0.3587  0.3331 -0.6982
   66MOL    H6811898   0.476   0.390   0.312 -0.5739  1.0732  0.9344
   66MOL    H6911899   0.403   0.245   0.274  0.2091 -0.9532  1.4450
   66MOL    H7011900   0.395   0.183   0.508 -0.1120  0.2789  0.8319
   66MOL    H7111901   0.574   0.223   0.636 -2.5826 -0.3166 -0.4014
   66MOL    H7211902   0.623   0.364   0.533  1.7019 -0.8456  1.2397
   66MOL    H7311903   0.502   0.378   0.664 -1.0539 -2.0144  0.9191
   66MOL    C7411904   0.302   0.379   0.507 -0.4824 -0.3362  0.2705
   66MOL    C7511905   0.182   0.334   0.423  0.0131  0.5847 -0.0745
   66MOL    C7611906   0.119   0.202   0.458  0.0355  0.2106  0.2806
   66MOL    H7711907   0.274   0.376   0.612 -0.8606  2.7205  0.3087
   66MOL    H7811908   0.334   0.481   0.486  0.5687 -1.0206 -1.5494
   66MOL    H7911909   0.215   0.321   0.320  1.0531  0.8566  0.2252
   66MOL    H8011910   0.035   0.183   0.390 -2.0777  2.9372  2.0104
   66MOL    H8111911   0.186   0.117   0.452 -0.5879 -0.1196 -2.7240
   66MOL    H8211912   0.064   0.207   0.552 -0.4812  2.0561 -0.0930
   66MOL    C8311913   0.062   0.438   0.414 -0.2153 -0.3619  0.5580
   66MOL    C8411914   0.096   0.578   0.370  0.4752  0.5041  0.1055
   66MOL    C8511915   0.174   0.579   0.239 -0.3769  0.3260 -0.0516
   66MOL    H8611916   7.685   0.396   0.348 -0.1016  0.9107 -0.3979
   66MOL    H8711917   0.008   0.449   0.508 -0.4296  0.0119  0.3888
   66MOL    H8811918   0.167   0.618   0.443 -0.9872  1.8125  0.8285
   66MOL    H8911919   0.170   0.680   0.198 -1.7807  0.7794  1.1394
   66MOL    H9011920   0.275   0.545   0.260 -0.2938 -0.1657 -1.2064
   66MOL    H9111921   0.136   0.507   0.166  0.9392  0.1224 -0.5382
   66MOL    C9211922   7.659   0.653   0.353  0.1136  0.1503  0.4417
   66MOL    C9311923   7.678   0.807   0.369 -0.2580  0.0920 -0.4560
   66MOL    C9411924   7.555   0.873   0.305 -0.1708 -1.0449  0.0016
   66MOL    H9511925   7.628   0.636   0.250  3.4329 -2.3187 -0.2259
   66MOL    H9611926   7.581   0.612   0.417 -0.9433 -0.1473 -1.0154
   66MOL    H9711927   0.074   0.846   0.329  1.8417 -2.4173  1.7954
   66MOL    H9811928   7.511   0.820   0.220 -1.0386 -0.7000  0.2377
   66MOL    H9911929   7.483   0.875   0.387  0.3075 -0.1583  0.4073
   66MOL   H10011930   7.570   0.978   0.282  0.1369 -0.7982  1.2551
   66MOL   C10111931   7.684   0.838   0.520 -0.0451  0.1175  0.0375
   66MOL   C10211932   0.015   0.987   0.555  0.6390  0.5435 -0.0702
   66MOL   C10311933   7.660   1.026   0.692  0.0842 -0.8242 -0.0098
   66MOL   H10411934   7.591   0.805   0.566  0.1101 -1.8774 -1.0166
   66MOL   H10511935   0.061   0.777   0.573 -0.6968 -1.5066 -0.8879
   66MOL   H10611936   7.662   1.060   0.491 -0.0084  0.0468 -0.1377
   66MOL   H10711937   7.554   1.004   0.704  0.0425 -0.1759  0.8000
   66MOL   H10811938   0.001   0.964   0.773 -0.7764 -1.4962 -0.1087
   66MOL   H10911939   7.680   1.128   0.723  0.4998 -1.2328  1.0685
   66MOL   C11011940   0.165   1.016   0.551  0.3359  0.3743  0.0276
   66MOL   C11111941   0.212   1.159   0.504 -0.5553  0.1008  0.2691
   66MOL   C11211942   0.360   1.177   0.531 -0.5689 -0.2534 -0.2394
   66MOL   H11311943   0.209   0.992   0.648  2.1273 -1.9316 -1.3113
   66MOL   H11411944   0.216   0.944   0.487  0.9986  0.2913  0.6393
   66MOL   H11511945   0.165   1.223   0.579  0.3256  0.4835  0.4944
   66MOL   H11611946   0.413   1.106   0.468  0.5831  0.2223  0.1794
   66MOL   H11711947   0.395   1.274   0.496 -1.7339  0.4033  0.3948
   66MOL   H11811948   0.399   1.158   0.631 -3.2018 -1.7151  0.5669
   66MOL   C11911949   0.174   1.189   0.354 -0.2609 -0.1873  0.0446
   66MOL   C12011950   0.149   1.341   0.330 -0.2188  0.4311 -0.4815
   66MOL   C12111951   0.204   1.382   0.191  0.3709 -0.1258 -0.0666
   66MOL   H12211952   0.250   1.153   0.285 -0.3551  1.5321 -0.9874
   66MOL   H12311953   0.083   1.140   0.319 -0.1198 -0.0003 -0.5925
   66MOL   H12411954   0.200   1.401   0.405 -0.2374  0.8137 -0.7732
   66MOL   H12511955   0.312   1.372   0.194  0.4239  0.4914  0.1057
   66MOL   H12611956   0.170   1.319   0.108  1.7420 -0.4049 -0.4406
   66MOL   H12711957   0.183   1.486   0.166 -1.5611 -0.9142 -1.9445
   66MOL   C12811958   7.695   1.374   0.336  0.1326 -0.1663 -0.1215
   66MOL   C12911959   7.614   1.364   0.472  1.0233 -0.4632  0.3626
   66MOL   C13011960   7.665   1.463   0.573 -0.7173  0.0297  0.0275
   66MOL   H13111961   7.684   1.479   0.308 -0.9071  0.0623  1.0861
   66MOL   H13211962   7.644   1.317   0.258 -2.2935 -0.7512  1.8511
   66MOL   H13311963   7.635   1.274   0.529  0.9521 -0.5204  0.2990
   66MOL   H13411964   0.077   1.459   0.576 -0.7558 -0.4052  1.0764
   66MOL   H13511965   7.643   1.563   0.536 -1.5047  0.5007  1.7584
   66MOL   H13611966   7.622   1.443   0.671  2.0755  2.3172  1.8049
   66MOL   C13711967   7.460   1.386   0.457 -0.1174  0.0369 -0.4425
   66MOL   C13811968   7.383   1.257   0.494 -0.2346  0.0351  0.1538
   66MOL   C13911969   7.360   1.253   0.650 -0.8833  0.7125 -0.5251
   66MOL   H14011970   7.435   1.471   0.519 -1.9650 -1.3926  0.8228
   66MOL   H14111971   7.432   1.418   0.356  0.8031 -2.5613 -1.5758
   66MOL   H14211972   7.446   1.174   0.461  1.6859  0.4103  2.7950
   66MOL   H14311973   7.288   1.329   0.678 -0.4918  0.1493  2.1716
   66MOL   H14411974   7.316   1.157   0.677  1.9207 -0.5684 -0.3014
   66MOL   H14511975   7.451   1.272   0.706 -0.9066  0.6767 -0.4750
   66MOL   C14611976   7.246   1.234   0.418  0.0196 -0.2772 -0.1013
   66MOL   C14711977   7.157   1.365   0.407  0.2508 -0.1516  0.1672
   66MOL   C14811978   7.156   1.408   0.264  0.2421  0.3880 -0.5245
   66MOL   H14911979   7.262   1.199   0.316  1.7035  1.7595 -0.5618
   66MOL   H15011980   7.185   1.167   0.479  0.5381  0.6468  1.4679
   66MOL   H15111981   7.205   1.447   0.461 -0.8619 -0.6694  2.0038
   66MOL   H15211982   7.124   1.327   0.200  0.3599  0.1972 -0.3425
   66MOL   H15311983   7.097   1.495   0.236  2.8375  1.9675 -1.2797
   66MOL   H15411984   7.255   1.428   0.223  0.9484  0.7673  1.2988
   66MOL   C15511985   7.005   1.339   0.444 -0.3691  0.0093  0.5305
   66MOL   C15611986   6.985   1.333   0.601  0.5759  0.6930 -0.6247
   66MOL   C15711987   7.000   1.475   0.661  0.0157 -0.3662  0.1218
   66MOL   H15811988   6.939   1.416   0.403 -2.5817 -1.5074  1.1530
   66MOL   H15911989   6.971   1.247   0.396  0.4683 -0.2446  0.4172
   66MOL   H16011990   7.071   1.274   0.635 -0.5075  0.0077  0.9692
   66MOL   H16111991   7.101   1.513   0.646  0.2700 -1.5059 -1.0833
   66MOL   H16211992   6.926   1.537   0.611 -1.0994 -3.2646 -1.9847
   66MOL   H16311993   6.982   1.475   0.769 -0.0533  0.2484  0.1129
   66MOL   C16411994   6.844   1.278   0.648  0.7758  0.6478 -0.1103
   66MOL   C16511995   6.807   1.133   0.597  0.0648 -0.3726 -0.0647
   66MOL   C16611996   6.901   1.028   0.657 -0.6140  0.4957 -0.0446
   66MOL   H16711997   6.821   1.278   0.754  0.5329  1.3340 -0.1551
   66MOL   H16811998   6.778   1.344   0.591  3.0558  2.3289 -0.8781
   66MOL   H16911999   6.818   1.135   0.488 -2.1112 -1.4068 -0.3337
   66MOL   H17012000   7.003   1.044   0.620 -0.7514 -1.9027 -1.5846
   66MOL   H17112001   6.902   1.035   0.766 -0.9548  0.9052 -0.0660
   66MOL   H17212002   6.873   0.926   0.631 -0.0919 -0.0410  1.4434
   66MOL   C17312003   6.657   1.091   0.624  0.2377  0.4532 -0.0603
   66MOL   C17412004   6.560   1.172   0.530 -0.3201  0.0827 -0.1670
   66MOL   C17512005   6.416   1.119   0.538 -0.1570 -0.2882  0.1420
   66MOL   H17612006   6.640   0.985   0.602 -2.3088  0.5497  1.2470
   66MOL   H17712007   6.642   1.099   0.731  1.9631 -1.9537  0.3865
   66MOL   H17812008   6.585   1.159   0.425 -1.9381  0.3574 -0.5936
   66MOL   H17912009   6.356   1.153   0.453  0.4211  0.6966  0.1137
   66MOL   H18012010   6.406   1.011   0.527 -1.3991 -0.3974  2.1572
   66MOL   H18112011   6.369   1.138   0.635 -0.1056  0.9527 -0.0575
   66MOL   H18212012   6.556   1.279   0.549  4.2126  0.0633  1.6158
   67MOL     C112013   6.293   4.004   4.194  0.2306  0.1721  0.1075
   67MOL     C212014   6.421   3.928   4.221  0.2346 -0.2357  0.2548
   67MOL     C312015   6.531   4.033   4.229  0.4344  0.7480  0.0924
   67MOL     H412016   6.299   4.078   4.114 -0.6380 -0.5717 -0.6642
   67MOL     H512017   6.248   4.047   4.283  1.5468 -0.0503  0.8856
   67MOL     H612018   6.442   3.856   4.142  1.2400 -0.6566  0.8961
   67MOL     H712019   6.540   4.078   4.130  1.6144  0.1395 -0.1014
   67MOL     H812020   6.504   4.116   4.293  0.9090  3.3713 -2.9584
   67MOL     H912021   6.633   3.999   4.251  0.6014 -0.9832 -3.0318
   67MOL    H1012022   6.209   3.943   4.159  0.1434  0.5814 -0.4015
   67MOL    C1112023   6.415   3.861   4.366  0.7688  0.4234 -0.4720
   67MOL    C1212024   6.307   3.755   4.370  0.5681 -0.3432  0.2091
   67MOL    C1312025   6.316   3.636   4.265  0.2695 -0.2142  0.1411
   67MOL    H1412026   6.511   3.818   4.392 -0.1373 -1.1785  0.3317
   67MOL    H1512027   6.394   3.937   4.441  4.2961  1.3700 -0.3783
   67MOL    H1612028   6.210   3.803   4.354  0.3556 -1.2599 -1.3504
   67MOL    H1712029   6.322   3.660   4.158  3.2469  1.1338  0.5598
   67MOL    H1812030   6.402   3.572   4.284  1.3222  1.5925  1.6038
   67MOL    H1912031   6.233   3.566   4.275  2.6977 -3.3689 -0.9910
   67MOL    C2012032   6.291   3.696   4.518 -0.4671  0.2223  0.1321
   67MOL    C2112033   6.250   3.784   4.635  0.0249 -0.4847 -0.3992
   67MOL    C2212034   6.109   3.837   4.613  0.5482  1.2212  0.2180
   67MOL    H2312035   6.216   3.618   4.506 -0.4006  0.1994 -0.1363
   67MOL    H2412036   6.390   3.657   4.540  0.1950  0.6299 -1.9544
   67MOL    H2512037   6.320   3.867   4.633 -0.5157 -0.0461 -1.8174
   67MOL    H2612038   6.082   3.907   4.693 -1.8718  0.3708  0.1862
   67MOL    H2712039   6.100   3.900   4.524  1.4577  2.9159  1.2939
   67MOL    H2812040   6.021   3.773   4.612  0.1941  1.7088 -0.1208
   67MOL    C2912041   6.266   3.721   4.773 -0.1351 -0.1699  0.6265
   67MOL    C3012042   6.264   3.827   4.888  0.0953 -0.8176  0.0681
   67MOL    C3112043   6.265   3.755   5.028 -0.4957 -1.3699 -0.1253
   67MOL    H3212044   6.188   3.649   4.798 -0.5868  0.7659  1.9812
   67MOL    H3312045   6.366   3.677   4.775 -1.2058 -2.8256 -1.6178
   67MOL    H3412046   6.163   3.867   4.886  1.0578  1.7131 -0.4906
   67MOL    H3512047   6.368   3.735   5.056  0.3234 -0.5279 -2.4013
   67MOL    H3612048   6.223   3.828   5.097 -0.0227 -0.7847 -0.4543
   67MOL    H3712049   6.211   3.661   5.040 -0.6601 -1.3217 -0.4814
   67MOL    C3812050   6.369   3.949   4.886  1.0128  0.6380 -0.7634
   67MOL    C3912051   6.319   4.091   4.847 -0.0985  0.2104 -0.0525
   67MOL    C4012052   6.244   4.147   4.967  0.3120 -0.2378  0.3937
   67MOL    H4112053   6.413   3.940   4.986 -0.8287 -0.0599  0.0109
   67MOL    H4212054   6.454   3.925   4.822 -0.5251  0.3524 -2.7411
   67MOL    H4312055   6.237   4.091   4.775  0.7924 -1.9660 -1.1147
   67MOL    H4412056   6.245   4.256   4.977 -1.5493 -0.1453 -0.2278
   67MOL    H4512057   6.138   4.124   4.968  0.1442  0.4070  2.8678
   67MOL    H4612058   6.287   4.115   5.062  0.6890  3.4279  1.5570
   67MOL    C4712059   6.423   4.188   4.786  0.2204  0.1866 -0.3377
   67MOL    C4812060   6.457   4.169   4.638  0.7588  0.8111 -0.2483
   67MOL    C4912061   6.353   4.221   4.541  0.8087  0.4201  0.4784
   67MOL    H5012062   6.382   4.289   4.791  2.8447  1.3424 -1.0459
   67MOL    H5112063   6.517   4.190   4.841  0.5836  2.7517 -0.9682
   67MOL    H5212064   6.453   4.060   4.630 -1.2459  0.9942 -2.2087
   67MOL    H5312065   6.314   4.312   4.586  3.7452  1.5725  0.7632
   67MOL    H5412066   6.381   4.256   4.441  0.7759  0.5494  0.5139
   67MOL    H5512067   6.269   4.152   4.533 -0.0071  1.3604  0.9034
   67MOL    C5612068   6.596   4.234   4.591 -0.1972 -0.1815 -0.1455
   67MOL    C5712069   6.717   4.174   4.666  0.2907  0.3901  0.5485
   67MOL    C5812070   6.731   4.018   4.670 -0.0982  0.1088 -0.5102
   67MOL    H5912071   6.600   4.204   4.487  0.2911 -0.7445  0.0360
   67MOL    H6012072   6.602   4.343   4.595 -0.6290 -0.1697  0.2914
   67MOL    H6112073   6.712   4.210   4.768  1.7021 -0.7922  1.0492
   67MOL    H6212074   6.827   3.989   4.714 -0.4851  2.5514  2.0810
   67MOL    H6312075   6.661   3.969   4.738 -1.5311 -0.1621 -2.1723
   67MOL    H6412076   6.706   3.972   4.575  0.4403  0.3530 -0.7771
   67MOL    C6512077   6.851   4.253   4.628  0.3563  0.5781 -0.3235
   67MOL    C6612078   6.934   4.197   4.513 -0.0682 -0.4119  0.7204
   67MOL    C6712079   6.881   4.247   4.378 -0.5061 -0.2293 -0.1195
   67MOL    H6812080   6.836   4.360   4.609  1.2214  0.7049 -0.3365
   67MOL    H6912081   6.915   4.257   4.716  1.4240 -2.5550 -0.9173
   67MOL    H7012082   6.921   4.088   4.516  0.8637 -0.6740 -2.6309
   67MOL    H7112083   6.870   4.355   4.375  2.2184  0.1484  2.0102
   67MOL    H7212084   6.950   4.217   4.300  2.5435  1.9145  1.6693
   67MOL    H7312085   6.784   4.202   4.355 -1.6411  1.9008  0.3332
   67MOL    C7412086   7.093   4.234   4.525 -0.6190  0.2098 -0.0402
   67MOL    C7512087   7.173   4.139   4.616 -0.0783  0.3238 -0.1455
   67MOL    C7612088   7.158   3.996   4.587 -0.1872  0.0011  0.3585
   67MOL    H7712089   7.132   4.231   4.423  0.1341 -1.8736  0.2795
   67MOL    H7812090   7.104   4.334   4.568  1.8365  0.5984 -1.4974
   67MOL    H7912091   7.126   4.149   4.714 -1.2000 -0.4549 -0.5939
   67MOL    H8012092   7.148   3.980   4.479  1.9321  0.6123  0.0634
   67MOL    H8112093   7.240   3.936   4.627  0.0312  1.4997  2.1737
   67MOL    H8212094   7.063   3.961   4.629 -1.2564  1.1627 -1.0196
   67MOL    C8312095   7.325   4.183   4.629 -0.0538  1.1889  0.3213
   67MOL    C8412096   7.353   4.318   4.700 -0.0390 -0.4468  0.8884
   67MOL    C8512097   7.292   4.332   4.839 -0.4611 -0.2235  0.0825
   67MOL    H8612098   7.380   4.102   4.676  2.4693  2.2878 -0.6451
   67MOL    H8712099   7.381   4.180   4.536 -0.8553 -2.0845 -0.1145
   67MOL    H8812100   7.320   4.406   4.644  0.8531 -1.6749 -1.6730
   67MOL    H8912101   7.184   4.316   4.841 -0.3663 -0.8087  0.9243
   67MOL    H9012102   7.342   4.250   4.892  0.3471  0.1800 -0.0454
   67MOL    H9112103   7.319   4.425   4.888  0.4742 -0.1863 -0.4905
   67MOL    C9212104   7.506   4.358   4.721  0.5951 -0.1785  0.1070
   67MOL    C9312105   7.595   4.385   4.594 -0.7247 -0.3604  1.3377
   67MOL    C9412106   7.543   4.506   4.512 -0.4804  0.0487  0.3015
   67MOL    H9512107   7.515   4.452   4.776  1.2294 -0.1311 -0.0725
   67MOL    H9612108   7.553   4.287   4.789 -1.6558 -0.3945  1.5135
   67MOL    H9712109   7.589   4.297   4.530  0.7442  0.3314  0.2057
   67MOL    H9812110   7.437   4.495   4.490 -0.2999 -1.1264  0.0389
   67MOL    H9912111   7.555   4.597   4.571  0.7195  0.8396 -1.1166
   67MOL   H10012112   7.605   4.518   4.423  0.1388  1.7842  0.9225
   67MOL   C10112113   0.055   4.399   4.625 -0.5483  0.3770  0.3070
   67MOL   C10212114   0.143   4.408   4.494 -0.3194  0.0948  0.1754
   67MOL   C10312115   0.290   4.439   4.521  0.4981 -0.3966  0.2111
   67MOL   H10412116   0.059   4.489   4.687  1.0279 -0.5453  1.5946
   67MOL   H10512117   0.087   4.314   4.685  0.0283  0.3499 -0.0331
   67MOL   H10612118   0.104   4.475   4.418 -0.6851 -1.2485 -0.8292
   67MOL   H10712119   0.351   4.483   4.442  0.1531 -1.1261 -0.4720
   67MOL   H10812120   0.301   4.518   4.596 -0.3268 -0.7743  0.7372
   67MOL   H10912121   0.341   4.352   4.563  0.2136 -1.5154 -1.7006
   67MOL   C11012122   0.128   4.271   4.423  0.4597 -0.1013 -0.4604
   67MOL   C11112123   0.220   4.253   4.290  0.0135  0.4317  0.2295
   67MOL   C11212124   0.185   4.117   4.230  0.1185 -1.1451 -0.2325
   67MOL   H11312125   0.161   4.198   4.497  1.4121  1.8482  1.0614
   67MOL   H11412126   0.023   4.251   4.400 -0.3875  2.7032  0.7611
   67MOL   H11512127   0.320   4.231   4.327 -0.5171  0.8630  1.9555
   67MOL   H11612128   0.083   4.119   4.193  0.2182  0.7850 -0.4590
   67MOL   H11712129   0.248   4.087   4.147 -2.4372 -2.7030 -1.6281
   67MOL   H11812130   0.192   4.035   4.302 -0.2939  1.0511  2.3963
   67MOL   C11912131   0.214   4.371   4.192  0.2664 -0.2189 -0.0122
   67MOL   C12012132   0.301   4.360   4.066  0.2364  0.1009  0.0844
   67MOL   C12112133   0.281   4.480   3.973 -0.1148  0.1044 -0.1848
   67MOL   H12212134   0.110   4.381   4.160 -0.5370 -3.7599  1.2810
   67MOL   H12312135   0.249   4.460   4.245  0.7056  0.2140 -1.0302
   67MOL   H12412136   0.272   4.269   4.014  0.8260  0.0061 -0.0816
   67MOL   H12512137   0.339   4.471   3.881  1.8734  0.2578  1.0145
   67MOL   H12612138   0.178   4.509   3.950 -0.0274  1.6071  1.1995
   67MOL   H12712139   0.328   4.574   4.003 -3.7617  1.7300  0.6768
   67MOL   C12812140   0.450   4.348   4.096  0.3994 -0.1518  1.2887
   67MOL   C12912141   0.541   4.340   3.970  0.1918  0.2113 -0.4792
   67MOL   C13012142   0.600   4.478   3.918 -0.5199 -0.8875  0.5289
   67MOL   H13112143   0.483   4.433   4.156  0.2191  1.9604 -1.5620
   67MOL   H13212144   0.464   4.256   4.153 -0.5416 -0.7844  0.5049
   67MOL   H13312145   0.485   4.311   3.882  2.0175  1.4084 -2.0939
   67MOL   H13412146   0.669   4.517   3.993  0.5411  3.5070 -2.5411
   67MOL   H13512147   0.658   4.464   3.827 -0.0966  1.6436  0.3624
   67MOL   H13612148   0.524   4.554   3.901  0.6788  0.0624 -0.6089
   67MOL   C13712149   0.650   4.232   3.979 -0.7078 -0.4060  0.4608
   67MOL   C13812150   0.598   4.089   3.973 -0.1513 -0.1294 -0.0135
   67MOL   C13912151   0.564   4.049   3.828 -0.1687  0.1199 -0.0141
   67MOL   H14012152   0.724   4.239   3.899  0.3580  2.9510  1.6736
   67MOL   H14112153   0.696   4.242   4.077  1.1402 -1.9068 -0.2370
   67MOL   H14212154   0.515   4.089   4.044 -1.1348  0.7552 -1.1362
   67MOL   H14312155   0.506   3.956   3.826 -0.8071  0.5379 -1.3816
   67MOL   H14412156   0.491   4.121   3.792 -0.5012  0.3672  1.1194
   67MOL   H14512157   0.644   4.047   3.755  0.2943 -1.1681  0.5173
   67MOL   C14612158   0.700   3.992   4.037 -0.0110 -0.9894 -0.5403
   67MOL   C14712159   0.669   3.844   4.053 -0.6672  0.0729  0.0734
   67MOL   C14812160   0.794   3.777   4.109 -0.2129  0.5780  0.3817
   67MOL   H14912161   0.799   3.996   3.990  0.2693 -1.6176 -0.0139
   67MOL   H15012162   0.706   4.029   4.139  3.3344  2.1768 -1.7677
   67MOL   H15112163   0.662   3.813   3.949  4.6584  1.4230 -0.8550
   67MOL   H15212164   0.885   3.813   4.061  1.0945 -1.2845  1.3898
   67MOL   H15312165   0.798   3.819   4.210  0.5989  1.0552  0.1483
   67MOL   H15412166   0.795   3.668   4.114  0.9662  0.4111 -2.6650
   67MOL   C15512167   0.545   3.808   4.146 -0.0654 -0.1897  0.7790
   67MOL   C15612168   0.490   3.664   4.122 -0.6392 -0.0116 -0.4944
   67MOL   C15712169   0.363   3.633   4.204  0.1155 -0.3779 -0.4788
   67MOL   H15812170   0.575   3.828   4.249  1.6248  0.4546  0.1806
   67MOL   H15912171   0.463   3.877   4.127 -0.5402 -0.6411  1.1532
   67MOL   H16012172   0.567   3.591   4.149 -0.2037  0.8622  0.6516
   67MOL   H16112173   0.337   3.529   4.223 -0.7907 -0.4069 -1.8985
   67MOL   H16212174   0.361   3.680   4.303 -0.2107  1.9787 -1.5784
   67MOL   H16312175   0.280   3.677   4.150 -0.6406 -1.8970 -0.5913
   67MOL   C16412176   0.469   3.617   3.973  0.6767 -0.0554 -0.4224
   67MOL   C16512177   0.384   3.492   3.945  0.1213 -0.8279  0.3477
   67MOL   C16612178   0.338   3.502   3.795 -0.1299  0.8463 -0.0453
   67MOL   H16712179   0.428   3.702   3.918 -2.6680 -0.1437  1.7834
   67MOL   H16812180   0.566   3.607   3.925  1.0410 -1.1804  0.5435
   67MOL   H16912181   0.289   3.509   3.994  0.4819  2.0427  0.1411
   67MOL   H17012182   0.256   3.433   3.776  0.7294 -0.2330  0.0931
   67MOL   H17112183   0.313   3.599   3.754  0.8445  0.2288 -2.1887
   67MOL   H17212184   0.429   3.481   3.738  1.4465  2.1905  1.9190
   67MOL   C17312185   0.462   3.364   3.986  0.0253 -0.1260  0.3063
   67MOL   C17412186   0.369   3.246   3.988 -0.2790  0.0017 -0.4192
   67MOL   C17512187   0.444   3.133   4.053  0.9905 -0.2042  0.4833
   67MOL   H17612188   0.539   3.352   3.910 -1.4258  0.2620 -1.2657
   67MOL   H17712189   0.513   3.372   4.082  1.7033 -0.7938 -0.5123
   67MOL   H17812190   0.341   3.223   3.885 -0.6468 -0.8414 -0.1330
   67MOL   H17912191   0.388   3.039   4.050 -0.1901  0.5144 -1.2144
   67MOL   H18012192   0.537   3.112   4.000  0.6756 -1.0639  0.2486
   67MOL   H18112193   0.483   3.155   4.152 -1.1501 -0.4269  1.4160
   67MOL   H18212194   0.271   3.256   4.034 -0.3344 -2.7935  0.1356
   68MOL     C112195   5.589   3.867   0.387  0.2375 -0.0441  0.7110
   68MOL     C212196   5.483   3.828   0.282  0.2762 -0.2231  0.7795
   68MOL     C312197   5.417   3.693   0.320  0.1908 -0.8447 -0.6243
   68MOL     H412198   5.679   3.807   0.378 -0.5063 -0.9825 -0.8423
   68MOL     H512199   5.545   3.868   0.486 -0.7708 -0.1034  0.2712
   68MOL     H612200   5.550   3.818   0.197  1.3301  0.5578  1.5030
   68MOL     H712201   5.392   3.683   0.425  1.0193 -0.4404 -0.3843
   68MOL     H812202   5.341   3.663   0.247 -0.2989 -0.7137 -0.1744
   68MOL     H912203   5.494   3.618   0.304  0.0547 -1.1623  0.2110
   68MOL    H1012204   5.621   3.969   0.366  2.1514 -0.9865 -1.2832
   68MOL    C1112205   5.388   3.947   0.258 -0.1048  0.3812 -0.1755
   68MOL    C1212206   5.309   3.949   0.122 -0.3178  0.3136  0.0952
   68MOL    C1312207   5.194   4.053   0.122 -0.3007  0.5233  0.4058
   68MOL    H1412208   5.311   3.954   0.335 -0.8068 -1.2668 -0.7125
   68MOL    H1512209   5.441   4.043   0.257  2.5123 -1.0112 -0.0375
   68MOL    H1612210   5.263   3.850   0.113 -0.4162  0.1812  1.8569
   68MOL    H1712211   5.116   4.006   0.182 -0.6242 -1.4809 -1.5311
   68MOL    H1812212   5.229   4.148   0.163 -1.2653 -0.0641  2.6916
   68MOL    H1912213   5.158   4.079   0.023  1.4495  0.7931 -0.1864
   68MOL    C2012214   5.404   3.965   7.694  0.5136 -0.0004  0.6040
   68MOL    C2112215   5.359   3.901   7.566  0.1596  0.0260  0.4931
   68MOL    C2212216   5.423   3.966   7.444  0.1439 -0.0929  0.4954
   68MOL    H2312217   5.410   4.074   7.686 -1.2044  0.0595 -0.0882
   68MOL    H2412218   5.505   3.937   0.025  0.8677 -0.1038 -0.6901
   68MOL    H2512219   5.254   3.929   7.566 -0.4780 -2.2872  2.0311
   68MOL    H2612220   5.429   3.903   7.355 -0.5014  0.9930 -0.3336
   68MOL    H2712221   5.379   4.064   7.424  0.3475  0.0270  0.6305
   68MOL    H2812222   5.528   3.984   7.463  0.0678  1.6103 -0.5842
   68MOL    C2912223   5.376   3.747   7.574  0.2903 -0.0304  0.1977
   68MOL    C3012224   5.304   3.670   7.459 -0.4509  0.8956  0.2708
   68MOL    C3112225   5.365   3.528   7.437  0.0620 -0.2565 -0.4567
   68MOL    H3212226   5.482   3.722   7.577  0.9253  2.4568 -0.6366
   68MOL    H3312227   5.345   3.711   7.673  0.2888 -0.8971 -0.1120
   68MOL    H3412228   5.307   3.730   7.369  1.2457 -0.2180 -0.4336
   68MOL    H3512229   5.470   3.547   7.418 -0.0119 -0.8725 -1.4991
   68MOL    H3612230   5.355   3.463   7.525 -2.3806 -0.3374 -0.7578
   68MOL    H3712231   5.318   3.473   7.356  0.0652 -1.1059  0.1019
   68MOL    C3812232   5.145   3.669   7.485 -0.5753 -0.4665 -0.2889
   68MOL    C3912233   5.049   3.711   7.371  0.0327  0.3536 -0.7587
   68MOL    C4012234   5.077   3.857   7.342 -0.5648 -0.0791 -0.6155
   68MOL    H4112235   5.107   3.570   7.512 -0.1631 -0.0981  1.7335
   68MOL    H4212236   5.127   3.731   7.573  0.6308 -0.3710 -0.1135
   68MOL    H4312237   4.949   3.709   7.415  0.9928 -3.4004  1.5342
   68MOL    H4412238   5.178   3.891   7.321  0.7460 -3.0234  0.5916
   68MOL    H4512239   5.009   3.905   7.272 -2.0810 -0.1095  0.7995
   68MOL    H4612240   5.067   3.916   7.434 -0.0959 -0.8968 -0.0340
   68MOL    C4712241   5.033   3.630   7.242 -0.2335  0.4332 -0.2061
   68MOL    C4812242   4.994   3.482   7.261  0.7099  0.2292  0.0449
   68MOL    C4912243   4.860   3.466   7.346  0.2874 -0.3409  0.0217
   68MOL    H5012244   4.960   3.682   7.179 -0.5535  0.5588  0.2674
   68MOL    H5112245   5.124   3.634   7.182 -0.4731 -1.6735 -0.7652
   68MOL    H5212246   5.072   3.434   7.321  1.0968 -0.2311 -0.8189
   68MOL    H5312247   4.778   3.522   7.302  0.5263 -1.3915 -1.8390
   68MOL    H5412248   4.827   3.363   7.360 -2.6653  0.4313 -1.0006
   68MOL    H5512249   4.868   3.509   7.446 -0.2066 -0.1719 -0.0143
   68MOL    C5612250   4.987   3.420   7.118  0.3562 -0.0368 -0.8974
   68MOL    C5712251   5.015   3.261   7.116  0.1012  0.0222  0.3157
   68MOL    C5812252   4.898   3.191   7.050 -0.5235 -0.3831 -0.4885
   68MOL    H5912253   4.889   3.440   7.075 -0.8790 -1.6251  1.1040
   68MOL    H6012254   5.067   3.452   7.052  0.1241  2.6191  0.0431
   68MOL    H6112255   4.993   3.219   7.214 -0.5757 -1.1471 -0.3303
   68MOL    H6212256   4.881   3.221   6.946  1.0046  1.0710 -0.3413
   68MOL    H6312257   4.916   3.084   7.053  0.0837 -0.2255  2.1860
   68MOL    H6412258   4.806   3.214   7.103 -0.1161 -0.9823  0.4816
   68MOL    C6512259   5.150   3.211   7.070  0.7890  0.7778  0.8194
   68MOL    C6612260   5.259   3.260   7.160  0.1868  0.2924 -0.4964
   68MOL    C6712261   5.262   3.179   7.293 -0.1883 -0.3324 -0.0581
   68MOL    H6812262   5.148   3.104   7.047  2.8736  0.8035  0.4476
   68MOL    H6912263   5.162   3.248   6.968  1.4792 -0.1003  0.5690
   68MOL    H7012264   5.243   3.365   7.182  0.9260  0.1582  0.7390
   68MOL    H7112265   5.343   3.213   7.358  0.5700 -0.3087 -0.9929
   68MOL    H7212266   5.166   3.176   7.343  0.3827  0.4067  1.1223
   68MOL    H7312267   5.290   3.079   7.260  0.9988 -0.2545  0.6646
   68MOL    C7412268   5.393   3.243   7.095 -0.1860 -0.9114 -0.1749
   68MOL    C7512269   5.418   3.350   6.981  0.1096  0.2574 -0.7620
   68MOL    C7612270   5.426   3.492   7.048  0.5732  0.3724  0.1048
   68MOL    H7712271   5.482   3.248   7.158 -0.2448  2.6151 -0.2478
   68MOL    H7812272   5.400   3.142   7.055  0.2708 -1.5571  1.5251
   68MOL    H7912273   5.334   3.340   6.912  0.8773 -2.4433 -1.3346
   68MOL    H8012274   5.436   3.484   7.156  1.0675  1.8740  0.1800
   68MOL    H8112275   5.504   3.559   7.012  2.5958 -0.7732  2.2135
   68MOL    H8212276   5.330   3.542   7.043  0.0435 -0.5679  0.6086
   68MOL    C8312277   5.548   3.315   6.902 -0.1633 -0.6995 -0.1906
   68MOL    C8412278   5.559   3.372   6.758 -0.0580 -0.8759  0.1282
   68MOL    C8512279   5.703   3.351   6.701 -0.0559 -0.1908 -0.7548
   68MOL    H8612280   5.638   3.350   6.951 -1.0103  1.3621 -0.0452
   68MOL    H8712281   5.559   3.207   6.890  0.1580 -0.6012 -0.7971
   68MOL    H8812282   5.545   3.479   6.777 -0.6962 -1.0195  0.5078
   68MOL    H8912283   5.779   3.410   6.754  0.6152  0.1352 -2.0720
   68MOL    H9012284   5.733   3.247   6.710 -1.3871 -0.4451  1.2105
   68MOL    H9112285   5.717   3.368   6.595  0.3211 -3.3182 -1.2399
   68MOL    C9212286   5.453   3.309   6.662 -0.6119 -0.1267 -0.3560
   68MOL    C9312287   5.419   3.393   6.536 -0.4143  0.0335  0.2418
   68MOL    C9412288   5.352   3.308   6.423  1.0774  0.1801 -0.2049
   68MOL    H9512289   5.499   3.220   6.617  1.3548  1.7889 -2.2766
   68MOL    H9612290   5.358   3.277   6.704  0.3320 -0.2354  1.7346
   68MOL    H9712291   5.514   3.411   6.487 -0.2466  0.6760  0.7876
   68MOL    H9812292   5.420   3.229   6.391 -1.3414 -1.6811 -0.9032
   68MOL    H9912293   5.253   3.271   6.446  1.2291  0.3431  0.7301
   68MOL   H10012294   5.340   3.369   6.334 -0.8138 -0.1230 -0.1765
   68MOL   C10112295   5.343   3.527   6.570  0.3418  0.7145  0.3039
   68MOL   C10212296   5.400   3.645   6.505  0.1258 -0.1226  0.1498
   68MOL   C10312297   5.334   3.674   6.376  0.0897 -0.4899  0.1331
   68MOL   H10412298   5.236   3.520   6.549  0.5153 -0.5401 -0.2531
   68MOL   H10512299   5.363   3.538   6.676  1.2430 -3.0154  0.5832
   68MOL   H10612300   5.506   3.640   6.480  0.5729  0.9578  1.7613
   68MOL   H10712301   5.226   3.660   6.381  0.2176 -1.4313  0.3689
   68MOL   H10812302   5.345   3.782   6.360  1.1736 -0.2788  2.1619
   68MOL   H10912303   5.369   3.622   6.287  0.3774 -2.8455  1.5965
   68MOL   C11012304   5.379   3.774   6.597  0.3952  0.1663 -1.0938
   68MOL   C11112305   5.453   3.778   6.738  0.0763 -0.4736  0.2800
   68MOL   C11212306   5.603   3.769   6.710  0.2627 -0.6206  0.1924
   68MOL   H11312307   5.411   3.867   6.550 -1.1828  1.9857  1.3164
   68MOL   H11412308   5.273   3.794   6.612  0.2912 -0.3930 -1.0909
   68MOL   H11512309   5.437   3.690   6.800  0.6854 -1.6820 -1.2584
   68MOL   H11612310   5.639   3.852   6.648  2.3557  0.3302  2.6092
   68MOL   H11712311   5.665   3.775   6.799  2.3994 -0.5567 -1.2698
   68MOL   H11812312   5.639   3.685   6.651  1.5735 -0.3353  0.5636
   68MOL   C11912313   5.408   3.908   6.801 -0.1475 -0.6653  0.0441
   68MOL   C12012314   5.291   3.897   6.901  0.2424 -0.7550 -0.7853
   68MOL   C12112315   5.331   3.844   7.044  0.1053  0.1084  0.1663
   68MOL   H12212316   5.487   3.950   6.863 -0.6940 -1.3929  1.2383
   68MOL   H12312317   5.394   3.989   6.729 -0.2476 -0.9513 -0.2551
   68MOL   H12412318   5.215   3.839   6.849  2.0082 -2.5282 -1.4738
   68MOL   H12512319   5.393   3.756   7.034 -2.6052 -1.8731  0.0978
   68MOL   H12612320   5.385   3.922   7.098  0.4069 -0.5323  0.7919
   68MOL   H12712321   5.251   3.815   7.112  1.5378  0.2547  1.9509
   68MOL   C12812322   5.230   4.044   6.921  0.3682 -0.1080 -0.2833
   68MOL   C12912323   5.098   4.070   7.007 -0.1009 -0.3811  0.5801
   68MOL   C13012324   5.121   4.196   7.093 -0.3780 -0.2658  0.1247
   68MOL   H13112325   5.310   4.103   6.964 -0.3469 -0.2078  1.1965
   68MOL   H13212326   5.218   4.090   6.823 -0.0974  0.5138  0.0643
   68MOL   H13312327   5.090   3.991   7.081 -1.2411 -0.8937 -0.0791
   68MOL   H13412328   5.209   4.178   7.155  0.7294  1.5205 -0.8717
   68MOL   H13512329   5.153   4.288   7.045 -1.8054  0.7086  1.0050
   68MOL   H13612330   5.044   4.210   7.169  1.0763 -0.7789  1.7243
   68MOL   C13712331   4.969   4.073   6.923  0.3346  0.3049  0.5210
   68MOL   C13812332   4.936   3.936   6.855 -0.2860  0.0341  0.7258
   68MOL   C13912333   4.930   3.822   6.953 -0.2972 -0.5438 -0.3941
   68MOL   H14012334   4.893   4.093   6.998 -1.0427  0.2537 -0.8471
   68MOL   H14112335   4.966   4.145   6.841 -0.4313  0.7857  0.9603
   68MOL   H14212336   5.015   3.925   6.780 -1.8346 -1.3590 -0.7704
   68MOL   H14312337   5.024   3.807   7.007 -0.5065  1.3983  0.5791
   68MOL   H14412338   4.848   3.840   7.022  1.3203  2.0049  0.9730
   68MOL   H14512339   4.910   3.727   6.904 -1.3710 -0.1038 -0.8080
   68MOL   C14612340   4.799   3.959   6.783  0.2983 -0.0826 -0.1796
   68MOL   C14712341   4.753   3.840   6.691 -0.3285 -0.5049  0.7515
   68MOL   C14812342   4.601   3.846   6.667 -0.2694 -0.1754  0.3655
   68MOL   H14912343   4.727   3.981   6.862  1.8565 -1.8699  1.7973
   68MOL   H15012344   4.809   4.053   6.730  0.6774 -0.4361 -0.7375
   68MOL   H15112345   4.766   3.744   6.741 -0.0466 -0.3760  0.9287
   68MOL   H15212346   4.570   3.780   6.586  0.7355  1.1392 -1.1149
   68MOL   H15312347   4.539   3.821   6.753  0.6153  0.1971  1.1249
   68MOL   H15412348   4.570   3.944   6.631  0.0597 -1.1359 -2.6469
   68MOL   C15512349   4.845   3.814   6.563 -0.0139 -0.0827  0.2692
   68MOL   C15612350   4.820   3.676   6.509 -0.6758  0.1719 -0.0173
   68MOL   C15712351   4.855   3.676   6.365 -0.4190  0.2133 -0.6218
   68MOL   H15812352   4.825   3.891   6.489 -1.2538  0.8981  1.5991
   68MOL   H15912353   4.951   3.821   6.591 -0.2501  2.3944  0.6558
   68MOL   H16012354   4.718   3.640   6.518 -0.6615  0.5666  1.8378
   68MOL   H16112355   4.804   3.760   6.317  2.0622  1.5063 -1.0709
   68MOL   H16212356   4.958   3.706   6.348 -0.6325  1.8993  0.9119
   68MOL   H16312357   4.828   3.585   6.311 -1.1428 -1.6412  2.7185
   68MOL   C16412358   4.907   3.572   6.587 -0.7186 -0.2515 -0.1228
   68MOL   C16512359   4.842   3.427   6.595 -0.4610 -0.6829  0.3402
   68MOL   C16612360   4.938   3.315   6.641 -0.5270  0.6003  0.6481
   68MOL   H16712361   5.000   3.561   6.530 -0.9953  0.6521 -0.7638
   68MOL   H16812362   4.945   3.599   6.685 -2.0209 -0.2246  0.3794
   68MOL   H16912363   4.799   3.405   6.498 -1.8818  3.5420 -0.1179
   68MOL   H17012364   4.874   3.227   6.653  0.9122 -0.2858  2.0214
   68MOL   H17112365   5.014   3.291   6.567 -0.7058  0.9145  0.3662
   68MOL   H17212366   4.987   3.326   6.738 -0.8505  2.0072  0.6623
   68MOL   C17312367   4.722   3.425   6.691  0.4334 -0.7091 -0.1771
   68MOL   C17412368   4.615   3.315   6.689  0.5860 -0.2567 -0.1938
   68MOL   C17512369   4.516   3.318   6.803 -0.2208  0.1734  1.0091
   68MOL   H17612370   4.769   3.425   6.789 -3.3242  0.4674  1.6976
   68MOL   H17712371   4.676   3.524   6.695  0.8724 -0.5209  0.2600
   68MOL   H17812372   4.659   3.216   6.678  0.6521 -0.5089  2.0234
   68MOL   H17912373   4.558   3.285   6.898  1.2369  0.5414  0.5079
   68MOL   H18012374   4.473   3.418   6.811  1.2204  0.7398  1.8712
   68MOL   H18112375   4.431   3.254   6.780 -0.2440  1.0039 -1.3952
   68MOL   H18212376   4.565   3.329   6.593  0.6316 -2.8336 -0.6227
   69MOL     C112377   1.531   5.340   4.312  0.1740  0.2358  0.4301
   69MOL     C212378   1.641   5.438   4.322 -0.2078  0.1057  0.6781
   69MOL     C312379   1.699   5.458   4.181 -0.2351 -0.0948  0.2598
   69MOL     H412380   1.477   5.322   4.405  0.2121  0.0640  0.4201
   69MOL     H512381   1.564   5.243   4.274 -2.2601 -0.7156  0.6405
   69MOL     H612382   1.718   5.396   4.386  1.4941  3.0923  0.7061
   69MOL     H712383   1.740   5.364   4.144 -1.2177 -0.5972  0.4566
   69MOL     H812384   1.622   5.495   4.114 -0.3825 -0.1314  0.4114
   69MOL     H912385   1.780   5.529   4.196  0.4334 -0.6750 -0.5628
   69MOL    H1012386   1.465   5.380   4.235 -1.3929 -3.0301 -0.0062
   69MOL    C1112387   1.597   5.573   4.385  0.3949  0.2551 -0.3464
   69MOL    C1212388   1.539   5.574   4.525 -0.2606 -0.1231 -0.1749
   69MOL    C1312389   1.659   5.586   4.622 -0.2138  0.2065 -0.3054
   69MOL    H1412390   1.666   5.655   4.366  0.2204  0.2993 -0.7837
   69MOL    H1512391   1.505   5.594   4.331 -1.4595 -1.8333  1.8932
   69MOL    H1612392   1.485   5.483   4.551  1.0218 -0.6027  0.8698
   69MOL    H1712393   1.714   5.492   4.614  1.9610  1.4540 -0.3612
   69MOL    H1812394   1.720   5.664   4.577 -2.0979  1.3279 -0.9614
   69MOL    H1912395   1.636   5.608   4.726 -0.6540 -2.9082  0.3053
   69MOL    C2012396   1.446   5.702   4.557 -0.7402 -0.1780  0.0299
   69MOL    C2112397   1.296   5.681   4.540 -0.0496  0.2144 -0.6541
   69MOL    C2212398   1.255   5.621   4.399 -0.7194 -0.5925  0.5454
   69MOL    H2312399   1.484   5.744   4.650 -0.5683  1.0320 -0.5762
   69MOL    H2412400   1.464   5.777   4.480  0.0451 -0.2898  0.0979
   69MOL    H2512401   1.251   5.780   4.546 -0.3469  0.0552 -0.1808
   69MOL    H2612402   1.303   5.526   4.373 -0.0942 -0.1132 -0.0747
   69MOL    H2712403   1.146   5.623   4.395 -0.7828  0.0359  2.2419
   69MOL    H2812404   1.281   5.697   4.325 -3.0179  0.0846  0.3828
   69MOL    C2912405   1.231   5.608   4.658  0.2120  0.1376 -0.3956
   69MOL    C3012406   1.247   5.681   4.798  1.1931  0.6242 -0.1820
   69MOL    C3112407   1.139   5.797   4.811 -0.0501  0.5298  0.2074
   69MOL    H3212408   1.125   5.584   4.644  0.6194 -1.4610 -0.8654
   69MOL    H3312409   1.274   5.507   4.655  1.2762  0.5783 -0.2234
   69MOL    H3412410   1.344   5.727   4.816  1.0296  0.4053  1.3924
   69MOL    H3512411   1.139   5.857   4.901  3.6036  0.6055  0.2315
   69MOL    H3612412   1.163   5.861   4.726 -1.1697 -0.5527 -0.9473
   69MOL    H3712413   1.040   5.753   4.795  0.2889 -0.7214  1.4836
   69MOL    C3812414   1.246   5.577   4.914  0.0224 -0.5326  1.3268
   69MOL    C3912415   1.382   5.501   4.934  0.6572 -0.6585 -0.0340
   69MOL    C4012416   1.483   5.563   5.031 -0.3494  0.2167  0.3595
   69MOL    H4112417   1.227   5.629   5.008 -0.1219 -0.0104  1.0135
   69MOL    H4212418   1.165   5.508   4.894  0.8567 -1.1350  0.0098
   69MOL    H4312419   1.436   5.502   4.839 -1.3347  1.6541 -1.2043
   69MOL    H4412420   1.529   5.640   4.970 -0.7281  0.4346  0.3458
   69MOL    H4512421   1.437   5.604   5.121 -2.1241  2.2778 -1.4308
   69MOL    H4612422   1.558   5.490   5.060 -2.0696 -1.6024  0.3588
   69MOL    C4712423   1.347   5.361   4.977 -0.7768  0.0982 -0.5883
   69MOL    C4812424   1.457   5.257   4.962 -0.4885 -0.6770  0.8602
   69MOL    C4912425   1.415   5.120   5.015  0.7751  0.3547 -0.1005
   69MOL    H5012426   1.312   5.362   5.081 -0.4252  1.0067 -0.4786
   69MOL    H5112427   1.258   5.321   4.928 -1.7683  1.1653  0.3202
   69MOL    H5212428   1.545   5.284   5.020  0.9626 -0.0660 -1.5715
   69MOL    H5312429   1.335   5.072   4.959  0.6686 -2.5284  2.4316
   69MOL    H5412430   1.492   5.047   5.038  1.2531  0.6612 -0.7073
   69MOL    H5512431   1.378   5.134   5.117  1.3680  0.2754  0.1286
   69MOL    C5612432   1.504   5.249   4.813  0.3643 -0.0174 -0.9886
   69MOL    C5712433   1.604   5.143   4.772 -0.1609  0.6848  1.0979
   69MOL    C5812434   1.592   5.128   4.619 -0.4874  0.3482 -0.8227
   69MOL    H5912435   1.413   5.234   4.754  0.6760 -4.5361 -0.4899
   69MOL    H6012436   1.548   5.344   4.785  0.6820  0.0220 -0.3661
   69MOL    H6112437   1.573   5.050   4.820 -0.8835  1.4610  2.1449
   69MOL    H6212438   1.500   5.073   4.602 -0.3081 -0.2595  0.1560
   69MOL    H6312439   1.597   5.228   4.576  1.2989  1.8289  2.6824
   69MOL    H6412440   1.674   5.067   4.579 -1.1548 -0.7944 -0.4763
   69MOL    C6512441   1.752   5.169   4.814 -0.2050 -0.0459 -0.3746
   69MOL    C6612442   1.843   5.040   4.818  0.8378 -0.1368  0.3532
   69MOL    C6712443   1.996   5.076   4.807  0.4135  0.4800 -0.2432
   69MOL    H6812444   1.795   5.237   4.741 -1.5914  0.8213 -0.3812
   69MOL    H6912445   1.753   5.230   4.905  0.5716 -0.2116 -0.2649
   69MOL    H7012446   1.830   4.978   4.729  2.3902  1.7112 -1.2216
   69MOL    H7112447   2.026   5.136   4.892 -1.5687 -1.0629  1.5867
   69MOL    H7212448   2.052   4.983   4.810 -2.0691 -1.0665 -1.0610
   69MOL    H7312449   2.012   5.121   4.708 -1.0208  0.6944 -0.3910
   69MOL    C7412450   1.823   4.955   4.945 -0.0355 -0.1072 -0.1022
   69MOL    C7512451   1.854   4.808   4.928 -0.0621 -0.7015 -0.7583
   69MOL    C7612452   1.862   4.729   5.061  0.4893  0.2567 -0.2515
   69MOL    H7712453   1.893   4.990   5.020  0.6216 -1.1146 -0.2497
   69MOL    H7812454   1.727   4.970   4.995  1.1108  0.0999  2.1072
   69MOL    H7912455   1.949   4.798   4.876  0.2387 -3.1265  0.1665
   69MOL    H8012456   1.846   4.622   5.053 -0.4696  0.4717 -1.2548
   69MOL    H8112457   1.960   4.742   5.109  0.8327  0.1806 -0.9252
   69MOL    H8212458   1.780   4.754   5.128 -2.5365 -2.0713 -2.9094
   69MOL    C8312459   1.746   4.741   4.843  0.0039  0.0513  0.3271
   69MOL    C8412460   1.774   4.603   4.777 -0.4985 -0.3005 -0.1523
   69MOL    C8512461   1.651   4.516   4.733 -0.7254 -0.4283  0.6684
   69MOL    H8612462   1.661   4.723   4.909 -0.2883  0.5409  0.0853
   69MOL    H8712463   1.718   4.815   4.769 -0.7380  0.8823  1.4181
   69MOL    H8812464   1.821   4.541   4.853 -0.5298 -0.1654 -0.0231
   69MOL    H8912465   1.578   4.519   4.813 -0.1484  1.7289  1.1262
   69MOL    H9012466   1.603   4.556   4.644  2.5090  0.9737 -0.5132
   69MOL    H9112467   1.687   4.418   4.700  0.6201  0.1460  0.4201
   69MOL    C9212468   1.870   4.617   4.662  0.4865  0.7119 -0.3520
   69MOL    C9312469   1.953   4.498   4.623  0.0377 -0.1616 -1.0045
   69MOL    C9412470   1.954   4.487   4.466 -0.1946 -0.1357  1.0401
   69MOL    H9512471   1.800   4.638   4.581 -0.6380  1.2061  0.7288
   69MOL    H9612472   1.932   4.707   4.661  1.8258 -0.2098 -1.6721
   69MOL    H9712473   1.904   4.407   4.659 -2.5041  2.3278  2.1019
   69MOL    H9812474   1.997   4.577   4.423 -0.5835  0.8077  2.6074
   69MOL    H9912475   2.015   4.405   4.427  1.4811  1.1306  0.9945
   69MOL   H10012476   1.854   4.460   4.432  0.0887 -1.4359  1.1903
   69MOL   C10112477   2.095   4.492   4.678  0.0690  0.3677 -0.6642
   69MOL   C10212478   2.117   4.513   4.824  0.2509  0.3988 -0.5047
   69MOL   C10312479   2.060   4.401   4.911  0.0583 -0.4438 -0.0994
   69MOL   H10412480   2.131   4.393   4.650 -0.2218 -0.0663  0.4551
   69MOL   H10512481   2.165   4.555   4.624  0.3052 -0.0596 -0.8560
   69MOL   H10612482   2.065   4.605   4.854  0.7541  0.0198  1.5698
   69MOL   H10712483   1.968   4.361   4.869  0.8423 -0.6808 -1.6292
   69MOL   H10812484   2.124   4.313   4.918  0.3647 -0.4391 -2.3944
   69MOL   H10912485   2.031   4.439   5.009 -0.4420 -1.2418  0.0602
   69MOL   C11012486   2.268   4.544   4.854  0.3365  0.2710  0.8026
   69MOL   C11112487   2.306   4.576   4.996 -0.7405  0.2238 -0.6530
   69MOL   C11212488   2.456   4.565   5.027  0.4177  0.2750  0.0703
   69MOL   H11312489   2.323   4.452   4.833  1.4127  1.1719 -0.4067
   69MOL   H11412490   2.305   4.622   4.788  0.3508 -1.7986 -1.7608
   69MOL   H11512491   2.254   4.501   5.056  1.8976 -0.2665  1.1042
   69MOL   H11612492   2.518   4.635   4.971 -1.2936  0.8440 -1.1379
   69MOL   H11712493   2.462   4.574   5.136 -1.2233 -0.4840  0.2437
   69MOL   H11812494   2.498   4.466   5.005 -1.7734 -1.3991  2.9455
   69MOL   C11912495   2.263   4.717   5.034  0.3078 -0.1696 -0.0574
   69MOL   C12012496   2.284   4.773   5.176  0.6140  0.0254  0.0530
   69MOL   C12112497   2.231   4.922   5.187  0.8716  0.2867  0.4393
   69MOL   H12212498   2.303   4.784   4.958 -1.2068 -0.4084 -1.0728
   69MOL   H12312499   2.156   4.704   5.019  0.5628  0.1618 -2.4249
   69MOL   H12412500   2.391   4.781   5.192  0.5447 -0.3218  0.7311
   69MOL   H12512501   2.250   4.965   5.285 -0.2549 -2.7407  2.0316
   69MOL   H12612502   2.282   4.976   5.107  0.6757 -0.0770  0.0632
   69MOL   H12712503   2.124   4.928   5.167  1.2113  0.1057 -1.6109
   69MOL   C12812504   2.227   4.677   5.280 -0.3794  0.1828  0.0737
   69MOL   C12912505   2.299   4.651   5.412  0.3611 -0.0332 -0.0717
   69MOL   C13012506   2.332   4.777   5.490 -0.6172 -0.4378 -0.1395
   69MOL   H13112507   2.120   4.691   5.300 -0.3492 -0.7849  1.0116
   69MOL   H13212508   2.234   4.573   5.246 -0.1817 -0.6126  2.4153
   69MOL   H13312509   2.397   4.627   5.371 -0.0016  1.1077 -1.6894
   69MOL   H13412510   2.244   4.836   5.517 -0.2248 -0.0312  0.2610
   69MOL   H13512511   2.376   4.758   5.588 -0.9042  1.1155  0.3029
   69MOL   H13612512   2.404   4.837   5.434 -1.9398  0.4392 -0.9324
   69MOL   C13712513   2.227   4.546   5.502 -0.2740  0.0469  0.4187
   69MOL   C13812514   2.326   4.462   5.595  0.3204 -0.6283  0.9457
   69MOL   C13912515   2.271   4.432   5.732  0.8902 -0.7106 -0.0751
   69MOL   H14012516   2.146   4.584   5.564 -0.3631 -2.7945  2.1514
   69MOL   H14112517   2.170   4.478   5.440 -1.1826  1.1640  0.0147
   69MOL   H14212518   2.417   4.522   5.597 -0.3863  0.4073  3.4548
   69MOL   H14312519   2.257   4.522   5.791  0.2883 -0.8384 -0.0249
   69MOL   H14412520   2.181   4.373   5.720 -0.1794  0.9400 -0.3500
   69MOL   H14512521   2.329   4.367   5.798  0.4252 -1.6654 -0.6004
   69MOL   C14612522   2.367   4.327   5.535 -0.0516  0.0566  0.0334
   69MOL   C14712523   2.453   4.327   5.408 -0.1228 -0.3569  0.0359
   69MOL   C14812524   2.602   4.362   5.440  0.4127 -0.5442  1.1841
   69MOL   H14912525   2.423   4.265   5.605  0.9588  1.2581  0.3002
   69MOL   H15012526   2.272   4.282   5.505 -0.4258  0.3656  0.7386
   69MOL   H15112527   2.413   4.394   5.332 -0.2431 -0.7846 -0.2843
   69MOL   H15212528   2.634   4.294   5.519  0.8029 -1.1202  0.5336
   69MOL   H15312529   2.669   4.349   5.356  0.8852 -1.5208  1.6982
   69MOL   H15412530   2.617   4.460   5.485 -0.1761  0.6214 -1.1289
   69MOL   C15512531   2.455   4.190   5.349  0.2714 -0.0819  0.3825
   69MOL   C15612532   2.328   4.129   5.289  0.2817  0.1369 -0.2897
   69MOL   C15712533   2.239   4.224   5.212 -0.3304 -0.1011 -0.0103
   69MOL   H15812534   2.531   4.183   5.271  0.2775 -1.0365  0.4608
   69MOL   H15912535   2.482   4.116   5.425 -1.1473  0.2451  1.2340
   69MOL   H16012536   2.276   4.098   5.379 -0.2457  3.0052  0.4339
   69MOL   H16112537   2.219   4.318   5.264  1.3925  1.7449 -2.5987
   69MOL   H16212538   2.291   4.266   5.127  0.2980 -0.2230  0.3158
   69MOL   H16312539   2.140   4.185   5.184  0.5149 -1.7234 -0.8081
   69MOL   C16412540   2.357   4.006   5.194  0.0655 -0.3239 -0.1672
   69MOL   C16512541   2.473   3.911   5.241  0.0879 -0.1843 -0.1951
   69MOL   C16612542   2.426   3.833   5.368 -0.4256 -0.9582 -0.7405
   69MOL   H16712543   2.264   3.953   5.175  0.2173 -0.7459  0.2570
   69MOL   H16812544   2.390   4.052   5.100  1.3844  0.9164  0.8781
   69MOL   H16912545   2.560   3.963   5.281 -0.1811  0.5554 -0.5647
   69MOL   H17012546   2.346   3.759   5.362 -1.1387 -0.3084  0.5015
   69MOL   H17112547   2.499   3.773   5.423  0.9899  1.0385 -0.3574
   69MOL   H17212548   2.386   3.909   5.436  2.1184  1.3589 -1.7357
   69MOL   C17312549   2.520   3.804   5.137 -0.0020 -0.2963  0.1631
   69MOL   C17412550   2.623   3.703   5.187  0.1127 -0.0769  0.0901
   69MOL   C17512551   2.666   3.610   5.068 -0.0276  0.1256 -0.2941
   69MOL   H17612552   2.424   3.756   5.118 -0.7793  1.9468 -1.7282
   69MOL   H17712553   2.559   3.843   5.043 -1.8582 -0.5059 -0.7138
   69MOL   H17812554   2.578   3.635   5.259 -1.2013  0.0451 -0.5794
   69MOL   H17912555   2.721   3.524   5.105  0.7170  0.8870  0.3819
   69MOL   H18012556   2.592   3.573   4.997  0.1110 -0.6069 -0.0661
   69MOL   H18112557   2.738   3.669   5.012  0.4953  1.0360  1.2941
   69MOL   H18212558   2.708   3.753   5.234 -1.0217  0.9032  1.1529
   70MOL     C112559   2.522   7.317   5.587 -0.0839  0.1310  0.0079
   70MOL     C212560   2.638   7.281   5.486  0.4995  0.1738  0.4393
   70MOL     C312561   2.588   7.217   5.358 -0.4592 -0.1445  0.2504
   70MOL     H412562   2.494   7.229   5.646  0.3021 -0.7286 -1.0709
   70MOL     H512563   2.433   7.353   5.534  0.7218  1.3095 -0.5599
   70MOL     H612564   2.704   7.208   5.533  0.9831  1.0101  1.0821
   70MOL     H712565   2.537   7.122   5.373 -0.5085 -0.0360  0.7783
   70MOL     H812566   2.535   7.281   5.288  0.3633 -0.0236 -0.2652
   70MOL     H912567   2.680   7.188   5.307 -0.0253  0.7164  0.5328
   70MOL    H1012568   2.557   7.397   5.651  1.3490  0.0940 -0.7144
   70MOL    C1112569   2.734   7.403   5.461  0.5350  0.7927  0.5170
   70MOL    C1212570   2.836   7.435   5.573  0.7468  0.0766 -0.2906
   70MOL    C1312571   2.939   7.326   5.596 -0.8203  0.8568  0.0407
   70MOL    H1412572   2.786   7.384   5.368 -0.8675  1.1244 -0.3531
   70MOL    H1512573   2.658   7.479   5.443 -0.8222 -0.3475  1.3140
   70MOL    H1612574   2.790   7.447   5.671 -1.7881  0.2554 -1.4452
   70MOL    H1712575   3.032   7.374   5.626  0.8048 -2.1923  0.0171
   70MOL    H1812576   2.916   7.254   5.674  1.3820 -2.5578 -2.3330
   70MOL    H1912577   2.961   7.267   5.507 -0.2094  1.1301  0.0079
   70MOL    C2012578   2.899   7.578   5.550 -0.4804  0.4549 -0.3781
   70MOL    C2112579   2.829   0.005   5.595  0.0227 -0.4927  0.0884
   70MOL    C2212580   2.690   0.031   5.528 -0.5843  0.9610 -0.0679
   70MOL    H2312581   3.005   7.589   5.572 -0.9640  1.6778  1.3859
   70MOL    H2412582   2.910   7.582   5.441 -2.2532 -1.7046 -0.6900
   70MOL    H2512583   2.882   0.085   5.544 -1.1698 -0.0379 -0.4673
   70MOL    H2612584   2.615   7.659   5.566  0.9805 -0.9575 -0.4533
   70MOL    H2712585   2.653   0.131   5.552 -1.3275  0.1837  2.1268
   70MOL    H2812586   2.694   0.026   5.419  2.0643 -2.2650  0.1054
   70MOL    C2912587   2.822   0.015   5.745  0.6771  0.7852  0.0229
   70MOL    C3012588   2.955   7.689   5.817  0.3680 -0.4406 -0.6318
   70MOL    C3112589   3.065   0.080   5.766  0.2306 -0.1599 -0.1276
   70MOL    H3212590   2.783   0.115   5.760 -2.9370 -0.6348  0.5297
   70MOL    H3312591   2.747   7.641   5.780  2.5307 -1.1430  0.2059
   70MOL    H3412592   2.990   7.586   5.811  0.8767 -0.3445  0.4999
   70MOL    H3512593   3.045   0.186   5.776 -2.2494 -0.7216  1.3426
   70MOL    H3612594   3.156   0.055   5.822  0.2544  0.6215  0.1815
   70MOL    H3712595   3.079   0.061   5.660 -1.4035 -0.4150 -0.3056
   70MOL    C3812596   2.937   0.015   5.966 -0.3324 -0.7784 -0.7176
   70MOL    C3912597   2.857   7.604   6.045 -0.2839 -0.6962  0.4818
   70MOL    C4012598   2.954   7.488   6.080  0.3415 -0.3190 -0.3508
   70MOL    H4112599   3.032   0.041   6.013 -1.1744  1.4170 -0.1397
   70MOL    H4212600   2.882   0.110   5.966  1.0788  0.0572 -1.3424
   70MOL    H4312601   2.792   7.550   5.976 -0.6788 -0.6798  0.8338
   70MOL    H4412602   2.896   7.400   6.107  1.4610 -0.8045  0.5042
   70MOL    H4512603   3.003   7.461   5.987 -1.1333 -0.4442 -1.0969
   70MOL    H4612604   3.034   7.510   6.151 -0.7079  1.7031  0.2404
   70MOL    C4712605   2.787   7.657   6.168  0.5034  0.4634 -0.6158
   70MOL    C4812606   2.679   0.071   6.146  0.2665  0.1325  0.2716
   70MOL    C4912607   2.573   0.019   6.043  0.1349  0.1134 -0.1409
   70MOL    H5012608   2.739   7.574   6.220  0.7554  0.8036  0.1674
   70MOL    H5112609   2.864   7.692   6.236  2.1981 -1.0458 -1.7303
   70MOL    H5212610   2.734   0.157   6.108 -0.3142  0.3962  0.0282
   70MOL    H5312611   2.519   7.633   6.086  0.8138  0.3912  1.2832
   70MOL    H5412612   2.500   0.098   6.024 -1.8198 -0.4905  4.1630
   70MOL    H5512613   2.618   0.002   5.946 -1.1628  1.4715 -1.0141
   70MOL    C5612614   2.614   0.129   6.282  0.1831  0.3411  0.0617
   70MOL    C5712615   2.521   0.241   6.269 -0.2171 -0.3670  0.1987
   70MOL    C5812616   2.447   0.273   6.396 -0.3276 -0.0464  0.1353
   70MOL    H5912617   2.549   0.052   6.324 -0.1398 -0.3058 -1.6053
   70MOL    H6012618   2.696   0.155   6.349 -0.4338  0.3835  0.8195
   70MOL    H6112619   2.448   0.213   6.193  1.1603 -1.3475 -0.8044
   70MOL    H6212620   2.524   0.302   6.467  0.5295 -0.7672 -0.4813
   70MOL    H6312621   2.386   0.362   6.378  0.9936  0.5472 -1.5382
   70MOL    H6412622   2.381   0.193   6.429  1.8747 -0.9873  2.4180
   70MOL    C6512623   2.605   0.367   6.227  0.2329  0.0248  0.3741
   70MOL    C6612624   2.609   0.403   6.073 -0.6166  0.5266  0.0166
   70MOL    C6712625   2.470   0.444   6.014 -0.4604 -0.9719  0.3885
   70MOL    H6812626   2.577   0.456   6.283  0.5699  0.1395  0.3600
   70MOL    H6912627   2.708   0.354   6.257  0.3254 -1.5559 -0.5413
   70MOL    H7012628   2.643   0.314   6.019 -1.3217  1.9883 -2.9132
   70MOL    H7112629   2.472   0.494   5.917  0.5692 -1.0266  0.3699
   70MOL    H7212630   2.403   0.360   5.997 -0.1273 -0.7194 -2.4373
   70MOL    H7312631   2.420   0.508   6.087 -1.4316 -0.9064 -0.3181
   70MOL    C7412632   2.717   0.511   6.043 -0.6223 -0.2014 -0.0993
   70MOL    C7512633   2.746   0.556   5.896  0.1462  0.1774 -0.1208
   70MOL    C7612634   2.860   0.665   5.894 -0.5531  0.2083  0.1230
   70MOL    H7712635   2.693   0.599   6.102  0.3825 -0.6667  1.0276
   70MOL    H7812636   2.812   0.471   6.078 -0.0646 -0.2730 -1.6389
   70MOL    H7912637   2.661   0.605   5.848  0.0461  0.1500  0.0291
   70MOL    H8012638   2.851   0.730   5.981 -0.0518 -1.4597  1.4242
   70MOL    H8112639   2.958   0.620   5.882  0.1110  1.8153 -0.6722
   70MOL    H8212640   2.856   0.718   5.799  0.2638 -1.2501 -0.7397
   70MOL    C8312641   2.785   0.448   5.800 -0.0388 -0.2736  0.2577
   70MOL    C8412642   2.826   0.489   5.653 -0.0885 -0.9542 -0.7171
   70MOL    C8512643   2.867   0.368   5.570 -0.0106 -0.4021 -0.5021
   70MOL    H8612644   2.868   0.392   5.843  1.2482  1.5716  0.2904
   70MOL    H8712645   2.709   0.371   5.803 -1.7232  1.3948  1.4992
   70MOL    H8812646   2.909   0.560   5.652  0.3183 -1.4280 -0.7002
   70MOL    H8912647   2.952   0.386   5.505 -1.1981  3.2710 -1.1258
   70MOL    H9012648   2.903   0.290   5.638  2.1059  0.3103 -0.7696
   70MOL    H9112649   2.782   0.334   5.511 -0.6600  0.6343 -0.1860
   70MOL    C9212650   2.714   0.567   5.563 -0.2859  0.3186  0.3747
   70MOL    C9312651   2.744   0.631   5.419 -0.9026  0.6744  0.4382
   70MOL    C9412652   2.867   0.722   5.428  0.2096 -0.3041 -0.8554
   70MOL    H9512653   2.626   0.506   5.545 -0.2178  0.1329  0.6700
   70MOL    H9612654   2.673   0.642   5.631 -0.0033  1.0281 -0.2264
   70MOL    H9712655   2.658   0.690   5.385 -1.2326  0.8670  1.5837
   70MOL    H9812656   2.946   0.660   5.470  0.2710 -0.5058 -1.2631
   70MOL    H9912657   2.905   0.761   5.334  0.7783  0.4918 -0.2999
   70MOL   H10012658   2.859   0.798   5.505  1.5376  0.1415 -1.1534
   70MOL   C10112659   2.765   0.526   5.308 -0.6120 -0.2409 -0.1072
   70MOL   C10212660   2.756   0.585   5.164 -0.7798  0.3501  0.1192
   70MOL   C10312661   2.816   0.496   5.053  0.3230 -0.0679 -0.5368
   70MOL   H10412662   2.863   0.480   5.317 -0.8978 -0.9127 -0.3538
   70MOL   H10512663   2.693   0.444   5.314  2.3520 -3.0492 -1.4794
   70MOL   H10612664   2.805   0.681   5.153 -1.5059  1.0768  2.8826
   70MOL   H10712665   2.811   0.546   4.956 -0.6631 -1.4765 -1.2279
   70MOL   H10812666   2.923   0.486   5.071 -0.0455 -1.5008  0.9741
   70MOL   H10912667   2.784   0.392   5.048  2.4276 -0.7950  0.1811
   70MOL   C11012668   2.604   0.614   5.135  0.2722 -0.1399  0.2909
   70MOL   C11112669   2.566   0.662   4.994 -0.5669 -0.3816  0.2235
   70MOL   C11212670   2.412   0.668   4.996  0.2377 -0.3668 -0.5740
   70MOL   H11312671   2.543   0.526   5.156  1.5814 -1.3270 -0.7621
   70MOL   H11412672   2.567   0.699   5.192  0.8451 -0.8005  1.6723
   70MOL   H11512673   2.601   0.597   4.914  1.0596  2.7353 -1.6428
   70MOL   H11612674   2.363   0.576   5.030  0.6009 -1.4942 -2.9711
   70MOL   H11712675   2.365   0.741   5.062 -2.2494 -0.8415 -1.7212
   70MOL   H11812676   2.368   0.690   4.898  0.1577  0.0005 -0.4576
   70MOL   C11912677   2.621   0.812   4.957  0.3806 -0.0764 -0.3365
   70MOL   C12012678   2.563   0.876   4.839  0.2690  0.4183  0.1097
   70MOL   C12112679   2.610   1.024   4.835  0.3632  0.0204  0.4374
   70MOL   H12212680   2.584   0.868   5.042 -0.5344 -0.2002 -0.6477
   70MOL   H12312681   2.729   0.826   4.956  0.2623  0.8575 -0.4413
   70MOL   H12412682   2.455   0.875   4.848  0.0528 -2.1549 -2.0091
   70MOL   H12512683   2.559   1.055   4.744  1.1740 -3.0860 -1.1423
   70MOL   H12612684   2.568   1.070   4.924  0.9642 -1.2020  1.3788
   70MOL   H12712685   2.718   1.037   4.831  0.1860  0.9449 -2.5013
   70MOL   C12812686   2.603   0.800   4.704  0.2742  0.3555  0.2998
   70MOL   C12912687   2.518   0.837   4.580  0.6585 -0.1697 -0.7407
   70MOL   C13012688   2.579   0.774   4.454  0.6595 -0.4433 -0.2112
   70MOL   H13112689   2.709   0.813   4.683  0.2293 -0.8672 -0.7255
   70MOL   H13212690   2.595   0.692   4.717 -1.1555  0.3291 -0.6252
   70MOL   H13312691   2.522   0.945   4.571  0.2728 -0.0377  0.5987
   70MOL   H13412692   2.677   0.818   4.440  0.2167  1.1662  1.5243
   70MOL   H13512693   2.588   0.666   4.454  1.0232 -0.4127 -0.7646
   70MOL   H13612694   2.513   0.798   4.370 -0.4140 -0.1651  0.6953
   70MOL   C13712695   2.359   0.797   4.592 -0.0069 -0.2894  0.6589
   70MOL   C13812696   2.272   0.888   4.502 -0.2558 -0.2225  0.5107
   70MOL   C13912697   2.147   0.821   4.446 -0.3640  0.0920  0.4926
   70MOL   H14012698   2.352   0.689   4.574 -1.3838 -0.0340 -0.3766
   70MOL   H14112699   2.314   0.808   4.691 -0.8332 -1.6294  0.4488
   70MOL   H14212700   2.328   0.907   4.410 -0.5061 -2.2325 -0.0851
   70MOL   H14312701   2.077   0.886   4.394 -0.0728  0.4934  0.5937
   70MOL   H14412702   2.172   0.741   4.377 -0.5708 -0.2827  0.8546
   70MOL   H14512703   2.087   0.780   4.527  0.7426  0.0391  1.3091
   70MOL   C14612704   2.232   1.025   4.575 -0.4309  0.5578  0.1746
   70MOL   C14712705   2.207   1.149   4.491  0.4772  0.1679 -0.0831
   70MOL   C14812706   2.143   1.251   4.585 -0.2773 -0.7814  0.8153
   70MOL   H14912707   2.146   0.992   4.634 -1.4549 -0.4279 -1.8325
   70MOL   H15012708   2.315   1.053   4.640  1.3187 -1.4423 -1.1586
   70MOL   H15112709   2.136   1.121   4.413 -0.2257  2.8861 -0.4971
   70MOL   H15212710   2.190   1.259   4.683 -0.6065  0.2796  0.8967
   70MOL   H15312711   2.142   1.348   4.534 -0.6726 -1.2198 -0.0218
   70MOL   H15412712   2.041   1.219   4.607 -0.3595 -1.1172 -0.0073
   70MOL   C15512713   2.333   1.203   4.424  0.5547 -0.1726 -0.2161
   70MOL   C15612714   2.302   1.300   4.304  0.4670 -0.0868 -0.1414
   70MOL   C15712715   2.399   1.420   4.295 -0.3086  0.4366  0.6864
   70MOL   H15812716   2.388   1.250   4.505  1.9521 -2.2944  0.1194
   70MOL   H15912717   2.396   1.120   4.390 -0.2769 -0.2995 -1.4605
   70MOL   H16012718   2.199   1.333   4.305  1.2375  2.5131 -1.9618
   70MOL   H16112719   2.503   1.387   4.303 -0.3357  0.6019  1.9480
   70MOL   H16212720   2.379   1.480   4.207 -2.3126 -2.1774 -0.6894
   70MOL   H16312721   2.382   1.474   4.389 -0.8240  0.6342  0.4793
   70MOL   C16412722   2.304   1.207   4.176  0.0613 -0.3497 -0.7030
   70MOL   C16512723   2.226   1.246   4.050 -1.1455  0.0872  0.4758
   70MOL   C16612724   2.074   1.239   4.068 -0.3194  0.0189 -0.6270
   70MOL   H16712725   2.404   1.173   4.151  0.6729 -0.1575  1.3309
   70MOL   H16812726   2.262   1.114   4.213  0.1999 -0.0677  0.1759
   70MOL   H16912727   2.257   1.163   3.986 -0.3185  1.0342 -0.3796
   70MOL   H17012728   2.050   1.304   4.152  0.2515 -0.1541 -0.3335
   70MOL   H17112729   2.015   1.267   3.981 -0.9926  0.2005 -0.1220
   70MOL   H17212730   2.040   1.140   4.101 -2.3566  0.0660 -2.4250
   70MOL   C17312731   2.264   1.369   3.971  0.7065  0.3669  0.1922
   70MOL   C17412732   2.412   1.374   3.916 -0.4209  0.2267 -0.0652
   70MOL   C17512733   2.433   1.458   3.793  0.3514 -0.3810 -0.2555
   70MOL   H17612734   2.195   1.365   3.887 -1.6333  2.0046  1.9892
   70MOL   H17712735   2.243   1.458   4.029 -1.6898 -1.6920  2.6347
   70MOL   H17812736   2.462   1.276   3.912 -0.2444  0.1979  2.1484
   70MOL   H17912737   2.379   1.552   3.797  1.9365  0.5416 -0.2427
   70MOL   H18012738   2.539   1.472   3.773  0.1641 -2.0622 -2.7392
   70MOL   H18112739   2.388   1.402   3.710 -1.3103  1.4617 -0.6506
   70MOL   H18212740   2.469   1.425   3.993 -1.3620  0.4325  0.4937
   71MOL     C112741   4.740   3.830   4.055 -0.3448  0.1195  0.4375
   71MOL     C212742   4.801   3.961   4.009  0.1829  0.0913 -0.0788
   71MOL     C312743   4.913   3.941   3.909  0.9020 -0.0101 -0.0583
   71MOL     H412744   4.822   3.774   4.100 -0.2633 -0.5210 -0.4970
   71MOL     H512745   4.685   3.770   3.983 -1.1385  1.1509  0.1798
   71MOL     H612746   4.839   4.008   4.100 -0.1376 -3.5119  2.0201
   71MOL     H712747   4.888   3.893   3.814  0.8054  0.3816 -0.2296
   71MOL     H812748   4.971   4.030   3.886  0.1548  0.0512 -1.7735
   71MOL     H912749   4.982   3.874   3.961 -0.0122 -0.0317  1.1377
   71MOL    H1012750   4.666   3.861   4.129 -0.3096 -1.4135  1.1305
   71MOL    C1112751   4.703   4.047   3.932  0.5792 -0.4553  0.5191
   71MOL    C1212752   4.564   4.086   3.984  0.4868  0.3834  0.2181
   71MOL    C1312753   4.566   4.145   4.133  0.2782  0.8239  0.1922
   71MOL    H1412754   4.750   4.143   3.912  1.1901 -1.0617 -1.0121
   71MOL    H1512755   4.667   4.004   3.839  1.8358  1.6504 -1.0004
   71MOL    H1612756   4.501   3.997   3.985  1.7120 -0.5101  0.8912
   71MOL    H1712757   4.638   4.226   4.143  1.9479 -0.5554 -0.4345
   71MOL    H1812758   4.468   4.187   4.157  0.0281 -0.1870  0.9756
   71MOL    H1912759   4.591   4.070   4.208  1.2405  3.0659  2.1525
   71MOL    C2012760   4.492   4.193   3.906  0.9141  0.0466  0.2234
   71MOL    C2112761   4.467   4.173   3.743 -0.7391  0.1364  0.2864
   71MOL    C2212762   4.378   4.052   3.720  0.3917  0.9742 -0.5194
   71MOL    H2312763   4.395   4.208   3.954  1.0464  0.4381  0.3680
   71MOL    H2412764   4.546   4.287   3.916  0.9875 -0.2493  2.8650
   71MOL    H2512765   4.563   4.151   3.696 -0.8899 -0.4954  0.2668
   71MOL    H2612766   4.365   4.021   3.617  1.4357  1.7701 -0.8977
   71MOL    H2712767   4.406   3.962   3.775  0.5643  1.6656  0.5470
   71MOL    H2812768   4.279   4.073   3.763 -0.3831  0.1192 -1.8594
   71MOL    C2912769   4.397   4.296   3.669  0.2314 -0.2866 -0.4096
   71MOL    C3012770   4.492   4.416   3.649  0.8332 -0.8382  0.1873
   71MOL    C3112771   4.614   4.386   3.551 -0.1423 -0.0401 -0.6550
   71MOL    H3212772   4.352   4.273   3.573  1.4690 -1.6913 -0.6666
   71MOL    H3312773   4.310   4.314   3.732  0.9381 -0.4654  0.6393
   71MOL    H3412774   4.538   4.447   3.743  1.0555  0.0560 -0.2089
   71MOL    H3512775   4.592   4.378   3.445 -0.8043 -0.6585 -0.4731
   71MOL    H3612776   4.692   4.461   3.565  0.3712 -0.4259 -1.4367
   71MOL    H3712777   4.649   4.287   3.580 -2.4971  0.3202  3.8115
   71MOL    C3812778   4.404   4.534   3.603 -0.3415 -0.6790 -0.6700
   71MOL    C3912779   4.480   4.672   3.614  0.2589  0.2182 -0.1399
   71MOL    C4012780   4.415   4.764   3.517 -0.1423  0.0774  0.5261
   71MOL    H4112781   4.370   4.512   3.502 -0.3006 -1.7558 -0.4494
   71MOL    H4212782   4.316   4.543   3.667  1.4351 -0.4592  1.8266
   71MOL    H4312783   4.567   4.653   3.552 -0.0558 -0.4688 -0.3764
   71MOL    H4412784   4.383   4.709   3.428  0.6770 -0.5694  0.6289
   71MOL    H4512785   4.315   4.795   3.550 -0.4395  1.9941 -2.0378
   71MOL    H4612786   4.462   4.857   3.485 -2.5487  1.9164  2.0648
   71MOL    C4712787   4.483   4.722   3.755 -0.4571 -0.4928 -0.1646
   71MOL    C4812788   4.620   4.782   3.790 -0.2262  0.4493  0.0067
   71MOL    C4912789   4.714   4.653   3.794 -0.3130  0.5241  0.4223
   71MOL    H5012790   4.422   4.812   3.767  0.3005 -0.1099  0.8577
   71MOL    H5112791   4.445   4.655   3.832  1.2004 -4.0125 -2.3071
   71MOL    H5212792   4.623   4.814   3.894  1.0743 -0.4138  0.2437
   71MOL    H5312793   4.800   4.686   3.853 -0.5734 -1.0824  1.7407
   71MOL    H5412794   4.668   4.572   3.850 -1.8089  0.0839 -1.3934
   71MOL    H5512795   4.749   4.621   3.697 -0.1450 -1.2181  1.0465
   71MOL    C5612796   4.675   4.898   3.708 -0.6339  0.4872  0.4739
   71MOL    C5712797   4.684   5.031   3.784 -0.2670  0.0133 -0.1411
   71MOL    C5812798   4.792   5.028   3.889 -0.7776 -0.3357 -0.6768
   71MOL    H5912799   4.770   4.878   3.658  0.4463 -0.4357  2.7934
   71MOL    H6012800   4.610   4.924   3.624 -1.4939  3.4457  1.9797
   71MOL    H6112801   4.589   5.043   3.837 -1.1088 -1.1249 -1.3615
   71MOL    H6212802   4.802   5.131   3.923 -1.5626 -0.0869 -1.1741
   71MOL    H6312803   4.768   4.962   3.972 -3.2160 -0.2307 -1.2596
   71MOL    H6412804   4.893   5.006   3.853  0.7590  3.4831  0.9935
   71MOL    C6512805   4.706   5.153   3.686 -0.1476  1.2934  0.3281
   71MOL    C6612806   4.593   5.183   3.583 -0.4269 -0.3268 -0.8929
   71MOL    C6712807   4.450   5.182   3.645 -0.0072 -0.5071 -0.0743
   71MOL    H6812808   4.718   5.243   3.747  1.8603  2.1104 -1.2075
   71MOL    H6912809   4.803   5.134   3.639 -0.5223  0.3807 -0.0842
   71MOL    H7012810   4.606   5.101   3.512  0.8702 -1.7530  0.9371
   71MOL    H7112811   4.372   5.213   3.575 -0.8739  0.4359  1.2809
   71MOL    H7212812   4.414   5.094   3.698 -1.7309 -0.4356 -1.1112
   71MOL    H7312813   4.445   5.260   3.722  0.1056 -0.2070 -0.3672
   71MOL    C7412814   4.633   5.304   3.498  0.3774 -0.9171  0.3092
   71MOL    C7512815   4.767   5.298   3.427 -0.3429  0.0486  0.1743
   71MOL    C7612816   4.760   5.195   3.317 -0.6041  0.4089  0.5541
   71MOL    H7712817   4.554   5.342   3.433  1.2799  0.3520 -0.0761
   71MOL    H7812818   4.635   5.385   3.571 -2.0712  0.1531 -0.7333
   71MOL    H7912819   4.848   5.276   3.497  0.2054  1.6265  0.0649
   71MOL    H8012820   4.858   5.185   3.270  0.3438  1.0966  2.3252
   71MOL    H8112821   4.748   5.094   3.356  1.2295 -0.1274 -0.2142
   71MOL    H8212822   4.685   5.207   3.239 -0.4689  1.5867  0.5849
   71MOL    C8312823   4.793   5.435   3.358  0.2170 -0.5822  0.0179
   71MOL    C8412824   4.847   5.540   3.456 -0.2945  0.5357 -0.3705
   71MOL    C8512825   4.977   5.500   3.537  0.1606  0.3717  0.1968
   71MOL    H8612826   4.867   5.426   3.278 -0.4461 -0.4481 -0.6078
   71MOL    H8712827   4.702   5.478   3.318 -1.3625 -2.3013  1.6577
   71MOL    H8812828   4.768   5.547   3.531 -0.1227  0.7118 -0.2081
   71MOL    H8912829   5.008   5.587   3.594 -0.1809  1.1576 -0.8179
   71MOL    H9012830   4.944   5.426   3.611  2.3146 -0.4218  0.3989
   71MOL    H9112831   5.061   5.469   3.475  0.1230 -0.2328  0.4416
   71MOL    C9212832   4.866   5.686   3.403 -0.9794  0.4974  0.1017
   71MOL    C9312833   4.747   5.756   3.319  0.2451  0.2652 -0.2003
   71MOL    C9412834   4.624   5.792   3.405  0.2912 -0.3182  0.3490
   71MOL    H9512835   4.899   5.752   3.483 -2.8789  1.0073  0.4956
   71MOL    H9612836   4.943   5.676   3.326  0.4530 -1.0663  1.7003
   71MOL    H9712837   4.720   5.685   3.240  0.6135  0.7107 -0.7314
   71MOL    H9812838   4.656   5.876   3.465  1.9610 -0.5791 -0.1600
   71MOL    H9912839   4.533   5.822   3.352  0.6158 -1.6565 -1.0138
   71MOL   H10012840   4.606   5.704   3.467 -0.6766 -0.4573 -0.1145
   71MOL   C10112841   4.801   5.884   3.254 -0.4728 -0.0923 -0.5303
   71MOL   C10212842   4.709   5.941   3.139 -0.2350  0.5553  0.4808
   71MOL   C10312843   4.693   6.093   3.149  0.7153  0.2126 -0.4684
   71MOL   H10412844   4.811   5.956   3.335  1.6720 -1.0116  0.0427
   71MOL   H10512845   4.899   5.889   3.206 -0.9696  0.7970 -1.4861
   71MOL   H10612846   4.610   5.897   3.146 -0.5135  0.9318 -0.9655
   71MOL   H10712847   4.622   6.134   3.078  0.6871  1.4224  0.2537
   71MOL   H10812848   4.660   6.120   3.249  0.6637  0.6202 -0.5958
   71MOL   H10912849   4.782   6.145   3.114  0.4588 -0.1651 -1.6966
   71MOL   C11012850   4.774   5.911   3.001 -0.5206 -0.3941  0.5076
   71MOL   C11112851   4.813   5.772   2.964  0.1009  0.6085  0.4175
   71MOL   C11212852   4.691   5.687   2.913 -0.3163  0.1307 -0.2108
   71MOL   H11312853   4.697   5.951   2.935 -1.1913  0.3453  1.7179
   71MOL   H11412854   4.854   5.983   2.987 -0.4783 -0.2137  1.6885
   71MOL   H11512855   4.843   5.717   3.053 -2.1703 -0.2356  0.7075
   71MOL   H11612856   4.728   5.585   2.908 -1.7904 -0.4285  0.2335
   71MOL   H11712857   4.604   5.695   2.977 -1.8041  1.1623 -2.3169
   71MOL   H11812858   4.657   5.710   2.812 -1.6589  2.4282  0.7227
   71MOL   C11912859   4.939   5.769   2.862  0.0359 -0.0433  0.2460
   71MOL   C12012860   5.017   5.634   2.854  0.0439 -1.0252  0.8156
   71MOL   C12112861   5.043   5.591   2.707  0.3029 -0.2038  0.1032
   71MOL   H12212862   4.912   5.795   2.760 -1.1027 -0.7799  0.3555
   71MOL   H12312863   5.008   5.847   2.895  0.3194  1.2323 -3.1481
   71MOL   H12412864   4.948   5.557   2.889  0.1607 -1.1976  0.6715
   71MOL   H12512865   4.951   5.595   2.648 -0.0744 -0.3354  0.6783
   71MOL   H12612866   5.118   5.656   2.662 -0.1518  0.7827  0.7226
   71MOL   H12712867   5.093   5.496   2.693  2.0971  0.8248 -0.7054
   71MOL   C12812868   5.153   5.646   2.925  0.0006  0.0918  0.1337
   71MOL   C12912869   5.149   5.670   3.078 -0.3842 -0.1447  0.0751
   71MOL   C13012870   5.116   5.547   3.159 -0.2332 -0.4286 -0.1048
   71MOL   H13112871   5.220   5.565   2.898 -2.1070 -1.7216  0.2691
   71MOL   H13212872   5.212   5.725   2.879  0.3813 -0.9273 -1.1604
   71MOL   H13312873   5.063   5.737   3.090  0.1173  0.9085 -2.0158
   71MOL   H13412874   5.114   5.570   3.266  0.6914  0.5498 -0.2870
   71MOL   H13512875   5.019   5.506   3.132 -1.4883  1.8832  0.7189
   71MOL   H13612876   5.198   5.477   3.148  1.4621  1.6387 -1.0654
   71MOL   C13712877   5.274   5.732   3.125 -0.4029 -0.0626 -0.5703
   71MOL   C13812878   5.266   5.832   3.245  0.5271  0.2515 -0.1607
   71MOL   C13912879   5.343   5.779   3.371  0.9754 -0.0285  0.6430
   71MOL   H14012880   5.350   5.658   3.151  1.7154  2.3876  0.4584
   71MOL   H14112881   5.321   5.796   3.050  0.7015  0.6422  0.6916
   71MOL   H14212882   5.164   5.834   3.282  0.4502  1.2046 -0.4016
   71MOL   H14312883   5.443   5.737   3.362  0.3620 -1.1546 -1.1995
   71MOL   H14412884   5.357   5.869   3.431  3.6012  1.4896 -2.1215
   71MOL   H14512885   5.285   5.714   3.437 -0.0041  0.6713  0.4948
   71MOL   C14612886   5.331   5.966   3.212 -0.0391 -0.1410 -0.4733
   71MOL   C14712887   5.275   6.056   3.093 -0.0251 -0.0246 -0.5996
   71MOL   C14812888   5.143   6.122   3.131 -0.1310 -0.0864 -0.1103
   71MOL   H14912889   5.332   6.040   3.292  0.0395  0.7855 -1.3100
   71MOL   H15012890   5.432   5.946   3.176 -0.3083 -0.9229 -0.8168
   71MOL   H15112891   5.234   5.998   3.010 -1.3314  1.3631 -0.9642
   71MOL   H15212892   5.150   6.212   3.192  1.3652  0.0889 -0.5142
   71MOL   H15312893   5.080   6.157   3.050 -1.1615 -2.9580 -0.6102
   71MOL   H15412894   5.062   6.062   3.172  1.3971 -2.1248 -0.0156
   71MOL   C15512895   5.377   6.152   3.022 -0.1286 -0.2405  0.5292
   71MOL   C15612896   5.327   6.201   2.884 -0.0450  0.0189  0.2432
   71MOL   C15712897   5.425   6.322   2.856 -0.1993 -0.1455  1.1800
   71MOL   H15812898   5.386   6.238   3.089  0.7120  0.9480 -1.0933
   71MOL   H15912899   5.479   6.116   3.020  0.0573  0.2827  0.5199
   71MOL   H16012900   5.228   6.244   2.898 -0.9029 -1.1209 -2.0165
   71MOL   H16112901   5.529   6.291   2.842 -0.1408  1.0550 -1.3102
   71MOL   H16212902   5.405   6.372   2.762  0.5819  0.8545  1.5293
   71MOL   H16312903   5.423   6.395   2.937 -0.6367 -1.6238  2.5483
   71MOL   C16412904   5.339   6.091   2.765 -0.8287 -0.4334  0.6529
   71MOL   C16512905   5.244   6.124   2.644  0.0710  0.3774  0.4519
   71MOL   C16612906   5.316   6.095   2.508 -0.3728  0.2685 -0.7018
   71MOL   H16712907   5.442   6.087   2.730  0.1170 -0.7021  3.3147
   71MOL   H16812908   5.323   5.993   2.812 -1.0990  0.4221  2.4020
   71MOL   H16912909   5.227   6.231   2.650 -1.8573  0.3780 -3.3010
   71MOL   H17012910   5.407   6.155   2.512 -0.3049  0.0873  0.7308
   71MOL   H17112911   5.335   5.988   2.499  2.1725  0.6699 -0.4910
   71MOL   H17212912   5.262   6.141   2.425 -1.0628  1.5240  0.4414
   71MOL   C17312913   5.104   6.053   2.657 -0.0161 -0.6996 -0.0793
   71MOL   C17412914   5.001   6.105   2.548  0.8106  0.3036 -0.0555
   71MOL   C17512915   4.854   6.077   2.585  0.1180  0.3966  0.0698
   71MOL   H17612916   5.109   5.944   2.655 -1.4505 -0.7628 -2.4951
   71MOL   H17712917   5.051   6.074   2.750  2.0841 -0.4652  1.0812
   71MOL   H17812918   5.038   6.057   2.457  0.8582  0.3300 -0.0501
   71MOL   H17912919   4.840   5.972   2.611  4.9948 -0.3884  0.1410
   71MOL   H18012920   4.827   6.142   2.667 -2.2213  0.9344 -1.0757
   71MOL   H18112921   4.787   6.095   2.501 -2.8551 -1.9053  1.8776
   71MOL   H18212922   5.020   6.212   2.548  0.7057  0.3514 -2.5092
   72MOL     C112923   4.970   7.233   3.379 -0.0723 -0.2348 -0.1885
   72MOL     C212924   5.011   7.374   3.334 -0.1802  0.1604 -0.2987
   72MOL     C312925   4.940   7.484   3.413  0.3149 -0.0584  0.0527
   72MOL     H412926   5.014   7.164   3.308  0.5272  0.2004 -0.2448
   72MOL     H512927   4.862   7.220   3.376 -0.3046  1.6940 -1.6294
   72MOL     H612928   4.980   7.378   3.229  0.3070  0.9418 -0.4115
   72MOL     H712929   4.834   7.458   3.406  0.8864 -1.9632 -1.8505
   72MOL     H812930   4.957   7.489   3.521  1.2039 -0.4785 -0.0696
   72MOL     H912931   4.963   7.575   3.358  1.4343 -0.7830 -0.6804
   72MOL    H1012932   5.015   7.208   3.475  3.0250  3.8841 -0.3941
   72MOL    C1112933   5.168   7.396   3.347  0.1047 -0.3516  0.5587
   72MOL    C1212934   5.222   7.478   3.230 -0.4243 -0.0764 -0.0345
   72MOL    C1312935   5.360   7.538   3.262 -0.0320 -0.3242  1.2099
   72MOL    H1412936   5.203   7.439   3.440  1.3403  1.0534 -0.5219
   72MOL    H1512937   5.218   7.299   3.353  0.1729 -0.4421 -1.1105
   72MOL    H1612938   5.160   7.564   3.205  0.3474  0.6273  0.4386
   72MOL    H1712939   5.384   7.546   3.368 -0.6088 -0.4414  1.3511
   72MOL    H1812940   5.441   7.480   3.216  0.2619 -0.0403  1.3652
   72MOL    H1912941   5.372   7.634   3.212 -0.1886 -2.0825 -2.3350
   72MOL    C2012942   5.239   7.384   3.109 -0.2607  0.4134  0.5691
   72MOL    C2112943   5.262   7.444   2.974  0.5208 -0.5671 -0.5907
   72MOL    C2212944   5.313   7.341   2.879 -0.2854  0.6436 -0.4279
   72MOL    H2312945   5.333   7.333   3.127 -0.4653 -0.2608 -0.2782
   72MOL    H2412946   5.163   7.306   3.099  0.3909 -0.0354 -0.9531
   72MOL    H2512947   5.329   7.528   2.986  1.3608 -1.0254 -1.9270
   72MOL    H2612948   5.384   7.267   2.916 -2.5650 -0.4485  1.9437
   72MOL    H2712949   5.235   7.272   2.848 -0.6648 -0.8009  3.4066
   72MOL    H2812950   5.358   7.387   2.791  1.3562  1.8128  0.9670
   72MOL    C2912951   5.132   7.495   2.899 -0.0248  0.2593 -0.2962
   72MOL    C3012952   5.150   7.584   2.775 -0.2429 -0.0786 -0.5399
   72MOL    C3112953   5.007   7.629   2.734  0.4665 -0.6848  0.0287
   72MOL    H3212954   5.059   7.416   2.882 -0.1239  0.2202  0.2756
   72MOL    H3312955   5.074   7.551   2.973  1.1927  1.8412 -0.5148
   72MOL    H3412956   5.199   7.527   2.696  0.1259  0.5270 -0.7511
   72MOL    H3512957   4.933   7.549   2.730 -2.9146  2.3374 -0.6064
   72MOL    H3612958   4.963   0.015   2.789  0.3034  0.7724 -2.2187
   72MOL    H3712959   5.008   7.668   2.632  0.1265 -1.3352 -0.2242
   72MOL    C3812960   5.245   0.010   2.785 -0.0685  0.7924  0.2064
   72MOL    C3912961   5.398   7.693   2.733 -0.0624  0.3759 -0.1135
   72MOL    C4012962   5.399   7.662   2.580  0.3353  0.4623  1.0389
   72MOL    H4112963   5.207   0.090   2.722 -0.1492  0.7163  0.1590
   72MOL    H4212964   5.242   0.040   2.890 -2.3377 -0.8570  0.6502
   72MOL    H4312965   5.450   7.607   2.774  1.1020 -1.0180 -4.2725
   72MOL    H4412966   5.345   0.043   2.527 -1.8679 -1.1627  0.8083
   72MOL    H4512967   5.502   7.685   2.550 -0.3488  3.3184  0.7296
   72MOL    H4612968   5.371   7.560   2.554  2.0156 -0.3497  2.3021
   72MOL    C4712969   5.487   0.111   2.780  0.4671  0.4810 -0.3401
   72MOL    C4812970   5.548   0.097   2.919  0.1014  0.3025 -0.3341
   72MOL    C4912971   5.676   0.012   2.923 -0.0080 -0.1989  0.0004
   72MOL    H5012972   5.562   0.136   2.705  0.5405 -0.0400 -0.4388
   72MOL    H5112973   5.420   0.196   2.767  1.8305  1.3231 -2.0239
   72MOL    H5212974   5.480   0.042   2.984 -0.8232  0.9204 -0.7723
   72MOL    H5312975   5.757   0.050   2.862  0.6011 -0.1496  0.8345
   72MOL    H5412976   5.707   7.693   3.026 -2.4881 -0.8429  0.6899
   72MOL    H5512977   5.659   7.608   2.887  1.5260 -0.9402  1.2987
   72MOL    C5612978   5.567   0.230   2.988  0.2476  0.3195  0.5424
   72MOL    C5712979   5.445   0.316   3.018  0.3259 -0.3212  0.5738
   72MOL    C5812980   5.347   0.230   3.105  0.3931  0.2279 -0.4789
   72MOL    H5912981   5.632   0.219   3.075  0.9922 -2.7948 -0.3352
   72MOL    H6012982   5.627   0.282   2.914  1.8033 -0.8403  0.9482
   72MOL    H6112983   5.397   0.345   2.925 -1.4276 -1.2381  1.1702
   72MOL    H6212984   5.387   0.196   3.201  2.1615  0.0244 -1.2634
   72MOL    H6312985   5.258   0.289   3.128  0.0791 -0.5867  0.4016
   72MOL    H6412986   5.317   0.139   3.053  2.5579  0.2043 -1.7583
   72MOL    C6512987   5.478   0.456   3.083 -0.1705  0.4010 -0.0557
   72MOL    C6612988   5.569   0.549   2.998  0.0896  0.0049 -0.9267
   72MOL    C6712989   5.504   0.604   2.872  0.4353 -0.5308  0.4267
   72MOL    H6812990   5.388   0.513   3.101  0.4378  1.2438  0.3635
   72MOL    H6912991   5.526   0.433   3.179  0.7075  0.5337 -0.4536
   72MOL    H7012992   5.661   0.496   2.973  0.7393  0.8230 -0.3358
   72MOL    H7112993   5.419   0.670   2.889 -0.6238 -1.8147  0.2305
   72MOL    H7212994   5.577   0.664   2.817 -0.8349 -0.4608 -1.2232
   72MOL    H7312995   5.467   0.524   2.807 -0.3419 -0.0965  0.3277
   72MOL    C7412996   5.634   0.665   3.069 -0.1164 -0.4646  0.2277
   72MOL    C7512997   5.714   0.634   3.193  0.6308  0.5132  0.0863
   72MOL    C7612998   5.823   0.523   3.167 -0.6876 -1.0700  0.0064
   72MOL    H7712999   5.706   0.708   2.998 -1.0883 -1.4075 -1.3717
   72MOL    H7813000   5.553   0.736   3.088  0.2724 -0.1078  0.5574
   72MOL    H7913001   5.641   0.584   3.257  1.7748 -0.6324  0.5204
   72MOL    H8013002   5.883   0.554   3.082 -0.0944 -1.1842  0.3800
   72MOL    H8113003   5.903   0.520   3.242  1.3091  1.1754 -1.9531
   72MOL    H8213004   5.783   0.425   3.143 -1.7335 -0.8226  0.7289
   72MOL    C8313005   5.776   0.762   3.255 -0.5226 -0.4730 -0.2751
   72MOL    C8413006   5.680   0.884   3.299  0.2177  0.6295 -0.3687
   72MOL    C8513007   5.593   0.853   3.426 -0.3729 -0.8063 -0.4561
   72MOL    H8613008   5.835   0.742   3.345  1.3071 -0.8294 -1.5257
   72MOL    H8713009   5.849   0.792   3.180  0.2063 -1.7713 -0.0940
   72MOL    H8813010   5.612   0.893   3.214 -0.4069  0.4629  0.1177
   72MOL    H8913011   5.530   0.768   3.400 -1.7050 -0.1297  0.4844
   72MOL    H9013012   5.647   0.841   3.520  0.1966  0.2648 -0.6429
   72MOL    H9113013   5.529   0.939   3.446  2.2076  0.9392  0.5931
   72MOL    C9213014   5.754   1.018   3.321 -0.1259  0.5338 -0.7472
   72MOL    C9313015   5.813   1.075   3.190 -0.6384  0.2892  0.3233
   72MOL    C9413016   5.711   1.170   3.118 -0.5314  0.5227 -0.4659
   72MOL    H9513017   5.708   1.093   3.385 -0.2590 -0.3812  0.2420
   72MOL    H9613018   5.843   0.989   3.377 -1.9541 -0.3465  1.7815
   72MOL    H9713019   5.836   0.993   3.123  1.5406  0.6795  0.5521
   72MOL    H9813020   5.613   1.124   3.105  0.4671 -1.3813 -1.3899
   72MOL    H9913021   5.712   1.264   3.174  1.2794 -0.0262  0.4626
   72MOL   H10013022   5.742   1.217   3.025 -0.2586  0.0738 -0.6036
   72MOL   C10113023   5.945   1.152   3.213 -0.1202 -0.2391  0.6450
   72MOL   C10213024   6.081   1.078   3.217  0.1565 -0.2760  0.3168
   72MOL   C10313025   6.165   1.109   3.095 -0.0738 -0.5824  0.0914
   72MOL   H10413026   5.956   1.233   3.142  1.1408 -0.5711  0.4436
   72MOL   H10513027   5.941   1.214   3.302 -0.1356  0.1302  0.3853
   72MOL   H10613028   6.063   0.971   3.204 -0.0417 -0.2021 -0.0101
   72MOL   H10713029   6.182   1.216   3.087 -2.1242 -0.2626 -0.2281
   72MOL   H10813030   6.259   1.053   3.091 -0.8327 -1.8515 -0.2869
   72MOL   H10913031   6.109   1.076   3.007 -0.6952 -1.7006  0.8926
   72MOL   C11013032   6.153   1.102   3.348  0.3350 -0.3918  0.1991
   72MOL   C11113033   6.239   0.979   3.392  0.1968 -0.5826  0.4009
   72MOL   C11213034   6.369   1.024   3.469 -1.0857 -0.1764  0.7968
   72MOL   H11313035   6.215   1.192   3.338  0.6943 -0.9446 -3.0361
   72MOL   H11413036   6.079   1.114   3.427 -2.9628  0.0492 -2.8589
   72MOL   H11513037   6.277   0.923   3.306 -0.1091  0.1273 -0.2064
   72MOL   H11613038   6.331   1.073   3.559  0.4298  2.4549  0.0378
   72MOL   H11713039   6.430   0.937   3.494  1.1497  0.4963 -2.0996
   72MOL   H11813040   6.432   1.095   3.416 -1.5332  1.8591  2.9107
   72MOL   C11913041   6.145   0.884   3.466 -0.5205  0.1971  0.7911
   72MOL   C12013042   6.217   0.741   3.475 -0.4443  0.4868  0.2656
   72MOL   C12113043   6.178   0.658   3.610  0.0722  0.2240  0.1659
   72MOL   H12213044   6.127   0.923   3.566  1.7059 -0.0388  1.2942
   72MOL   H12313045   6.043   0.892   3.428 -0.9364 -2.2399  1.3311
   72MOL   H12413046   6.324   0.761   3.476 -0.5597  1.0667  2.1845
   72MOL   H12513047   6.210   0.555   3.600 -0.9965 -0.2036  1.0236
   72MOL   H12613048   6.243   0.705   3.684 -0.3566  0.3441  0.4692
   72MOL   H12713049   6.075   0.656   3.646  0.1344  0.7796  0.3887
   72MOL   C12813050   6.181   0.670   3.343 -0.6379  1.2081  0.6199
   72MOL   C12913051   6.293   0.569   3.293 -0.0861 -0.4146  0.5573
   72MOL   C13013052   6.229   0.480   3.189  0.0947 -0.5496 -0.0417
   72MOL   H13113053   6.092   0.617   3.376 -2.1221  2.3484 -1.4793
   72MOL   H13213054   6.148   0.741   3.268 -1.2366  1.9132  1.5480
   72MOL   H13313055   6.302   0.500   3.377 -2.9003 -2.3730 -0.6863
   72MOL   H13413056   6.304   0.407   3.158  0.7112 -0.4671  1.2352
   72MOL   H13513057   6.138   0.435   3.229 -1.4804  1.5308 -1.1397
   72MOL   H13613058   6.191   0.531   3.100  0.2560  0.1240  0.2685
   72MOL   C13713059   6.425   0.642   3.240 -0.3798  0.4580 -0.5453
   72MOL   C13813060   6.548   0.552   3.216 -0.3803 -0.8775  0.0138
   72MOL   C13913061   6.573   0.536   3.065 -0.3153  0.4456 -0.0414
   72MOL   H14013062   6.404   0.699   3.150  4.1644  2.6151 -0.4063
   72MOL   H14113063   6.448   0.719   3.314 -1.4213  0.2565 -0.0062
   72MOL   H14213064   6.520   0.453   3.252 -0.8404 -0.3665  1.0857
   72MOL   H14313065   6.482   0.509   3.012  0.7316  0.2923 -1.7841
   72MOL   H14413066   6.595   0.636   3.027  1.3726 -1.1108 -3.2916
   72MOL   H14513067   6.649   0.461   3.044 -1.2796 -0.3089 -0.8810
   72MOL   C14613068   6.678   0.616   3.284  0.4856 -0.4411 -0.1819
   72MOL   C14713069   6.802   0.529   3.277 -1.1494 -0.2332 -0.3110
   72MOL   C14813070   6.929   0.595   3.348  0.5740 -0.2162 -0.1996
   72MOL   H14913071   6.692   0.717   3.246 -0.8207 -0.0192  0.4163
   72MOL   H15013072   6.669   0.636   3.391  0.5335  1.5250 -0.5275
   72MOL   H15113073   6.835   0.519   3.174  0.1258 -1.7044  0.2218
   72MOL   H15213074   7.010   0.523   3.359  1.8785  0.5769 -3.7653
   72MOL   H15313075   6.956   0.693   3.308 -0.8164  0.8703  1.4623
   72MOL   H15413076   6.918   0.617   3.454 -1.0516 -1.1335 -0.1707
   72MOL   C15513077   6.778   0.393   3.348 -0.3476 -0.4824 -0.5662
   72MOL   C15613078   6.734   0.389   3.502 -0.1470 -0.5477 -0.0201
   72MOL   C15713079   6.586   0.382   3.520  0.2084 -0.3900 -0.1709
   72MOL   H15813080   6.704   0.341   3.287 -0.3173 -0.9190 -0.2347
   72MOL   H15913081   6.872   0.343   3.325  0.2453  0.6781 -0.6681
   72MOL   H16013082   6.770   0.479   3.552  1.8820 -0.9379 -0.7041
   72MOL   H16113083   6.558   0.344   3.618  0.3020 -1.5235 -0.5713
   72MOL   H16213084   6.538   0.479   3.506  0.6095 -0.0171  1.0125
   72MOL   H16313085   6.537   0.313   3.452  2.3422 -1.3417 -0.7657
   72MOL   C16413086   6.814   0.277   3.571 -0.2219  0.9806  0.1925
   72MOL   C16513087   6.921   0.328   3.669 -0.7459 -0.1641 -0.6335
   72MOL   C16613088   6.851   0.392   3.795  0.2544  0.2551  0.1968
   72MOL   H16713089   6.746   0.219   3.633 -2.1324  0.3874 -2.3813
   72MOL   H16813090   6.847   0.195   3.508 -0.9238 -1.6524  3.1242
   72MOL   H16913091   6.977   0.400   3.610 -1.2449  0.3840 -0.4337
   72MOL   H17013092   6.794   0.319   3.852 -0.8079 -0.1564 -1.3636
   72MOL   H17113093   6.928   0.447   3.850  0.3694  0.4548 -0.1614
   72MOL   H17213094   6.776   0.468   3.771  1.9285  1.1671 -2.4613
   72MOL   C17313095   7.020   0.214   3.703 -0.1448 -0.0600  0.1777
   72MOL   C17413096   7.157   0.263   3.751  0.3672  0.3643  0.4464
   72MOL   C17513097   7.253   0.153   3.796  0.5912 -0.5660 -0.1873
   72MOL   H17613098   6.973   0.144   3.772  1.2819  0.2996  1.5433
   72MOL   H17713099   7.033   0.148   3.617  0.1694 -0.8949  0.8482
   72MOL   H17813100   7.135   0.344   3.820 -0.7096  1.1780 -0.8218
   72MOL   H17913101   7.218   0.090   3.878 -0.5818  1.3628  0.8090
   72MOL   H18013102   7.283   0.085   3.715 -0.5297 -1.0653 -0.1863
   72MOL   H18113103   7.344   0.185   3.846 -0.2605 -1.1672  1.7787
   72MOL   H18213104   7.206   0.310   3.666 -0.3222 -0.5122 -0.4604
   73MOL     C113105   4.953   3.818   4.851  0.4375  0.0097 -0.5882
   73MOL     C213106   4.884   3.739   4.966  0.3359  0.4531  0.1122
   73MOL     C313107   4.880   3.835   5.092  0.6359  0.9186 -0.8868
   73MOL     H413108   5.056   3.843   4.878 -0.7989  1.4914  3.0646
   73MOL     H513109   4.903   3.913   4.838  2.3337  1.0717 -0.3866
   73MOL     H613110   4.955   3.664   5.000 -1.5111 -0.8097  1.3027
   73MOL     H713111   4.805   3.913   5.077  0.8221  1.2551 -0.0628
   73MOL     H813112   4.844   3.772   5.173  3.1863 -1.8817 -1.8252
   73MOL     H913113   4.971   3.887   5.120  1.4037 -0.3824 -0.9400
   73MOL    H1013114   4.949   3.754   4.763 -2.1122  1.3546 -1.4805
   73MOL    C1113115   4.745   3.680   4.930 -0.0196 -0.2223  0.1626
   73MOL    C1213116   4.739   3.547   4.852 -0.8738 -0.3366 -0.1460
   73MOL    C1313117   4.767   3.424   4.933  0.6149  0.2784  0.4863
   73MOL    H1413118   4.703   3.667   5.030  1.0594 -1.4200  0.4696
   73MOL    H1513119   4.681   3.754   4.881 -2.6697 -2.5147  0.0067
   73MOL    H1613120   4.813   3.545   4.772  0.5850 -2.7519  1.1889
   73MOL    H1713121   4.681   3.398   4.995 -0.2057  0.9113 -0.3634
   73MOL    H1813122   4.799   3.334   4.879  0.5689 -0.0584  1.0160
   73MOL    H1913123   4.850   3.444   5.001 -0.6743  0.2165  2.1057
   73MOL    C2013124   4.598   3.532   4.794 -0.4550  0.0885  0.6980
   73MOL    C2113125   4.572   3.617   4.667 -0.7895  0.5623  0.5825
   73MOL    C2213126   4.635   3.554   4.539  0.1814  0.5470 -0.8911
   73MOL    H2313127   4.569   3.430   4.767 -2.5290  0.8725 -0.1101
   73MOL    H2413128   4.526   3.559   4.871 -2.5810 -1.3935 -0.7161
   73MOL    H2513129   4.617   3.716   4.679 -0.7446  0.7795 -1.2100
   73MOL    H2613130   4.627   3.622   4.453  3.4277  2.6599  0.3654
   73MOL    H2713131   4.742   3.540   4.553  0.1284 -1.5625 -2.3582
   73MOL    H2813132   4.579   3.462   4.521  0.6520  0.1808 -0.4802
   73MOL    C2913133   4.428   3.638   4.635  0.1585 -0.4192  0.6425
   73MOL    C3013134   4.355   3.735   4.731 -0.1608 -0.5522 -0.1981
   73MOL    C3113135   4.419   3.875   4.731  0.3035 -0.1185  0.0934
   73MOL    H3213136   4.399   3.663   4.533 -1.0481  0.2828  1.1358
   73MOL    H3313137   4.373   3.547   4.658 -1.3722  0.0774 -0.9099
   73MOL    H3413138   4.363   3.693   4.831  0.4067  0.7978  0.3360
   73MOL    H3513139   4.353   3.952   4.771 -2.8262 -2.8750  0.4997
   73MOL    H3613140   4.509   3.873   4.792 -0.8303  0.1709  1.8102
   73MOL    H3713141   4.438   3.907   4.629 -0.0792  2.0438  0.6794
   73MOL    C3813142   4.207   3.755   4.690 -0.1712  0.2202 -0.6290
   73MOL    C3913143   4.112   3.833   4.789  0.7430  0.1733 -0.2728
   73MOL    C4013144   3.978   3.847   4.719 -0.0172  0.3059 -0.8382
   73MOL    H4113145   4.205   3.789   4.587  0.2259 -1.2625 -1.1447
   73MOL    H4213146   4.164   3.654   4.691 -1.9960  0.9816  0.3747
   73MOL    H4313147   4.157   3.931   4.809 -0.3475  0.6569 -0.1750
   73MOL    H4413148   3.913   3.920   4.766 -0.7634 -0.4139 -0.7493
   73MOL    H4513149   3.995   3.864   4.613 -2.4334 -0.0471 -1.3081
   73MOL    H4613150   3.924   3.753   4.716  0.8786 -0.2702  0.5721
   73MOL    C4713151   4.088   3.760   4.928 -0.4057  0.6103  0.6109
   73MOL    C4813152   3.980   3.830   5.019 -0.0304  0.3872 -0.3526
   73MOL    C4913153   3.965   3.729   5.136 -0.2320  0.1191 -1.1463
   73MOL    H5013154   4.067   3.654   4.914 -0.0885  0.6148  0.0678
   73MOL    H5113155   4.180   3.751   4.986  0.3406 -1.3069 -0.8255
   73MOL    H5213156   3.889   3.822   4.960 -1.2644 -3.4597  1.9104
   73MOL    H5313157   3.948   3.632   5.091 -2.5133  0.8856 -2.0095
   73MOL    H5413158   4.056   3.722   5.195 -1.8963 -0.4339  1.4373
   73MOL    H5513159   3.880   3.762   5.196 -0.9781  0.2441 -2.2533
   73MOL    C5613160   4.027   3.966   5.067  0.0237 -0.0208 -0.2640
   73MOL    C5713161   3.936   4.041   5.165 -0.0406 -0.6174 -0.4031
   73MOL    C5813162   4.001   4.165   5.233  0.1726 -0.1056 -0.4529
   73MOL    H5913163   4.130   3.960   5.102  0.8043 -1.3499 -2.6788
   73MOL    H6013164   4.040   4.030   4.980  1.5601  0.3128  0.2044
   73MOL    H6113165   3.914   3.970   5.245 -1.7350 -0.2149 -0.4847
   73MOL    H6213166   3.936   4.205   5.311 -1.2961 -0.3925 -1.5293
   73MOL    H6313167   4.085   4.128   5.292 -0.0973  0.6743  0.4423
   73MOL    H6413168   4.036   4.239   5.161  0.0784  1.3517  0.9589
   73MOL    C6513169   3.803   4.087   5.086  0.5240  0.0037  0.0736
   73MOL    C6613170   3.686   4.096   5.186 -0.0961 -0.1432  0.3367
   73MOL    C6713171   3.575   4.181   5.130  0.6905 -0.8682  0.2642
   73MOL    H6813172   3.825   4.175   5.025  2.5924 -0.3868  0.2399
   73MOL    H6913173   3.773   4.005   5.020  0.7295  0.4902 -0.6387
   73MOL    H7013174   3.719   4.155   5.272 -1.8086  0.2859  0.7142
   73MOL    H7113175   3.523   4.243   5.203 -0.0501  0.2126 -1.1486
   73MOL    H7213176   3.609   4.246   5.049  0.6763 -2.6673 -1.2170
   73MOL    H7313177   3.496   4.117   5.090  0.1146 -0.7860  1.2627
   73MOL    C7413178   3.630   3.962   5.243  0.5093 -0.1072  0.0993
   73MOL    C7513179   3.575   3.976   5.395  0.4925  0.2816 -0.2368
   73MOL    C7613180   3.462   4.073   5.419 -0.4474 -0.2972 -0.1927
   73MOL    H7713181   3.551   3.932   5.174  1.2784 -1.4153 -0.2189
   73MOL    H7813182   3.710   3.890   5.228  2.4215  2.4189 -2.7431
   73MOL    H7913183   3.652   4.015   5.460 -0.3041  1.2780  0.1108
   73MOL    H8013184   3.378   4.058   5.351  1.1741  0.7143 -2.4984
   73MOL    H8113185   3.436   4.069   5.525 -0.9071 -0.4320 -0.3086
   73MOL    H8213186   3.493   4.175   5.399  0.7145 -0.6095 -0.0145
   73MOL    C8313187   3.531   3.837   5.436  0.0256  1.0113 -0.0484
   73MOL    C8413188   3.649   3.749   5.482  0.1015  0.4443  0.3949
   73MOL    C8513189   3.700   3.795   5.615  0.1448  0.6167 -0.1609
   73MOL    H8613190   3.462   3.843   5.520  0.4262 -0.0228  0.3727
   73MOL    H8713191   3.463   3.785   5.369  0.4280 -1.0183  1.0643
   73MOL    H8813192   3.729   3.764   5.410  0.3038 -2.4609 -0.0484
   73MOL    H8913193   3.627   3.780   5.694 -0.0788  2.0489 -0.0853
   73MOL    H9013194   3.793   3.746   5.646  0.3707  1.0306 -0.1857
   73MOL    H9113195   3.723   3.901   5.612  1.2566  0.4043  0.4368
   73MOL    C9213196   3.606   3.596   5.476  0.7064  0.0507  0.6555
   73MOL    C9313197   3.710   3.495   5.526  0.1892 -0.3992  0.2485
   73MOL    C9413198   3.658   3.353   5.531 -0.4706  0.6092  0.3530
   73MOL    H9513199   3.513   3.592   5.533  0.1939  0.0747 -0.1766
   73MOL    H9613200   3.582   3.562   5.376  1.3576 -0.7582  0.7681
   73MOL    H9713201   3.735   3.513   5.631 -0.3886  3.9689 -0.2715
   73MOL    H9813202   3.565   3.345   5.588 -0.7114 -1.8711 -0.3297
   73MOL    H9913203   3.648   3.307   5.433  2.3070 -0.2277  0.4339
   73MOL   H10013204   3.725   3.292   5.591  0.5866 -0.4948 -1.9026
   73MOL   C10113205   3.843   3.503   5.437 -0.4127 -0.0400  0.3763
   73MOL   C10213206   3.962   3.403   5.462  0.2038  0.0286 -0.1991
   73MOL   C10313207   4.058   3.426   5.354  0.2139  0.8971  0.4101
   73MOL   H10413208   3.810   3.499   5.333  1.0147  2.3682 -0.1946
   73MOL   H10513209   3.882   3.603   5.453  0.7478 -0.6436  1.4638
   73MOL   H10613210   3.925   3.301   5.453  0.2590 -0.2563  2.3644
   73MOL   H10713211   4.007   3.403   5.260 -2.2571  2.4896  1.3091
   73MOL   H10813212   4.103   3.525   5.346 -1.4372  1.7863  1.8752
   73MOL   H10913213   4.145   3.360   5.361 -0.5490  0.0995  2.7740
   73MOL   C11013214   4.023   3.428   5.601  0.2917  0.1548  0.0149
   73MOL   C11113215   4.033   3.303   5.700 -0.2231 -0.2565 -0.3662
   73MOL   C11213216   4.161   3.222   5.663  0.2357 -0.0431 -0.1595
   73MOL   H11313217   4.118   3.478   5.590  0.2633 -0.1555 -1.7748
   73MOL   H11413218   3.964   3.502   5.656  0.7593  1.1211 -0.7747
   73MOL   H11513219   3.949   3.237   5.680  0.1677 -0.8242 -0.1629
   73MOL   H11613220   4.179   3.136   5.727 -1.0483 -0.2696 -0.0956
   73MOL   H11713221   4.171   3.198   5.557 -2.0333 -0.9645 -0.1748
   73MOL   H11813222   4.244   3.290   5.684  0.9692 -0.7509 -0.7533
   73MOL   C11913223   4.023   3.347   5.847  0.8822  0.6128  0.1306
   73MOL   C12013224   3.879   3.389   5.888  0.0817  0.0086  0.3506
   73MOL   C12113225   3.791   3.261   5.909  0.1656 -0.0110 -0.9104
   73MOL   H12213226   4.059   3.277   5.923 -1.5926 -1.3310 -0.4167
   73MOL   H12313227   4.087   3.434   5.865  1.9830 -0.0519 -0.5382
   73MOL   H12413228   3.826   3.455   5.820  3.0774 -0.5670 -2.6434
   73MOL   H12513229   3.773   3.209   5.815 -2.8157  1.3954 -1.1651
   73MOL   H12613230   3.848   3.186   5.964 -0.0562  0.4125 -0.1071
   73MOL   H12713231   3.696   3.279   5.958  1.0254  2.1053  0.0872
   73MOL   C12813232   3.882   3.471   6.018 -0.0933 -0.7997 -0.2347
   73MOL   C12913233   3.900   3.630   5.986 -0.8065 -0.0824 -0.1824
   73MOL   C13013234   3.762   3.695   5.967  0.0632  0.6108  0.1187
   73MOL   H13113235   3.789   3.448   6.072 -0.0303 -1.6868 -0.4927
   73MOL   H13213236   3.963   3.436   6.082  1.4233  0.5780 -1.3696
   73MOL   H13313237   3.965   3.645   5.900 -2.5856  2.5900 -1.1197
   73MOL   H13413238   3.768   3.803   5.953  0.8846  0.6832  0.9687
   73MOL   H13513239   3.727   3.655   5.872 -0.5451  0.9395  0.2009
   73MOL   H13613240   3.692   3.670   6.048 -0.7317  0.0064 -0.7436
   73MOL   C13713241   3.966   3.702   6.107  0.0168  0.5953  0.1459
   73MOL   C13813242   4.112   3.687   6.141 -0.5969  0.9002  0.2040
   73MOL   C13913243   4.199   3.712   6.012 -0.4281 -0.1750  0.6238
   73MOL   H14013244   3.963   3.808   6.083  0.8025  0.7678  0.7720
   73MOL   H14113245   3.906   3.682   6.196  0.1347 -0.5245 -0.0109
   73MOL   H14213246   4.131   3.583   6.169 -1.6598  1.0398  1.4539
   73MOL   H14313247   4.173   3.808   5.967  0.9957 -0.3439 -0.6101
   73MOL   H14413248   4.307   3.711   6.031 -0.7384 -0.2679  2.4943
   73MOL   H14513249   4.177   3.629   5.946  0.1195 -1.7953  2.4351
   73MOL   C14613250   4.166   3.766   6.266  0.0058  0.7450  0.3147
   73MOL   C14713251   4.303   3.724   6.314 -0.1416  0.2159  0.3103
   73MOL   C14813252   4.411   3.837   6.295 -0.0269 -0.4594 -0.2577
   73MOL   H14913253   4.166   3.869   6.231 -0.4524  0.7064  0.1894
   73MOL   H15013254   4.085   3.764   6.339 -0.7856 -1.1654 -0.5722
   73MOL   H15113255   4.336   3.636   6.259 -0.6533  0.2923 -0.1170
   73MOL   H15213256   4.374   3.926   6.347  0.0808  0.7161 -2.1351
   73MOL   H15313257   4.508   3.803   6.330  0.2904  0.6129 -0.0743
   73MOL   H15413258   4.424   3.852   6.188  0.7575  1.1069  0.0386
   73MOL   C15513259   4.299   3.676   6.462  0.2262  0.2718  0.1154
   73MOL   C15613260   4.209   3.545   6.485 -0.4087 -0.3886  0.2773
   73MOL   C15713261   4.272   3.426   6.414  0.7811 -0.5072 -0.4229
   73MOL   H15813262   4.401   3.657   6.495 -0.3759  0.2985  2.0823
   73MOL   H15913263   4.266   3.762   6.520 -0.6845  0.2081 -0.2971
   73MOL   H16013264   4.111   3.552   6.438 -1.7508  0.7144  3.1611
   73MOL   H16113265   4.380   3.434   6.426  0.6682  1.5476 -0.4980
   73MOL   H16213266   4.245   3.326   6.448  0.6929 -0.0687  0.8092
   73MOL   H16313267   4.252   3.432   6.307  1.2807 -1.1759 -0.5586
   73MOL   C16413268   4.185   3.511   6.633 -0.0904  0.2033  0.3085
   73MOL   C16513269   4.160   3.630   6.727 -0.6321  1.0931  0.0164
   73MOL   C16613270   4.035   3.723   6.700  0.8623 -0.1279 -0.9663
   73MOL   H16713271   4.104   3.439   6.638 -0.0911  0.2957  2.2369
   73MOL   H16813272   4.262   3.446   6.673  0.0747 -0.7322 -1.4956
   73MOL   H16913273   4.250   3.692   6.727  0.8165 -0.9410 -0.1662
   73MOL   H17013274   4.035   3.818   6.753 -0.0762 -1.3312  1.2524
   73MOL   H17113275   4.029   3.736   6.591 -0.6770  3.1537 -0.5551
   73MOL   H17213276   3.947   3.668   6.734  1.4936 -1.1089 -0.9023
   73MOL   C17313277   4.153   3.584   6.872 -0.2866  0.6030 -0.3260
   73MOL   C17413278   4.074   3.466   6.897  0.0752  0.2138  0.3017
   73MOL   C17513279   4.052   3.438   7.042  0.0515  0.0840 -0.2913
   73MOL   H17613280   4.253   3.547   6.893 -0.3474 -0.1246 -1.2733
   73MOL   H17713281   4.140   3.662   6.947 -2.6766 -1.2404  1.2639
   73MOL   H17813282   4.120   3.372   6.866 -0.0017 -0.0273  0.9103
   73MOL   H17913283   4.005   3.521   7.095  0.5200  0.3411 -0.2801
   73MOL   H18013284   3.998   3.345   7.060  2.2763 -1.4443 -1.3354
   73MOL   H18113285   4.151   3.426   7.085 -0.2901 -0.1010  0.4529
   73MOL   H18213286   3.974   3.485   6.857  1.0549  1.5494 -1.5558
   74MOL     C113287   0.959   0.557   5.732 -0.1725  0.2342 -0.2607
   74MOL     C213288   0.983   0.681   5.644 -0.3781 -0.2213  0.0360
   74MOL     C313289   0.849   0.743   5.604 -0.3314  0.2095 -0.8662
   74MOL     H413290   0.917   0.474   5.674 -0.5244 -1.2326  2.0474
   74MOL     H513291   0.902   0.581   5.821 -0.4139  0.9394 -0.5959
   74MOL     H613292   1.037   0.647   5.555  0.3347 -1.4306  0.9246
   74MOL     H713293   0.853   0.820   5.528  0.2298 -0.9768 -2.0662
   74MOL     H813294   0.793   0.666   5.551  1.0792 -0.5036 -1.3424
   74MOL     H913295   0.795   0.767   5.696  2.4854 -2.4873  1.6463
   74MOL    H1013296   1.057   0.526   5.766  0.2501  0.6454 -1.0757
   74MOL    C1113297   1.058   0.790   5.728 -0.2995 -0.5820  0.0135
   74MOL    C1213298   1.187   0.839   5.665 -0.0818 -0.3648  0.3315
   74MOL    C1313299   1.174   0.864   5.514  0.7556 -0.1825  0.0883
   74MOL    H1413300   0.991   0.873   5.750  0.4963 -0.1114  0.7158
   74MOL    H1513301   1.066   0.748   5.828  1.0469  0.3205  0.3065
   74MOL    H1613302   1.256   0.754   5.660 -1.5306 -1.4510 -1.3559
   74MOL    H1713303   1.140   0.775   5.461 -1.1163  1.3013 -1.2875
   74MOL    H1813304   1.115   0.955   5.504  2.3937  0.6813 -2.1762
   74MOL    H1913305   1.272   0.886   5.471  0.0276  0.7202 -1.1682
   74MOL    C2013306   1.244   0.960   5.748 -0.2132 -0.0601  0.8056
   74MOL    C2113307   1.380   1.019   5.703  0.5335  0.3635  0.2502
   74MOL    C2213308   1.430   1.095   5.822 -0.9906  0.6906  0.4465
   74MOL    H2313309   1.167   1.037   5.748 -0.5980 -0.4383  1.8533
   74MOL    H2413310   1.262   0.916   5.846 -1.2809  0.9575  1.4700
   74MOL    H2513311   1.373   1.089   5.620 -0.9725  0.1676  0.1828
   74MOL    H2613312   1.448   1.028   5.907 -2.0595  0.9972  0.9194
   74MOL    H2713313   1.525   1.149   5.816 -0.7257  0.3265  1.2397
   74MOL    H2813314   1.361   1.176   5.842 -1.6200 -0.1085  1.5639
   74MOL    C2913315   1.489   0.918   5.667  0.1693 -0.2555  0.2689
   74MOL    C3013316   1.621   0.977   5.626 -0.3211  0.5759 -0.2573
   74MOL    C3113317   1.731   0.898   5.695 -0.2429  0.3184  0.0658
   74MOL    H3213318   1.497   0.844   5.747  0.7671  1.1650  1.5292
   74MOL    H3313319   1.457   0.853   5.585 -1.4131 -1.8038  2.0511
   74MOL    H3413320   1.640   1.082   5.649 -0.3172  0.4553  0.3145
   74MOL    H3513321   1.743   0.792   5.673  0.4164 -0.2433  2.9266
   74MOL    H3613322   1.828   0.944   5.676 -0.6033  0.2559 -2.0949
   74MOL    H3713323   1.716   0.904   5.802 -1.0636 -1.1632  0.0477
   74MOL    C3813324   1.648   0.961   5.473  0.3225  0.4830 -0.1308
   74MOL    C3913325   1.564   1.037   5.376  0.0499  0.5410 -0.0411
   74MOL    C4013326   1.618   1.179   5.364 -0.6015 -0.0635  0.2595
   74MOL    H4113327   1.752   0.988   5.457  0.6651 -1.4367 -1.2773
   74MOL    H4213328   1.634   0.857   5.443 -0.5013  0.2626  0.9861
   74MOL    H4313329   1.464   1.027   5.418  0.7189 -0.2600  1.3875
   74MOL    H4413330   1.698   1.180   5.290  1.0859 -0.4601  2.0463
   74MOL    H4513331   1.535   1.238   5.324  0.4667  0.0672 -1.7903
   74MOL    H4613332   1.662   1.212   5.458  1.9112 -0.8567 -0.6174
   74MOL    C4713333   1.579   0.972   5.233  0.4157  0.2633  0.4192
   74MOL    C4813334   1.469   0.995   5.128 -0.4523  0.0871  1.0333
   74MOL    C4913335   1.516   0.972   4.986  0.1857  0.2163  0.7953
   74MOL    H5013336   1.677   1.004   5.197 -1.5118  2.3165 -3.2349
   74MOL    H5113337   1.584   0.863   5.238  0.1998  0.2392  0.1051
   74MOL    H5213338   1.449   1.102   5.129  0.1317  0.2011  0.8138
   74MOL    H5313339   1.596   1.038   4.952  0.5355 -0.6559 -0.0937
   74MOL    H5413340   1.549   0.869   4.977 -0.3211  0.2545 -2.2076
   74MOL    H5513341   1.427   0.986   4.924  0.6638 -1.9144 -0.4147
   74MOL    C5613342   1.338   0.919   5.145 -1.2081  0.3806 -0.3766
   74MOL    C5713343   1.216   0.981   5.075  0.0786  0.1564 -0.0148
   74MOL    C5813344   1.121   0.874   5.022 -0.7821  0.0771  0.5153
   74MOL    H5913345   1.352   0.816   5.111  0.9104  0.9185 -1.2595
   74MOL    H6013346   1.306   0.905   5.248 -0.8800  2.7053  0.0675
   74MOL    H6113347   1.251   1.035   4.987 -0.2713 -3.6749 -2.5904
   74MOL    H6213348   1.098   0.809   5.106 -1.1039  1.8899  1.8603
   74MOL    H6313349   1.032   0.923   4.981 -0.9679 -0.1255  0.6768
   74MOL    H6413350   1.174   0.820   4.944 -1.2953 -0.9308  0.8597
   74MOL    C6513351   1.149   1.075   5.174  0.3235 -0.1402 -0.0749
   74MOL    C6613352   1.014   1.139   5.131 -0.2137  0.5857 -0.0449
   74MOL    C6713353   0.947   1.208   5.247  0.4132 -0.2769  0.2976
   74MOL    H6813354   1.115   1.004   5.249  0.2998 -1.5199 -1.3860
   74MOL    H6913355   1.222   1.142   5.221 -0.5456 -2.1374  4.3506
   74MOL    H7013356   0.939   1.065   5.104  0.7073 -0.5003  0.3207
   74MOL    H7113357   1.003   1.242   5.334 -0.0282 -0.4135  0.6401
   74MOL    H7213358   0.891   1.290   5.202 -1.0829 -2.0694 -1.1795
   74MOL    H7313359   0.864   1.148   5.286  0.8042 -1.1110 -0.1407
   74MOL    C7413360   1.050   1.234   5.014  0.5548 -0.7162 -0.2899
   74MOL    C7513361   1.010   1.186   4.876 -0.5240 -0.7618  0.0408
   74MOL    C7613362   0.855   1.151   4.863  0.1889  0.1820  0.4244
   74MOL    H7713363   0.995   1.328   5.024  1.4349  0.0642 -2.4961
   74MOL    H7813364   1.155   1.261   5.018  0.5796 -0.7779 -0.5613
   74MOL    H7913365   1.074   1.101   4.853  0.4302  0.4348 -1.8311
   74MOL    H8013366   0.789   1.233   4.889 -1.0313 -0.6849  0.1185
   74MOL    H8113367   0.825   1.115   4.764 -2.7496  1.3667  0.8327
   74MOL    H8213368   0.829   1.071   4.933 -1.4324 -0.3898 -0.7980
   74MOL    C8313369   1.048   1.284   4.767  0.1920  0.2876  0.3388
   74MOL    C8413370   1.199   1.329   4.755 -0.0825  1.2028  0.0743
   74MOL    C8513371   1.298   1.217   4.739 -0.3476  0.2392  0.2402
   74MOL    H8613372   1.013   1.257   4.668 -0.6437 -2.3055  1.2898
   74MOL    H8713373   0.990   1.374   4.788 -1.3969 -0.9549  1.3942
   74MOL    H8813374   1.230   1.383   4.844 -0.4022  0.3623  0.6971
   74MOL    H8913375   1.263   1.125   4.786 -1.2875  0.7048  0.4554
   74MOL    H9013376   1.341   1.185   4.644 -2.0255  0.2061 -0.5113
   74MOL    H9113377   1.389   1.235   4.797  0.9720  1.3919 -2.1306
   74MOL    C9213378   1.225   1.417   4.633  0.2937  0.3243 -0.1326
   74MOL    C9313379   1.143   1.550   4.619 -0.0617 -0.2775 -0.5918
   74MOL    C9413380   1.184   1.646   4.734  0.3568  0.1944 -0.3147
   74MOL    H9513381   1.331   1.438   4.619  0.3048  1.7875  1.9434
   74MOL    H9613382   1.213   1.345   4.552  0.6626 -0.5309  0.5641
   74MOL    H9713383   1.037   1.530   4.633 -0.2817  2.2880  1.6830
   74MOL    H9813384   1.292   1.656   4.740  0.4916 -0.4746 -1.5210
   74MOL    H9913385   1.125   1.738   4.733 -0.7063 -0.4739 -2.6404
   74MOL   H10013386   1.161   1.605   4.832  3.1290 -0.0641  0.2575
   74MOL   C10113387   1.164   1.621   4.482  0.2562  0.0176 -0.9383
   74MOL   C10213388   1.122   1.531   4.369 -0.3704  0.2234 -0.2185
   74MOL   C10313389   0.982   1.463   4.387 -0.0409 -0.3634  0.1325
   74MOL   H10413390   1.116   1.718   4.481  0.2765  0.1382  2.4693
   74MOL   H10513391   1.269   1.648   4.471  0.5480 -0.2906  0.8776
   74MOL   H10613392   1.191   1.447   4.362  0.6431  1.0509 -0.2779
   74MOL   H10713393   0.916   1.545   4.414 -0.4463 -0.4018 -0.7359
   74MOL   H10813394   0.951   1.405   4.300  4.4233 -0.3001 -1.6544
   74MOL   H10913395   0.985   1.386   4.464 -1.7017 -0.0821  0.5043
   74MOL   C11013396   1.142   1.600   4.234  0.1787  1.1848  0.2227
   74MOL   C11113397   1.287   1.649   4.192  0.0291 -0.2141  0.2056
   74MOL   C11213398   1.394   1.535   4.198  0.4326 -0.0732 -0.4630
   74MOL   H11313399   1.123   1.524   4.158 -0.4404  1.3973  0.1599
   74MOL   H11413400   1.070   1.682   4.230 -1.0148  0.1574  0.4988
   74MOL   H11513401   1.304   1.730   4.263 -1.9522  3.3142 -3.1543
   74MOL   H11613402   1.487   1.577   4.163  0.3926  1.5290  1.2757
   74MOL   H11713403   1.402   1.494   4.299  0.2558 -1.4350 -0.9901
   74MOL   H11813404   1.368   1.457   4.126 -0.8224  0.4515 -0.5910
   74MOL   C11913405   1.302   1.710   4.051 -0.2090 -0.1227 -0.0215
   74MOL   C12013406   1.231   1.850   4.024  0.3558  0.5142  0.3369
   74MOL   C12113407   1.292   1.968   4.105  0.5198  0.4390  0.4521
   74MOL   H12213408   1.409   1.730   4.039 -0.1821  1.1443  1.9277
   74MOL   H12313409   1.269   1.643   3.972  0.4424 -0.8896  0.3572
   74MOL   H12413410   1.131   1.827   4.061 -0.7483  2.1840 -1.5080
   74MOL   H12513411   1.275   2.059   4.049  4.0684  0.5739 -0.5461
   74MOL   H12613412   1.257   1.977   4.208  0.3584  1.0452  0.3452
   74MOL   H12713413   1.399   1.955   4.120  0.5287  2.0330  1.8681
   74MOL   C12813414   1.201   1.880   3.877 -0.0521 -0.3869 -0.3425
   74MOL   C12913415   1.310   1.961   3.806 -0.6378 -0.4938  0.1754
   74MOL   C13013416   1.452   1.904   3.822  0.1775  0.2649  0.3438
   74MOL   H13113417   1.171   1.788   3.826  1.2539 -0.9123 -0.2046
   74MOL   H13213418   1.115   1.946   3.876 -0.5778 -1.0343 -3.0831
   74MOL   H13313419   1.317   2.060   3.850 -0.8770 -1.0730  1.5574
   74MOL   H13413420   1.443   1.798   3.801  1.2521  0.5496 -1.7858
   74MOL   H13513421   1.522   1.928   3.741 -1.1204  1.3758 -0.4619
   74MOL   H13613422   1.497   1.925   3.919 -0.5183  1.0365  0.5074
   74MOL   C13713423   1.283   1.977   3.654 -0.6361  0.7068 -0.3855
   74MOL   C13813424   1.199   2.092   3.601 -0.9348 -0.1271 -0.7395
   74MOL   C13913425   1.249   2.228   3.652  0.8793 -0.0900  0.4981
   74MOL   H14013426   1.379   1.985   3.604 -1.0315  0.9566 -1.1186
   74MOL   H14113427   1.238   1.887   3.610 -1.2617  0.5330  0.6055
   74MOL   H14213428   1.094   2.071   3.622 -0.4052 -2.0108  0.1400
   74MOL   H14313429   1.216   2.317   3.598  2.4621 -0.3673 -0.9692
   74MOL   H14413430   1.218   2.245   3.755  0.1536  0.9528  0.1107
   74MOL   H14513431   1.358   2.226   3.640  0.8710  1.1798  0.1201
   74MOL   C14613432   1.200   2.099   3.445  0.1599 -0.6028 -0.1505
   74MOL   C14713433   1.112   1.992   3.374 -0.0768 -0.3957 -0.4426
   74MOL   C14813434   0.960   2.010   3.381  0.2731 -0.8451 -0.2032
   74MOL   H14913435   1.159   2.192   3.406  0.8802 -1.3247 -2.7282
   74MOL   H15013436   1.303   2.097   3.411  0.3978 -0.6805  0.5720
   74MOL   H15113437   1.123   1.897   3.427 -0.2270 -1.4531 -2.2713
   74MOL   H15213438   0.927   2.098   3.326 -1.5039 -0.4926  1.3634
   74MOL   H15313439   0.905   1.924   3.344 -0.6224  0.2984 -1.5464
   74MOL   H15413440   0.922   2.022   3.483 -0.4057 -0.7028 -0.4722
   74MOL   C15513441   1.153   1.979   3.230  0.3310 -0.4652 -0.1700
   74MOL   C15613442   1.296   1.943   3.200  0.3669 -0.2972  0.8437
   74MOL   C15713443   1.351   1.821   3.290 -0.0516 -0.5439 -0.0047
   74MOL   H15813444   1.095   1.901   3.181 -0.9382  0.4883 -0.2212
   74MOL   H15913445   1.129   2.073   3.179  0.3609 -0.3140  0.0934
   74MOL   H16013446   1.352   2.031   3.231 -0.7707  0.7618 -0.0780
   74MOL   H16113447   1.286   1.735   3.276 -1.6777  0.7726 -0.8050
   74MOL   H16213448   1.456   1.799   3.267  0.1851  1.3977 -0.9181
   74MOL   H16313449   1.337   1.837   3.397 -0.8837 -1.3740  0.0169
   74MOL   C16413450   1.319   1.937   3.044  0.1623  0.3549 -0.2991
   74MOL   C16513451   1.305   2.070   2.967  0.8411 -0.2723  0.0588
   74MOL   C16613452   1.441   2.149   2.955 -0.7087  0.0344  0.3075
   74MOL   H16713453   1.424   1.917   3.027  0.3449  0.0946  1.0185
   74MOL   H16813454   1.275   1.852   2.993  0.4291 -0.1696  0.3327
   74MOL   H16913455   1.235   2.134   3.020  3.9494  3.4470 -0.0777
   74MOL   H17013456   1.513   2.080   2.910 -2.1760 -0.6641 -1.0391
   74MOL   H17113457   1.429   2.243   2.901 -1.1674 -0.0769  0.2074
   74MOL   H17213458   1.481   2.160   3.055  0.9276 -0.2522 -0.3069
   74MOL   C17313459   1.238   2.053   2.825  0.1846 -0.6232 -0.0338
   74MOL   C17413460   1.152   2.176   2.787 -0.0868 -0.2860  0.4865
   74MOL   C17513461   1.104   2.185   2.643  0.5867 -0.8890 -0.0742
   74MOL   H17613462   1.320   2.040   2.754  0.1325 -2.8097  0.2942
   74MOL   H17713463   1.176   1.964   2.820 -0.6458 -0.0494  0.0252
   74MOL   H17813464   1.207   2.268   2.806  3.1992 -1.3945 -2.7975
   74MOL   H17913465   1.024   2.113   2.623 -1.5935  1.0062  1.5579
   74MOL   H18013466   1.059   2.282   2.625  2.7237  0.6697  2.6530
   74MOL   H18113467   1.187   2.163   2.576 -0.5562  1.8227 -2.5200
   74MOL   H18213468   1.060   2.180   2.845 -1.3986 -0.1955 -1.5331
   75MOL     C113469   0.381   3.170   6.257 -0.6969  0.2610 -0.2983
   75MOL     C213470   0.454   3.304   6.279 -0.0732 -0.4489  0.2838
   75MOL     C313471   0.532   3.298   6.407 -1.0018 -0.0333  0.6848
   75MOL     H413472   0.448   3.084   6.253 -2.1867 -0.8718 -1.6472
   75MOL     H513473   0.321   3.168   6.166 -1.5456 -1.3649  0.2792
   75MOL     H613474   0.378   3.381   6.292  2.0058  1.5976  0.7441
   75MOL     H713475   0.616   3.228   6.403 -0.9757  0.0421 -0.1981
   75MOL     H813476   0.580   3.393   6.431 -1.5592 -0.4187  3.4814
   75MOL     H913477   0.463   3.264   6.484 -0.5822 -0.3285  0.9358
   75MOL    H1013478   0.319   3.142   6.342  0.9396  0.6748  1.0641
   75MOL    C1113479   0.535   3.333   6.149 -0.6151  0.0894 -0.3351
   75MOL    C1213480   0.624   3.455   6.167  0.1367  0.1552  0.4006
   75MOL    C1313481   0.710   3.472   6.039 -0.0997  0.1189  0.1481
   75MOL    H1413482   0.596   3.246   6.124  1.5163  1.4016  0.1525
   75MOL    H1513483   0.463   3.341   6.068  0.0093 -0.2028 -0.9283
   75MOL    H1613484   0.690   3.432   6.251  0.0509 -0.4502  0.3010
   75MOL    H1713485   0.772   3.383   6.030  0.4541  0.6155 -1.1096
   75MOL    H1813486   0.647   3.493   5.953 -0.6684  0.0727  0.5550
   75MOL    H1913487   0.783   3.551   6.058 -0.1557  0.1066  0.4191
   75MOL    C2013488   0.534   3.583   6.204 -0.1819 -0.4212  0.4058
   75MOL    C2113489   0.613   3.723   6.193 -0.5455  0.6830  0.3695
   75MOL    C2213490   0.505   3.837   6.214  0.1136  0.1304  0.1725
   75MOL    H2313491   0.449   3.590   6.136  2.0285 -0.4875 -2.4420
   75MOL    H2413492   0.489   3.583   6.303 -0.6208 -0.7578  0.2084
   75MOL    H2513493   0.644   3.725   6.088  0.6395 -1.4495  0.6487
   75MOL    H2613494   0.479   3.827   6.319  0.4862 -0.9923  0.1634
   75MOL    H2713495   0.545   3.936   6.190  0.7498  0.5389  2.7504
   75MOL    H2813496   0.423   3.817   6.145  1.2556  1.0629 -1.5063
   75MOL    C2913497   0.726   3.730   6.296 -0.2960  1.2370 -0.3286
   75MOL    C3013498   0.809   3.857   6.307  0.4711  0.8396 -0.3120
   75MOL    C3113499   0.863   3.865   6.454 -0.2900  0.4624  0.2009
   75MOL    H3213500   0.687   3.716   6.397  0.9035  1.6355  0.2043
   75MOL    H3313501   0.790   3.643   6.281 -3.0035 -1.0367  0.8557
   75MOL    H3413502   0.743   3.941   6.285 -0.1725  0.6854  0.9904
   75MOL    H3513503   0.775   3.879   6.517 -0.2697 -0.4260  0.4339
   75MOL    H3613504   0.919   3.778   6.488  2.2493  2.1128  0.3381
   75MOL    H3713505   0.938   3.943   6.459 -0.1828  0.2472  2.3259
   75MOL    C3813506   0.918   3.848   6.198 -0.5526 -0.3171 -0.4328
   75MOL    C3913507   0.883   3.868   6.049  0.0944  0.6812  0.4543
   75MOL    C4013508   0.821   4.003   6.021  0.5949 -0.1418 -0.4526
   75MOL    H4113509   0.986   3.930   6.223 -0.8517  0.5283 -2.2907
   75MOL    H4213510   0.979   3.758   6.203  1.0914  0.8178  0.5482
   75MOL    H4313511   0.819   3.785   6.020  0.4806  0.7676 -0.6526
   75MOL    H4413512   0.796   4.018   5.916 -1.8720  0.5727  0.1879
   75MOL    H4513513   0.728   4.007   6.078 -0.0032  1.9692 -1.5197
   75MOL    H4613514   0.885   4.085   6.053 -1.1736 -0.1926  3.5548
   75MOL    C4713515   1.011   3.847   5.946 -0.2583  0.4406  0.0460
   75MOL    C4813516   1.040   3.707   5.905  0.9496 -0.1938  0.1999
   75MOL    C4913517   0.922   3.645   5.824 -0.1445 -0.6300 -0.2124
   75MOL    H5013518   0.995   3.900   5.852  1.1768 -1.8077 -1.5168
   75MOL    H5113519   1.097   3.906   5.977 -0.1183  0.3353 -0.1451
   75MOL    H5213520   1.041   3.657   6.002  0.5699 -3.2498 -1.3057
   75MOL    H5313521   0.824   3.666   5.866 -0.9624 -2.7587 -1.0142
   75MOL    H5413522   0.925   3.691   5.726 -0.3379  1.0868  0.5662
   75MOL    H5513523   0.938   3.538   5.815 -0.0048 -0.6413  0.1583
   75MOL    C5613524   1.176   3.696   5.826  0.3103 -0.5695 -0.6455
   75MOL    C5713525   1.242   3.562   5.800 -0.5080 -0.1228 -0.3018
   75MOL    C5813526   1.366   3.561   5.702 -0.1187  0.2440  0.3005
   75MOL    H5913527   1.158   3.754   5.735 -0.1680  2.2589  1.1754
   75MOL    H6013528   1.244   3.754   5.889  0.4448  0.0320 -1.3358
   75MOL    H6113529   1.177   3.491   5.749 -0.5515  0.8814 -1.6764
   75MOL    H6213530   1.457   3.607   5.739  1.4684 -3.7171  1.5529
   75MOL    H6313531   1.401   3.459   5.685  1.8987  1.0525 -0.4642
   75MOL    H6413532   1.337   3.600   5.604  2.0122 -1.0247 -0.8755
   75MOL    C6513533   1.299   3.508   5.931  0.3461 -0.4801  0.2997
   75MOL    C6613534   1.316   3.359   5.966  0.4331  0.1266 -0.6616
   75MOL    C6713535   1.404   3.353   6.091 -1.1514 -0.0384 -0.6584
   75MOL    H6813536   1.392   3.563   5.947  1.2616 -1.1744 -2.3022
   75MOL    H6913537   1.226   3.531   6.009  0.3839  0.1500  0.1535
   75MOL    H7013538   1.377   3.324   5.883 -0.2076 -1.1646 -0.5969
   75MOL    H7113539   1.441   3.257   6.128 -0.2197  1.1944  1.7774
   75MOL    H7213540   1.498   3.407   6.090 -1.7764  1.0340 -2.2826
   75MOL    H7313541   1.352   3.407   6.170  2.2609 -0.4353  1.9648
   75MOL    C7413542   1.184   3.282   5.954  0.0734 -0.1352 -0.2407
   75MOL    C7513543   1.175   3.135   6.000 -0.5906 -0.2390 -0.7052
   75MOL    C7613544   1.024   3.095   6.037  0.0392 -0.0594 -0.0308
   75MOL    H7713545   1.112   3.329   6.021 -0.1170 -0.2783 -0.3444
   75MOL    H7813546   1.136   3.285   5.856  2.8071 -1.9704 -1.6804
   75MOL    H7913547   1.221   3.121   6.097 -2.3557  0.8612  0.3181
   75MOL    H8013548   1.018   2.998   6.085 -1.1669  0.8607  1.7574
   75MOL    H8113549   0.992   3.164   6.115 -1.9083 -1.2709  0.2584
   75MOL    H8213550   0.955   3.113   5.954  0.3974 -2.8430 -0.9722
   75MOL    C8313551   1.247   3.044   5.904 -0.0163 -0.0180 -0.2858
   75MOL    C8413552   1.228   2.889   5.909  0.3587 -0.5143  0.8505
   75MOL    C8513553   1.231   2.830   5.762  0.0993  0.6142 -0.0928
   75MOL    H8613554   1.199   3.058   5.807  1.7365  0.5647 -1.0738
   75MOL    H8713555   1.348   3.079   5.885  0.1474 -0.6773 -0.6486
   75MOL    H8813556   1.137   2.866   5.965 -0.4702 -0.0841 -0.2851
   75MOL    H8913557   1.317   2.855   5.699 -0.2888  0.3719 -0.7264
   75MOL    H9013558   1.240   2.724   5.781  0.1593  0.7934  0.8947
   75MOL    H9113559   1.131   2.842   5.720 -1.5644 -0.2729  3.3939
   75MOL    C9213560   1.339   2.833   6.000 -0.1277 -0.1215 -0.0500
   75MOL    C9313561   1.320   2.692   6.058  0.2306 -0.3470 -0.0663
   75MOL    C9413562   1.426   2.594   6.001 -0.1295 -0.4018  0.4113
   75MOL    H9513563   1.438   2.830   5.954  0.1835 -2.9511  0.7008
   75MOL    H9613564   1.360   2.908   6.076  1.6261 -2.2627  1.6319
   75MOL    H9713565   1.229   2.647   6.018 -0.2302 -0.6192  1.2800
   75MOL    H9813566   1.524   2.638   6.015 -0.0352 -0.4869  0.0112
   75MOL    H9913567   1.431   2.494   6.044 -2.2227 -0.9302 -0.4982
   75MOL   H10013568   1.417   2.595   5.893 -0.0754  1.2690  0.4102
   75MOL   C10113569   1.334   2.700   6.211  0.4845  0.1277  0.0071
   75MOL   C10213570   1.225   2.779   6.287  0.4337  0.0479  0.7287
   75MOL   C10313571   1.119   2.674   6.328  0.5442  0.8245  0.0842
   75MOL   H10413572   1.351   2.597   6.243 -1.9694 -0.4900 -0.5447
   75MOL   H10513573   1.431   2.748   6.222  1.0493 -0.5774 -1.6602
   75MOL   H10613574   1.181   2.857   6.226 -0.8981 -1.0415  0.2678
   75MOL   H10713575   1.163   2.588   6.378 -0.3166 -0.6304 -1.5955
   75MOL   H10813576   1.043   2.703   6.400  2.9518  0.5077  2.8459
   75MOL   H10913577   1.073   2.645   6.233  0.1870 -0.4774  0.6432
   75MOL   C11013578   1.286   2.851   6.416 -0.3163 -0.4489  0.3495
   75MOL   C11113579   1.386   2.958   6.395  0.4029 -0.2080  0.1679
   75MOL   C11213580   1.340   3.098   6.435  0.6965 -0.9406 -0.3616
   75MOL   H11313581   1.212   2.885   6.488 -2.0416 -1.5206 -0.8800
   75MOL   H11413582   1.325   2.776   6.485 -0.2122  0.1600  0.9561
   75MOL   H11513583   1.423   2.960   6.292  4.9608 -0.6275  1.6852
   75MOL   H11613584   1.325   3.117   6.541  1.9893 -0.8810 -0.1779
   75MOL   H11713585   1.409   3.175   6.402 -0.2405  1.5247  3.1520
   75MOL   H11813586   1.247   3.121   6.383 -0.4511  1.2590  2.5593
   75MOL   C11913587   1.520   2.932   6.469 -0.5120  0.1998 -0.2647
   75MOL   C12013588   1.606   2.801   6.445  0.4612 -0.4122  0.6276
   75MOL   C12113589   1.685   2.818   6.315 -0.4213 -0.2933  0.6563
   75MOL   H12213590   1.584   3.020   6.475  1.6816 -1.2760 -1.2937
   75MOL   H12313591   1.491   2.926   6.573 -2.0522 -3.4878 -0.8105
   75MOL   H12413592   1.537   2.716   6.442 -0.6654  0.5191 -1.0709
   75MOL   H12513593   1.772   2.881   6.332 -0.0103 -0.1174 -1.8572
   75MOL   H12613594   1.727   2.723   6.280 -1.5521  0.0915 -1.9050
   75MOL   H12713595   1.633   2.860   6.228  0.5360 -2.1705 -0.8667
   75MOL   C12813596   1.695   2.769   6.573 -0.3274 -0.3195 -0.0623
   75MOL   C12913597   1.755   2.623   6.588 -1.2048 -0.2014 -0.0216
   75MOL   C13013598   1.913   2.631   6.592  0.1054 -0.2910 -0.1972
   75MOL   H13113599   1.772   2.846   6.566 -1.1642  0.5338  0.0031
   75MOL   H13213600   1.638   2.787   6.665 -0.3374 -2.8847  0.4557
   75MOL   H13313601   1.721   2.575   6.497  0.0782 -0.8220 -0.1912
   75MOL   H13413602   1.953   2.681   6.503 -0.6818 -1.8462 -1.4539
   75MOL   H13513603   1.934   2.694   6.678 -0.1226 -0.2885 -0.1428
   75MOL   H13613604   1.956   2.534   6.616  1.0670 -0.0313 -0.8241
   75MOL   C13713605   1.703   2.552   6.713  0.0973  0.1403  0.0129
   75MOL   C13813606   1.550   2.525   6.703  1.0603 -0.0495 -0.6124
   75MOL   C13913607   1.529   2.401   6.617 -0.3740  0.4982 -0.2158
   75MOL   H14013608   1.754   2.456   6.715  0.4706  0.3108 -1.2975
   75MOL   H14113609   1.720   2.606   6.807 -0.2245  1.3351 -0.6030
   75MOL   H14213610   1.497   2.605   6.651  2.8702  1.2848 -0.4627
   75MOL   H14313611   1.563   2.308   6.662 -0.0309  0.3609 -0.7510
   75MOL   H14413612   1.421   2.393   6.600 -0.7764  0.0976  2.3618
   75MOL   H14513613   1.554   2.405   6.511  1.8850 -1.3603  0.2021
   75MOL   C14613614   1.467   2.510   6.838  0.0312 -0.6441 -0.1220
   75MOL   C14713615   1.442   2.644   6.908  0.9051 -0.0169  0.0479
   75MOL   C14813616   1.350   2.732   6.822  0.1882 -0.0274 -0.1019
   75MOL   H14913617   1.373   2.461   6.815 -0.8013  1.3506 -1.1255
   75MOL   H15013618   1.518   2.443   6.907 -0.1070 -0.0572  0.5508
   75MOL   H15113619   1.536   2.697   6.901  1.4221 -1.2743 -3.2566
   75MOL   H15213620   1.293   2.677   6.747 -2.1845  2.1984  0.0214
   75MOL   H15313621   1.278   2.780   6.888 -0.1484 -0.9999  0.2615
   75MOL   H15413622   1.398   2.800   6.752  3.7741 -1.2310  1.0570
   75MOL   C15513623   1.392   2.624   7.057 -0.9340  0.1576 -0.0157
   75MOL   C15613624   1.486   2.551   7.161 -0.8771 -0.3243 -0.2678
   75MOL   C15713625   1.630   2.580   7.126 -0.4109 -0.0092  0.2985
   75MOL   H15813626   1.371   2.722   7.100 -1.8163 -0.3115  0.6368
   75MOL   H15913627   1.297   2.571   7.054 -0.4700 -0.8673  2.3576
   75MOL   H16013628   1.469   2.444   7.151  1.4799 -0.5221 -2.5423
   75MOL   H16113629   1.655   2.683   7.098  0.3771  0.1605  1.5737
   75MOL   H16213630   1.705   2.535   7.192  1.9849  0.5597 -1.9416
   75MOL   H16313631   1.655   2.522   7.037 -1.0110  0.9638 -0.5274
   75MOL   C16413632   1.451   2.595   7.309 -0.3952 -0.0444 -0.1339
   75MOL   C16513633   1.326   2.534   7.369  0.3056  1.4034  0.4123
   75MOL   C16613634   1.338   2.379   7.379  0.2856  0.5872  0.6035
   75MOL   H16713635   1.531   2.571   7.379 -0.9984  1.1914  0.9940
   75MOL   H16813636   1.455   2.704   7.314  1.2352 -0.0241 -1.2212
   75MOL   H16913637   1.238   2.557   7.309 -1.5528 -1.3320  1.9739
   75MOL   H17013638   1.244   2.328   7.402  0.4024 -0.0882 -0.3523
   75MOL   H17113639   1.360   2.326   7.286 -1.3507  1.6677 -0.4391
   75MOL   H17213640   1.419   2.350   7.446 -0.3371 -2.1566  0.2465
   75MOL   C17313641   1.305   2.594   7.509 -0.1083 -0.0165 -0.4569
   75MOL   C17413642   1.172   2.567   7.583 -0.0968  0.6018  0.3959
   75MOL   C17513643   1.162   2.657   0.008 -0.1437 -0.2958  0.8867
   75MOL   H17613644   1.387   2.573   7.578  1.3224  3.4874 -1.0212
   75MOL   H17713645   1.299   2.700   7.486  1.3529  0.0128 -0.7024
   75MOL   H17813646   1.172   2.462   7.613  0.1184  0.9208  1.5287
   75MOL   H17913647   1.103   2.605   0.082 -2.2902  0.8852  0.0437
   75MOL   H18013648   1.264   2.673   0.044  0.6132  1.3026 -1.8141
   75MOL   H18113649   1.113   2.753   7.689 -1.7294 -0.9680  1.6831
   75MOL   H18213650   1.083   2.581   7.521 -0.8190 -1.4093  0.9452
   76MOL     C113651   1.704   3.674   6.899  0.5604  0.1474  0.0916
   76MOL     C213652   1.589   3.621   6.986  0.5463 -0.5764  0.8753
   76MOL     C313653   1.600   3.663   7.136 -0.7879  0.1961  0.3189
   76MOL     H413654   1.797   3.656   6.952  0.7952  0.2380 -0.2820
   76MOL     H513655   1.692   3.776   6.863 -3.0588 -0.2717 -0.0015
   76MOL     H613656   1.610   3.514   6.979  0.8165 -0.6121  2.2173
   76MOL     H713657   1.519   3.629   7.199  0.0841 -0.3256  1.1759
   76MOL     H813658   1.694   3.631   7.182  0.5869  3.5524 -0.0073
   76MOL     H913659   1.602   3.771   7.150  0.9016  0.3537 -0.8716
   76MOL    H1013660   1.718   3.614   6.808  1.6863 -0.0914  0.4150
   76MOL    C1113661   1.462   3.656   6.917  0.0518  0.0618  0.1579
   76MOL    C1213662   1.346   3.561   6.946 -0.6846 -0.2322 -0.1856
   76MOL    C1313663   1.219   3.640   6.909  0.0980 -0.1086  0.4398
   76MOL    H1413664   1.441   3.757   6.950  0.8829 -0.1978  1.5570
   76MOL    H1513665   1.476   3.653   6.809  0.0018  0.1486  0.1493
   76MOL    H1613666   1.332   3.540   7.052 -0.0402 -0.5197 -0.1543
   76MOL    H1713667   1.125   3.584   6.903  0.3523 -0.6629  1.4320
   76MOL    H1813668   1.204   3.716   6.987 -0.1378  0.6645 -0.3523
   76MOL    H1913669   1.235   3.697   6.818 -1.0462 -0.9702 -0.3228
   76MOL    C2013670   1.357   3.429   6.864  0.7908 -0.6258 -0.0335
   76MOL    C2113671   1.264   3.312   6.915  0.5499 -0.0196  0.5490
   76MOL    C2213672   1.212   3.221   6.805 -0.3325 -0.4806  0.5182
   76MOL    H2313673   1.335   3.448   6.759 -0.4339  1.8784  0.6210
   76MOL    H2413674   1.460   3.398   6.849  0.3989 -1.9752 -0.0008
   76MOL    H2513675   1.169   3.352   6.951 -1.6900 -3.4319 -1.3672
   76MOL    H2613676   1.260   3.123   6.803  1.7625  0.5133  0.9462
   76MOL    H2713677   1.105   3.203   6.819 -0.6437  1.3388  0.5442
   76MOL    H2813678   1.238   3.261   6.707 -3.7177  1.9660  0.5404
   76MOL    C2913679   1.338   3.247   7.035 -0.0222 -0.7354  0.3887
   76MOL    C3013680   1.261   3.133   7.102  0.4262 -0.1707 -0.0364
   76MOL    C3113681   1.358   3.051   7.183 -0.5076 -0.1798  0.3963
   76MOL    H3213682   1.433   3.204   7.004 -0.0044 -1.0091  0.8289
   76MOL    H3313683   1.365   3.310   7.120 -2.9660 -0.8019  1.4304
   76MOL    H3413684   1.229   3.066   7.022 -1.5936 -0.9410  1.3732
   76MOL    H3513685   1.394   3.096   7.276  1.3831  0.0079 -0.4200
   76MOL    H3613686   1.326   2.952   7.218  2.5436 -0.8639  1.3688
   76MOL    H3713687   1.447   3.028   7.125 -0.0942  1.8380  0.2152
   76MOL    C3813688   1.136   3.170   7.182  0.2701 -0.1054 -0.3123
   76MOL    C3913689   1.003   3.098   7.137 -0.0111  0.5226  0.2545
   76MOL    C4013690   0.993   2.952   7.180  0.1189  0.1071 -0.4562
   76MOL    H4113691   1.169   3.170   7.286  0.5788 -0.5459 -0.4053
   76MOL    H4213692   1.132   3.277   7.163 -1.1439 -0.2534 -0.8671
   76MOL    H4313693   1.003   3.094   7.028  0.8475 -0.2963  0.2783
   76MOL    H4413694   0.944   2.954   7.277 -0.6121 -0.7551 -0.8020
   76MOL    H4513695   0.931   2.892   7.113 -0.5628  0.5409 -0.2211
   76MOL    H4613696   1.091   2.906   7.190  0.0022 -0.1542 -0.5227
   76MOL    C4713697   0.886   3.183   7.190 -0.2613 -0.5807 -0.4576
   76MOL    C4813698   0.741   3.137   7.157  0.3026  0.0054  0.2590
   76MOL    C4913699   0.637   3.202   7.240  0.6865  0.1704 -0.3337
   76MOL    H5013700   0.898   3.193   7.298 -2.4320 -0.7338 -0.1849
   76MOL    H5113701   0.901   3.288   7.163  0.1013 -0.7078 -0.7510
   76MOL    H5213702   0.736   3.032   7.187 -0.1609 -0.5732 -1.7989
   76MOL    H5313703   0.645   3.193   7.348  0.8396 -0.7689 -0.4174
   76MOL    H5413704   0.631   3.308   7.212  1.2598 -0.1951 -1.9050
   76MOL    H5513705   0.541   3.158   7.216  0.1370  2.2721 -2.2377
   76MOL    C5613706   0.719   3.127   7.011  0.3965  0.0032  0.1334
   76MOL    C5713707   0.588   3.054   6.958  0.4587 -0.2847 -0.4663
   76MOL    C5813708   0.573   3.085   6.806  0.5968  0.0043  0.2918
   76MOL    H5913709   0.732   3.222   6.960  0.1162 -1.7379 -3.3184
   76MOL    H6013710   0.794   3.068   6.959 -0.9327 -0.6848 -1.0511
   76MOL    H6113711   0.497   3.095   7.002 -0.4948  0.1476 -2.7696
   76MOL    H6213712   0.477   3.060   6.761  0.5531  2.9848 -1.3507
   76MOL    H6313713   0.591   3.191   6.789  1.5566  0.1179  1.9033
   76MOL    H6413714   0.651   3.029   6.754 -0.1838 -0.1449 -0.7316
   76MOL    C6513715   0.585   2.902   6.978  1.0929  0.5036  0.4563
   76MOL    C6613716   0.444   2.838   6.938  0.1961  0.2099  0.3852
   76MOL    C6713717   0.456   2.691   6.959 -0.5547  0.5150 -0.3867
   76MOL    H6813718   0.664   2.842   6.933  0.1409 -3.2427  3.4173
   76MOL    H6913719   0.586   2.891   7.087 -0.0600 -0.9821  0.3304
   76MOL    H7013720   0.427   2.875   6.837 -1.3341 -0.3600  0.4158
   76MOL    H7113721   0.544   2.649   6.911 -1.4181 -1.0841 -0.6010
   76MOL    H7213722   0.445   2.670   7.066  1.3111  1.9529  0.1088
   76MOL    H7313723   0.365   2.653   6.912 -2.8620  1.9408  2.6939
   76MOL    C7413724   0.327   2.907   7.011  0.3998 -0.2655  0.1324
   76MOL    C7513725   0.190   2.835   7.020  0.3215 -0.2083 -0.3961
   76MOL    C7613726   0.109   2.899   7.134 -0.3502  0.2054 -0.4965
   76MOL    H7713727   0.373   2.921   7.109  2.5244 -1.7528 -0.6357
   76MOL    H7813728   0.298   3.007   6.979  1.3327  0.6082  1.9523
   76MOL    H7913729   0.197   2.729   7.042 -3.6892 -0.4239  0.1722
   76MOL    H8013730   0.107   3.008   7.133  0.4331  0.2533  1.0816
   76MOL    H8113731   0.010   2.858   7.151 -0.1245  0.3888  1.4305
   76MOL    H8213732   0.151   2.874   7.232 -1.8623  0.2758  0.1863
   76MOL    C8313733   0.122   2.864   6.881  0.2429  0.1252 -0.6245
   76MOL    C8413734   0.052   2.736   6.828 -0.8031 -0.8530 -0.8220
   76MOL    C8513735   7.649   2.688   6.927 -0.5296  0.0022  0.2714
   76MOL    H8613736   0.057   2.952   6.886  1.3238  0.9376 -0.7553
   76MOL    H8713737   0.199   2.889   6.808 -0.9731 -0.6513 -2.2230
   76MOL    H8813738   0.128   2.658   6.821  1.3056  0.9018  1.4409
   76MOL    H8913739   7.597   2.605   6.878 -0.4929 -0.0625  0.3409
   76MOL    H9013740   7.692   2.659   7.023 -0.4702 -0.1450  0.2003
   76MOL    H9113741   7.575   2.766   6.942  0.6836  0.9484  1.4933
   76MOL    C9213742   7.678   2.743   6.693 -0.1243 -0.3891  0.0837
   76MOL    C9313743   0.060   2.811   6.584 -1.1461  0.0517  0.3064
   76MOL    C9413744   0.160   2.704   6.535  0.2798 -0.4067  0.4446
   76MOL    H9513745   7.645   2.642   6.667 -0.0331 -0.2978 -0.3909
   76MOL    H9613746   7.583   2.794   6.707  1.3269  2.2947  0.3907
   76MOL    H9713747   0.121   2.895   6.618 -1.0706  1.3519 -2.8869
   76MOL    H9813748   0.100   2.631   6.481  0.4732  1.0389 -1.8022
   76MOL    H9913749   0.231   2.743   6.462  0.8665  0.8290  1.6733
   76MOL   H10013750   0.205   2.651   6.618  1.5366  0.3452  0.2487
   76MOL   C10113751   7.667   2.857   6.461 -0.2425  0.3448 -0.9376
   76MOL   C10213752   7.598   2.986   6.470  0.0573 -0.2822  0.2844
   76MOL   C10313753   7.687   3.106   6.489 -0.3497  0.0688  0.1288
   76MOL   H10413754   0.032   2.849   6.372  1.6036 -0.1691  0.3882
   76MOL   H10513755   7.592   2.780   6.443 -0.6889  0.4088  0.5920
   76MOL   H10613756   7.546   2.976   6.566  0.5025  0.3843  0.5933
   76MOL   H10713757   0.061   3.128   6.410  0.0178  0.9438  0.7056
   76MOL   H10813758   7.623   3.194   6.498 -0.4280 -0.0631  0.8474
   76MOL   H10913759   0.048   3.098   6.580  1.1801 -0.1702 -0.8544
   76MOL   C11013760   7.505   3.012   6.355  0.2095 -0.4007  0.7538
   76MOL   C11113761   7.357   2.961   6.378 -0.2772  0.1832 -0.2963
   76MOL   C11213762   7.281   3.048   6.481 -0.7485 -0.0643 -0.3146
   76MOL   H11313763   7.509   3.120   6.341 -2.8720 -0.3205  0.1883
   76MOL   H11413764   7.541   2.984   6.256 -2.4302  0.6514 -0.5436
   76MOL   H11513765   7.362   2.859   6.416  0.3476  0.3352  0.0300
   76MOL   H11613766   7.277   3.153   6.451 -3.5834 -0.4264 -1.4195
   76MOL   H11713767   7.176   3.017   6.481 -0.5237 -0.9352 -2.0983
   76MOL   H11813768   7.307   3.045   6.587  0.1212  0.8025 -0.4990
   76MOL   C11913769   7.283   2.955   6.240 -0.2281 -0.4903  0.1281
   76MOL   C12013770   7.303   2.816   6.171 -0.0591  1.0646  0.0273
   76MOL   C12113771   7.242   2.694   6.246  0.4595  0.2869  0.8377
   76MOL   H12213772   7.180   2.974   6.267  0.6045  1.2221  2.2444
   76MOL   H12313773   7.308   3.037   6.173  0.0430 -0.0611  0.7536
   76MOL   H12413774   7.412   2.805   6.177 -0.0734  1.9677  2.3075
   76MOL   H12513775   7.187   2.716   6.337 -1.2244  1.9130 -0.5368
   76MOL   H12613776   7.175   2.631   6.187  1.9629 -2.3423  1.8620
   76MOL   H12713777   7.321   2.627   6.279  0.2126  0.6256  2.1402
   76MOL   C12813778   7.252   2.807   6.022 -0.5413  0.6404 -0.3468
   76MOL   C12913779   7.319   2.898   5.924 -0.1147  0.5230 -0.0511
   76MOL   C13013780   7.473   2.864   5.891 -0.2275  0.1070  0.1177
   76MOL   H13113781   7.259   2.708   5.977 -0.2089  0.9512 -0.9979
   76MOL   H13213782   7.147   2.835   6.019 -1.0764 -1.4246 -3.3584
   76MOL   H13313783   7.318   3.000   5.962  1.2814  0.7465 -0.5802
   76MOL   H13413784   7.518   2.868   5.990 -0.6116  5.2515  0.2343
   76MOL   H13513785   7.486   2.770   5.839 -1.0713 -0.9228  1.7184
   76MOL   H13613786   7.522   2.945   5.838 -1.2567  2.0268  1.9882
   76MOL   C13713787   7.244   2.897   5.784  0.8357  0.2923  0.6252
   76MOL   C13813788   7.103   2.968   5.775  0.4549 -0.0342  0.3153
   76MOL   C13913789   7.108   3.110   5.823 -0.0835  0.0042  0.7871
   76MOL   H14013790   7.313   2.937   5.710 -0.3630 -1.6125 -1.6195
   76MOL   H14113791   7.238   2.794   5.748 -1.7236  1.0748 -1.3382
   76MOL   H14213792   7.028   2.920   5.837 -0.1322  0.7563  0.2191
   76MOL   H14313793   7.138   3.110   5.928 -0.0287 -0.0579  0.7727
   76MOL   H14413794   7.190   3.155   5.767 -0.6060 -0.8804 -0.7196
   76MOL   H14513795   7.019   3.171   5.809  0.2708 -0.0874 -2.3842
   76MOL   C14613796   7.041   2.968   5.636  0.2394 -0.1758  0.7110
   76MOL   C14713797   7.000   2.835   5.581  0.1505 -0.0482  0.0291
   76MOL   C14813798   6.889   2.774   5.671  0.4345  0.1776 -0.4520
   76MOL   H14913799   6.949   3.026   5.629  0.1279 -0.2387  1.5855
   76MOL   H15013800   7.112   3.018   5.570 -1.1242  2.6056  1.2799
   76MOL   H15113801   7.079   2.760   5.577  0.4432  0.3629 -3.9915
   76MOL   H15213802   6.842   2.691   5.619 -0.2824  1.0052 -1.1449
   76MOL   H15313803   6.916   2.743   5.772  1.4309 -0.2331 -0.8336
   76MOL   H15413804   6.806   2.845   5.673  1.3722  1.2643  1.0522
   76MOL   C15513805   6.950   2.842   5.437  0.2388 -0.4610 -0.1781
   76MOL   C15613806   7.068   2.859   5.334 -0.0097  0.3533 -0.0634
   76MOL   C15713807   7.132   2.720   5.308 -0.2292 -0.7309  0.4690
   76MOL   H15813808   6.887   2.757   5.411  0.4374 -0.3590 -1.0000
   76MOL   H15913809   6.886   2.930   5.428  0.6010 -0.3037 -1.1507
   76MOL   H16013810   7.145   2.917   5.385  1.3401 -0.3444 -1.3087
   76MOL   H16113811   7.222   2.743   5.250 -0.6653 -0.5812 -0.1563
   76MOL   H16213812   7.182   2.677   5.395 -0.5755 -1.4844  0.3002
   76MOL   H16313813   7.070   2.647   5.256  1.4721 -0.5559 -1.9010
   76MOL   C16413814   7.009   2.924   5.202  0.1762 -0.0283  0.3775
   76MOL   C16513815   7.034   3.074   5.179  0.2371  0.2096 -0.8491
   76MOL   C16613816   7.008   3.117   5.031  0.0133  0.6750  0.1358
   76MOL   H16713817   7.057   2.887   5.111 -0.1103 -2.8291  1.3221
   76MOL   H16813818   6.905   2.893   5.189  0.2401  1.2594 -3.8609
   76MOL   H16913819   7.141   3.084   5.197 -0.1351  1.1486  0.9162
   76MOL   H17013820   6.904   3.101   5.003  0.0568  0.8011 -0.0928
   76MOL   H17113821   7.044   3.217   5.010  2.4454  0.1483  1.4510
   76MOL   H17213822   7.071   3.053   4.969 -2.3426 -2.0975  0.4835
   76MOL   C17313823   6.961   3.158   5.293  0.0341  0.2717  0.2086
   76MOL   C17413824   7.008   3.307   5.302 -0.0411  0.0584 -0.1443
   76MOL   C17513825   6.909   3.380   5.402  0.2149 -0.7598 -0.0811
   76MOL   H17613826   6.856   3.152   5.267  0.0497 -0.0785  0.2271
   76MOL   H17713827   6.961   3.116   5.393 -0.4625 -1.1740 -0.3932
   76MOL   H17813828   6.987   3.356   5.207 -0.4313 -0.0708 -0.1259
   76MOL   H17913829   6.915   3.342   5.504 -0.4732 -2.4683 -0.6524
   76MOL   H18013830   6.943   3.483   5.391  0.2253 -0.9011 -1.4350
   76MOL   H18113831   6.808   3.369   5.364 -1.1652  1.8198  2.6327
   76MOL   H18213832   7.109   3.309   5.343 -0.1477  1.6543  0.0472
   77MOL     C113833   6.636   5.852   2.693 -0.1156 -0.1035  0.2576
   77MOL     C213834   6.503   5.918   2.715 -0.5256 -0.2584  0.4635
   77MOL     C313835   6.402   5.808   2.767 -0.9166  0.3366  0.5427
   77MOL     H413836   6.721   5.919   2.692 -1.5083  1.6779  0.0342
   77MOL     H513837   6.634   5.798   2.598 -3.1633  1.4497 -0.6246
   77MOL     H613838   6.472   5.942   2.614 -0.0938  3.7276  1.1936
   77MOL     H713839   6.304   5.850   2.788 -0.5754  0.5516  1.7537
   77MOL     H813840   6.377   5.749   2.679 -1.6107  1.6139 -0.1388
   77MOL     H913841   6.440   5.747   2.849 -1.0426  0.3282  0.5943
   77MOL    H1013842   6.662   5.776   2.767  0.3251 -0.3327 -0.1292
   77MOL    C1113843   6.512   6.034   2.815 -0.7068 -0.5724 -0.4154
   77MOL    C1213844   6.381   6.107   2.846  0.1400 -0.2885 -0.3334
   77MOL    C1313845   6.323   6.067   2.988 -0.7874 -0.0001 -0.1552
   77MOL    H1413846   6.561   6.003   2.907  1.3570  1.4876 -0.7777
   77MOL    H1513847   6.586   6.105   2.777  0.5356 -1.0223  1.1216
   77MOL    H1613848   6.310   6.069   2.772  0.2245 -1.3862  0.1454
   77MOL    H1713849   6.400   6.084   3.063 -2.2503  1.2827  1.0804
   77MOL    H1813850   6.231   6.115   3.020 -1.0719 -0.0590 -0.8744
   77MOL    H1913851   6.318   5.958   2.995 -0.4241  0.0837  1.7848
   77MOL    C2013852   6.391   6.261   2.834 -0.1710 -0.1873 -0.1337
   77MOL    C2113853   6.259   6.340   2.809 -0.8923  0.6546 -0.1471
   77MOL    C2213854   6.284   6.491   2.857 -0.1940  0.0954 -0.1618
   77MOL    H2313855   6.453   6.297   2.916  1.0701  0.3537 -1.2834
   77MOL    H2413856   6.456   6.280   2.748 -0.1568 -0.9911 -0.2996
   77MOL    H2513857   6.179   6.301   2.871 -1.5971 -3.0916 -3.2014
   77MOL    H2613858   6.192   6.548   2.846 -0.5571  0.2817  3.4221
   77MOL    H2713859   6.304   6.493   2.964 -0.3750 -0.0301 -0.1250
   77MOL    H2813860   6.363   6.545   2.805 -0.8346 -0.7307 -2.0588
   77MOL    C2913861   6.212   6.345   2.664  0.2319 -1.2114  0.2001
   77MOL    C3013862   6.055   6.326   2.655 -0.1008 -0.3654 -0.4520
   77MOL    C3113863   6.009   6.192   2.701 -0.6788  0.6581 -0.2561
   77MOL    H3213864   6.247   6.435   2.614 -2.5856  0.0888  0.4309
   77MOL    H3313865   6.260   6.265   2.607 -0.9225 -1.3053 -0.6534
   77MOL    H3413866   6.041   6.324   2.547 -0.6930  2.0054 -0.4437
   77MOL    H3513867   6.001   6.189   2.809  0.7527  0.0421 -0.1522
   77MOL    H3613868   5.909   6.172   2.663 -0.8636  1.5514 -0.2600
   77MOL    H3713869   6.073   6.108   2.673  0.6651  2.3497 -2.4610
   77MOL    C3813870   5.965   6.447   2.706 -0.3865 -0.1280 -0.0427
   77MOL    C3913871   5.813   6.430   2.681  0.2619 -0.3396  0.0575
   77MOL    C4013872   5.737   6.538   2.762 -0.3602 -0.1213  0.2743
   77MOL    H4113873   5.980   6.456   2.814 -0.1347 -0.2964 -0.0654
   77MOL    H4213874   6.002   6.536   2.657  1.2262 -0.0548  1.2733
   77MOL    H4313875   5.783   6.332   2.717  0.9505 -0.3397  0.6518
   77MOL    H4413876   5.628   6.529   2.760 -0.3820  0.1233  0.4703
   77MOL    H4513877   5.765   6.538   2.867 -1.3131 -1.3621  0.5480
   77MOL    H4613878   5.756   6.636   2.720  0.0412 -0.7533 -1.0628
   77MOL    C4713879   5.772   6.420   2.528  0.1128  0.5684  0.7281
   77MOL    C4813880   5.653   6.336   2.482 -0.2377  0.7221 -0.0904
   77MOL    C4913881   5.528   6.424   2.469  0.6368  0.0312 -0.2122
   77MOL    H5013882   5.760   6.520   2.487 -0.5511  0.4546  0.6403
   77MOL    H5113883   5.860   6.373   2.484 -0.7488 -0.0227 -0.3968
   77MOL    H5213884   5.627   6.270   2.564  0.9576 -0.2769 -0.5039
   77MOL    H5313885   5.431   6.376   2.457  0.8418 -0.2572 -0.7237
   77MOL    H5413886   5.517   6.481   2.561 -1.5498 -0.4907 -0.1353
   77MOL    H5513887   5.547   6.492   2.386 -1.0813  0.6490 -0.1146
   77MOL    C5613888   5.675   6.249   2.358  0.3919 -0.9355  0.1520
   77MOL    C5713889   5.747   6.111   2.392 -0.4136 -0.5495  0.5209
   77MOL    C5813890   5.655   6.011   2.474  0.2854  0.0081  0.7958
   77MOL    H5913891   5.582   6.222   2.308  0.3885  0.6830 -0.7662
   77MOL    H6013892   5.728   6.299   2.277 -0.2687  0.1281  0.3662
   77MOL    H6113893   5.833   6.147   2.447  0.0360 -2.5566  1.1936
   77MOL    H6213894   5.720   5.926   2.492 -0.5880 -0.8005  0.1179
   77MOL    H6313895   5.638   6.052   2.574 -2.0157  0.4746  0.2410
   77MOL    H6413896   5.564   5.974   2.428  0.1565 -1.1023  1.9182
   77MOL    C6513897   5.795   6.053   2.262  0.6046  0.6970 -0.4374
   77MOL    C6613898   5.899   5.935   2.277  0.1183  0.3917  0.2206
   77MOL    C6713899   5.939   5.867   2.141  0.1042 -0.0723 -0.1291
   77MOL    H6813900   5.710   6.012   2.208  0.0199 -0.0014  0.9836
   77MOL    H6913901   5.838   6.126   2.193 -2.7128  1.1036 -2.1521
   77MOL    H7013902   5.845   5.857   2.331  0.7284 -0.8442 -0.9270
   77MOL    H7113903   6.016   5.917   2.081 -0.8077 -1.3318 -2.3706
   77MOL    H7213904   5.977   5.767   2.164  0.7304 -0.0096 -0.8490
   77MOL    H7313905   5.851   5.853   2.079  0.9608  1.0682 -1.6645
   77MOL    C7413906   6.020   5.958   2.366 -0.3999 -0.5529  0.8134
   77MOL    C7513907   6.105   5.827   2.408  0.7701  0.1719 -1.0383
   77MOL    C7613908   6.252   5.869   2.430  0.0979  0.2893  0.4780
   77MOL    H7713909   6.083   6.029   2.312  0.9303 -1.4321  1.1997
   77MOL    H7813910   5.998   6.015   2.457  0.9193  2.9793 -0.9917
   77MOL    H7913911   6.110   5.752   2.330  0.3688 -1.3338  0.3760
   77MOL    H8013912   6.292   5.897   2.333 -2.9372  1.1150 -0.5776
   77MOL    H8113913   6.267   5.953   2.498  2.2068  2.5895 -2.6912
   77MOL    H8213914   6.316   5.788   2.467  0.9508 -0.0277 -1.6154
   77MOL    C8313915   6.055   5.753   2.535 -0.1216 -0.2947  0.3601
   77MOL    C8413916   6.044   5.594   2.527  0.5805  0.1582  0.3283
   77MOL    C8513917   5.924   5.556   2.447  0.3267  0.5522 -0.3978
   77MOL    H8613918   6.106   5.781   2.626 -1.0906  2.0277  0.2239
   77MOL    H8713919   5.959   5.795   2.565 -0.5830 -1.0196 -0.0768
   77MOL    H8813920   6.029   5.570   2.632  0.5189 -2.4646 -0.2473
   77MOL    H8913921   5.834   5.607   2.481  0.3205  0.9238 -0.9554
   77MOL    H9013922   5.948   5.560   2.341 -0.4612  1.6644 -0.5483
   77MOL    H9113923   5.899   5.452   2.466  0.6303  0.7408  1.0688
   77MOL    C9213924   6.173   5.519   2.494 -0.6795  0.2532 -0.2133
   77MOL    C9313925   6.191   5.372   2.552  0.3613 -0.2982 -0.5970
   77MOL    C9413926   6.283   5.285   2.466 -0.0876  0.3021  0.2356
   77MOL    H9513927   6.162   5.501   2.387  0.9762 -0.3919 -0.2888
   77MOL    H9613928   6.263   5.578   2.513  0.1089 -0.5319 -1.4281
   77MOL    H9713929   6.095   5.324   2.536 -0.9027  1.0665  2.5928
   77MOL    H9813930   6.256   5.294   2.361  1.3151 -0.3087 -0.1921
   77MOL    H9913931   6.387   5.316   2.479 -0.7064  2.1474  0.9878
   77MOL   H10013932   6.283   5.180   2.493 -1.2185  0.1737 -0.2833
   77MOL   C10113933   6.232   5.376   2.711 -0.3861 -0.0295  0.1310
   77MOL   C10213934   6.118   5.327   2.803 -0.3679  0.4051 -0.3295
   77MOL   C10313935   6.067   5.182   2.794 -0.1579 -0.6135  1.2429
   77MOL   H10413936   6.323   5.320   2.732  1.3351  1.6884 -2.5459
   77MOL   H10513937   6.271   5.473   2.741 -2.9999  0.8757  0.7719
   77MOL   H10613938   6.026   5.383   2.788 -0.4361  0.4801  0.3518
   77MOL   H10713939   5.997   5.138   2.864  0.3816  1.7401  3.3311
   77MOL   H10813940   6.011   5.182   2.700  2.1108  0.5082 -0.1588
   77MOL   H10913941   6.154   5.121   2.769  0.7479  0.8546  0.7014
   77MOL   C11013942   6.144   5.356   2.948 -0.0763  0.3343  0.7634
   77MOL   C11113943   6.161   5.500   2.987 -0.1372 -0.2617 -0.5091
   77MOL   C11213944   6.029   5.581   2.974 -0.1317 -0.0400  0.6034
   77MOL   H11313945   6.057   5.316   3.001  0.4296  1.1182  2.2319
   77MOL   H11413946   6.231   5.301   2.984  0.1362  0.1922  0.0220
   77MOL   H11513947   6.225   5.553   2.916 -1.2678 -0.5198 -1.7238
   77MOL   H11613948   6.052   5.687   2.986  1.6696 -0.4814  1.1258
   77MOL   H11713949   5.985   5.582   2.875 -0.7813 -0.8589  0.8752
   77MOL   H11813950   5.955   5.551   3.049  1.0700 -0.5334  1.6148
   77MOL   C11913951   6.232   5.532   3.124  0.5806 -0.7406 -0.8318
   77MOL   C12013952   6.372   5.474   3.151 -0.0563  0.1669 -0.6454
   77MOL   C12113953   6.474   5.531   3.061  0.8603 -0.2557  0.6434
   77MOL   H12213954   6.234   5.640   3.139 -1.7438 -0.7693 -0.0928
   77MOL   H12313955   6.170   5.493   3.204 -1.6148  4.2035  0.0672
   77MOL   H12413956   6.363   5.366   3.138  0.9851  0.0382 -0.2837
   77MOL   H12513957   6.570   5.485   3.084  2.0192  0.2596 -2.9357
   77MOL   H12613958   6.450   5.506   2.958  2.5180 -0.5965  0.3248
   77MOL   H12713959   6.492   5.638   3.074  0.4221  0.2407 -2.4794
   77MOL   C12813960   6.413   5.492   3.296  0.6106 -0.4712  0.3540
   77MOL   C12913961   6.505   5.377   3.345  0.1746 -0.2380  0.5773
   77MOL   C13013962   6.599   5.430   3.450 -0.7469  0.0589  0.2308
   77MOL   H13113963   6.458   5.589   3.318  0.0250 -0.2141  0.4422
   77MOL   H13213964   6.328   5.512   3.362  1.9753  2.6071  1.2584
   77MOL   H13313965   6.556   5.340   3.255 -0.6409 -0.0601  0.0365
   77MOL   H13413966   6.658   5.343   3.481  0.7494  1.2523  0.7925
   77MOL   H13513967   6.665   5.505   3.406  0.9610 -1.6438 -0.2000
   77MOL   H13613968   6.557   5.458   3.547  2.4782  0.7475  1.4987
   77MOL   C13713969   6.416   5.262   3.393  0.3729 -0.2806 -0.8218
   77MOL   C13813970   6.474   5.120   3.404 -0.7988 -0.1109  0.4036
   77MOL   C13913971   6.412   5.022   3.501 -1.2641 -0.2389 -0.9745
   77MOL   H14013972   6.398   5.291   3.497 -1.6530  2.2256 -1.8228
   77MOL   H14113973   6.322   5.275   3.340  0.2270 -0.1826 -0.5448
   77MOL   H14213974   6.576   5.132   3.442  0.6442  0.0347 -3.2668
   77MOL   H14313975   6.471   4.930   3.502 -0.9355 -0.0295 -0.9282
   77MOL   H14413976   6.412   5.063   3.602 -2.5774  2.3927 -2.0020
   77MOL   H14513977   6.306   5.000   3.491 -1.7719  0.6435  1.9313
   77MOL   C14613978   6.483   5.064   3.264  0.5817  0.0641  0.5496
   77MOL   C14713979   6.353   5.028   3.190 -0.8282 -0.2952  0.8275
   77MOL   C14813980   6.370   5.064   3.040 -0.1488 -0.2612  0.5133
   77MOL   H14913981   6.540   5.135   3.204 -0.7599  2.4144  1.9857
   77MOL   H15013982   6.548   4.977   3.258  1.2755  0.5164  1.3628
   77MOL   H15113983   6.280   5.095   3.236  0.3390  0.2042  1.9798
   77MOL   H15213984   6.459   5.014   3.000  0.6486  1.2519  0.3526
   77MOL   H15313985   6.284   5.045   2.976 -0.7907  0.7113  1.0710
   77MOL   H15413986   6.402   5.167   3.025  0.2333 -0.7212 -1.9910
   77MOL   C15513987   6.312   4.885   3.201  0.6331  1.3604 -0.3257
   77MOL   C15613988   6.156   4.866   3.177  0.0374 -0.1794  0.6183
   77MOL   C15713989   6.121   4.728   3.128 -0.5432  0.0459  0.0140
   77MOL   H15813990   6.364   4.816   3.135 -0.4233 -0.9021  1.1528
   77MOL   H15913991   6.337   4.849   3.301  1.4303 -1.6862 -1.5490
   77MOL   H16013992   6.131   4.933   3.096 -2.2564 -1.4679  0.1972
   77MOL   H16113993   6.144   4.648   3.198  2.6436 -0.0088 -1.0165
   77MOL   H16213994   6.017   4.716   3.097 -0.6225  0.2356  0.2047
   77MOL   H16313995   6.187   4.698   3.046 -0.7049  0.4909 -0.2818
   77MOL   C16413996   6.071   4.904   3.300  0.1845  0.1982  0.1463
   77MOL   C16513997   5.920   4.910   3.269  0.6548  0.2412 -0.4127
   77MOL   C16613998   5.841   4.910   3.395 -0.2860  0.3374  0.0452
   77MOL   H16713999   6.100   4.828   3.374  0.8156  0.8450  0.5674
   77MOL   H16814000   6.102   5.002   3.335 -0.8075  1.2634 -1.8694
   77MOL   H16914001   5.892   4.812   3.229 -1.5845  0.8683 -0.4598
   77MOL   H17014002   5.858   5.004   3.449  2.6631  0.9458 -1.8475
   77MOL   H17114003   5.735   4.903   3.371  0.0201  2.6047 -2.0950
   77MOL   H17214004   5.865   4.827   3.462  1.5087  0.7682 -0.0329
   77MOL   C17314005   5.878   5.015   3.167  0.3000 -0.1781  0.0095
   77MOL   C17414006   5.890   5.159   3.220 -0.4523 -0.6858  0.0280
   77MOL   C17514007   5.818   5.255   3.123  0.0886 -0.1632 -0.5995
   77MOL   H17614008   5.929   5.004   3.072  2.1960  0.3768  0.9343
   77MOL   H17714009   5.773   5.005   3.138  0.3805  2.2652 -1.2656
   77MOL   H17814010   5.996   5.182   3.224 -0.0361 -2.2138 -1.5746
   77MOL   H17914011   5.712   5.234   3.113 -0.5375  1.7222  1.6875
   77MOL   H18014012   5.823   5.359   3.156 -2.8576 -0.8419  2.3120
   77MOL   H18114013   5.860   5.252   3.023 -2.4735  0.9312 -1.7400
   77MOL   H18214014   5.841   5.169   3.317 -1.4435  0.9434 -0.6243
   78MOL     C114015   7.405   5.148   3.817  0.4908 -0.1611 -0.1509
   78MOL     C214016   7.360   5.185   3.677  0.1087 -0.4834 -0.0170
   78MOL     C314017   7.318   5.055   3.607 -0.3689 -0.3285 -1.1953
   78MOL     H414018   7.465   5.233   3.853 -1.0765  0.3978  1.1982
   78MOL     H514019   7.480   5.070   3.808 -0.3223 -0.8209 -1.2215
   78MOL     H614020   7.451   5.215   3.624 -0.9549  1.4027 -0.8489
   78MOL     H714021   7.218   5.015   3.624 -0.5352  0.4298 -0.3660
   78MOL     H814022   7.331   5.061   3.499  0.0628 -0.0076 -1.1278
   78MOL     H914023   7.381   4.967   3.620 -0.9680 -0.9320 -2.2564
   78MOL    H1014024   7.322   5.124   3.883  0.7396  2.0053  0.9984
   78MOL    C1114025   7.264   5.304   3.682 -0.6955  0.1842 -1.0017
   78MOL    C1214026   7.240   5.388   3.554  0.2198  0.6442  0.1504
   78MOL    C1314027   7.374   5.422   3.492 -0.3093  0.2499 -0.2114
   78MOL    H1414028   7.176   5.272   3.738  1.4016 -2.2614  1.0586
   78MOL    H1514029   7.312   5.369   3.756 -0.6695 -1.0880  0.1149
   78MOL    H1614030   7.201   5.484   3.588  1.1479  0.5582  1.4990
   78MOL    H1714031   7.412   5.335   3.439 -0.6700 -0.0280 -0.0167
   78MOL    H1814032   7.381   5.508   3.426  0.0384 -0.1419 -0.6909
   78MOL    H1914033   7.453   5.440   3.566  0.6453  1.0385 -1.4054
   78MOL    C2014034   7.151   5.326   3.445  0.2867 -0.1906 -0.4770
   78MOL    C2114035   7.001   5.301   3.487 -0.2776  0.0948  0.6374
   78MOL    C2214036   6.937   5.434   3.523 -0.1847  0.1638  0.4214
   78MOL    H2314037   7.155   5.400   3.365  1.9237 -0.0223 -0.2618
   78MOL    H2414038   7.195   5.242   3.390  2.0748  0.7610 -0.5547
   78MOL    H2514039   7.010   5.240   3.577  2.3500 -1.8197 -0.8586
   78MOL    H2614040   6.993   5.473   3.608  2.4288 -1.1535 -0.6385
   78MOL    H2714041   6.952   5.513   3.450  3.1316  0.5942  1.4705
   78MOL    H2814042   6.833   5.439   3.555 -0.2110 -1.1234  0.5647
   78MOL    C2914043   6.917   5.232   3.374  0.9444  0.6375  0.1719
   78MOL    C3014044   6.956   5.081   3.351 -0.2754 -0.5087  0.4841
   78MOL    C3114045   6.922   4.988   3.463 -0.4135 -0.4352 -0.3177
   78MOL    H3214046   6.810   5.245   3.391  0.0608 -1.9734 -2.9030
   78MOL    H3314047   6.945   5.289   3.285  1.1273  1.4608  0.7440
   78MOL    H3414048   7.064   5.069   3.358 -0.3927 -2.0344 -0.2812
   78MOL    H3514049   6.816   4.991   3.489 -0.5614 -0.3923 -0.9119
   78MOL    H3614050   6.946   4.887   3.430  0.9211 -0.9065  1.9488
   78MOL    H3714051   6.968   5.019   3.557 -0.4426  1.1993 -0.8334
   78MOL    C3814052   6.887   5.039   3.221  0.1090 -0.3479  0.1297
   78MOL    C3914053   6.963   5.080   3.093 -0.2348  0.0905  0.1175
   78MOL    C4014054   7.095   5.015   3.086  0.8834 -0.3457 -0.1892
   78MOL    H4114055   6.876   4.930   3.219 -0.8175 -0.2550  0.1396
   78MOL    H4214056   6.788   5.083   3.212  0.3777  0.1037 -0.6101
   78MOL    H4314057   6.971   5.188   3.095 -0.2956  0.0983 -0.0673
   78MOL    H4414058   7.090   4.907   3.101 -0.7004  0.0841  2.7016
   78MOL    H4514059   7.137   5.039   2.988  2.5963 -0.3141  0.5521
   78MOL    H4614060   7.161   5.058   3.160  0.6584 -0.2421 -0.0472
   78MOL    C4714061   6.871   5.055   2.967 -1.1000 -0.2898  0.5689
   78MOL    C4814062   6.876   5.178   2.867  0.0519  0.3132 -0.3838
   78MOL    C4914063   7.013   5.210   2.814 -0.7155  0.7560 -0.5270
   78MOL    H5014064   6.900   4.962   2.917 -1.2600  0.2547 -0.5488
   78MOL    H5114065   6.766   5.042   2.994 -0.8121 -2.0374  0.9373
   78MOL    H5214066   6.827   5.265   2.910  1.2148  1.5960 -1.5902
   78MOL    H5314067   7.016   5.287   2.738 -0.5361 -0.1327 -1.4348
   78MOL    H5414068   7.069   5.252   2.898 -0.4917  1.0143 -0.8042
   78MOL    H5514069   7.056   5.117   2.775 -0.6607  0.7722 -0.5045
   78MOL    C5614070   6.796   5.139   2.742  0.3736 -0.2183  0.1128
   78MOL    C5714071   6.647   5.100   2.745  0.2917 -0.4297  0.2181
   78MOL    C5814072   6.568   5.217   2.807 -0.7573  0.1735 -0.0186
   78MOL    H5914073   6.799   5.217   2.666  0.3391 -1.1742 -0.8841
   78MOL    H6014074   6.842   5.051   2.698  1.6157 -0.1470  1.2223
   78MOL    H6114075   6.635   5.006   2.798  2.1054 -1.5717 -1.3149
   78MOL    H6214076   6.607   5.230   2.908 -0.4831 -0.7694  0.0006
   78MOL    H6314077   6.581   5.307   2.747 -2.1834  0.0208 -0.5818
   78MOL    H6414078   6.462   5.194   2.807 -0.6364 -0.4094 -1.9617
   78MOL    C6514079   6.598   5.070   2.600 -0.2363 -0.3804  0.3532
   78MOL    C6614080   6.471   4.981   2.566 -0.5424 -0.0786  0.6604
   78MOL    C6714081   6.474   4.948   2.417  0.1588  0.1853 -0.6480
   78MOL    H6814082   6.573   5.164   2.552  3.4764 -0.3397 -1.7522
   78MOL    H6914083   6.683   5.038   2.539 -0.5776 -0.6039 -0.0130
   78MOL    H7014084   6.376   5.033   2.580 -0.5006  0.3467 -0.6296
   78MOL    H7114085   6.489   5.041   2.363  1.0801  1.1048  1.1512
   78MOL    H7214086   6.563   4.887   2.405  0.7200  0.2833  2.4433
   78MOL    H7314087   6.397   4.890   2.365 -0.1493  0.3418 -0.3690
   78MOL    C7414088   6.453   4.859   2.658  0.2349  0.2990 -0.0510
   78MOL    C7514089   6.334   4.764   2.628  0.1227  0.3730  0.3156
   78MOL    C7614090   6.349   4.626   2.700 -0.1493 -0.3023  0.2049
   78MOL    H7714091   6.547   4.805   2.649 -0.1937 -0.8347  1.8811
   78MOL    H7814092   6.448   4.886   2.764 -0.0810 -0.4266  0.1251
   78MOL    H7914093   6.318   4.753   2.520 -3.1704 -1.7655  0.9474
   78MOL    H8014094   6.271   4.552   2.682 -0.3660 -0.2802  1.0521
   78MOL    H8114095   6.445   4.577   2.683 -0.0217 -0.3805  1.1391
   78MOL    H8214096   6.352   4.635   2.809 -1.6099 -1.6199  0.3842
   78MOL    C8314097   6.208   4.830   2.681 -0.2572 -0.6896 -0.2956
   78MOL    C8414098   6.067   4.757   2.658 -0.3007 -0.0386 -0.1452
   78MOL    C8514099   5.968   4.817   2.762 -0.8764 -0.7250  0.3922
   78MOL    H8614100   6.223   4.855   2.786 -1.5538 -3.5767  0.6556
   78MOL    H8714101   6.194   4.926   2.633 -0.6102  0.0696  1.2962
   78MOL    H8814102   6.083   4.652   2.684 -1.7244 -0.2618 -0.1562
   78MOL    H8914103   5.919   4.908   2.726 -1.6463 -1.1566  0.3403
   78MOL    H9014104   5.897   4.740   2.791 -1.6267 -0.9554 -1.9585
   78MOL    H9114105   6.027   4.839   2.851  0.5094 -0.2522 -0.6235
   78MOL    C9214106   6.024   4.772   2.507  0.6432 -0.1726 -0.2587
   78MOL    C9314107   5.899   4.694   2.486  0.3432  0.0958 -0.0742
   78MOL    C9414108   5.769   4.776   2.487 -0.4613 -0.7541  0.5515
   78MOL    H9514109   6.000   4.877   2.493 -0.5579 -0.3467  0.3638
   78MOL    H9614110   6.105   4.738   2.443  0.0870 -0.2607 -0.9147
   78MOL    H9714111   5.865   4.624   2.562 -0.3434 -1.5553 -1.8486
   78MOL    H9814112   5.762   4.829   2.582 -0.9586  3.9532 -1.9920
   78MOL    H9914113   5.764   4.842   2.401  1.8650 -2.9196 -1.3126
   78MOL   H10014114   5.691   4.702   2.469  0.3665 -1.6725  0.6702
   78MOL   C10114115   5.918   4.597   2.367 -0.1604  0.2362  0.0127
   78MOL   C10214116   5.980   4.456   2.408 -0.9396 -0.1033  0.5061
   78MOL   C10314117   5.867   4.367   2.456 -0.2581 -0.6959 -0.5676
   78MOL   H10414118   5.826   4.582   2.311  0.1949 -0.2456 -0.4496
   78MOL   H10514119   5.984   4.644   2.294  1.7481  0.3970  1.7770
   78MOL   H10614120   6.047   4.482   2.490 -1.0815 -0.2885  0.6802
   78MOL   H10714121   5.916   4.273   2.482  1.9720 -0.8170 -4.7612
   78MOL   H10814122   5.817   4.408   2.544  2.5145  0.9943  0.3134
   78MOL   H10914123   5.791   4.359   2.379 -0.0929 -0.6582 -0.7366
   78MOL   C11014124   6.054   4.398   2.281  0.8279  0.2269  0.4065
   78MOL   C11114125   6.175   4.467   2.219  0.2977 -0.4121 -0.9062
   78MOL   C11214126   6.303   4.470   2.304  0.1046  0.7576 -0.4248
   78MOL   H11314127   6.089   4.296   2.293 -2.3007 -1.1054 -1.3175
   78MOL   H11414128   5.967   4.388   2.215  2.1878 -0.7885 -1.2632
   78MOL   H11514129   6.136   4.568   2.208 -1.2623 -0.8202  0.7091
   78MOL   H11614130   6.353   4.374   2.315  2.4789  1.9750 -0.2422
   78MOL   H11714131   6.385   4.529   2.262 -1.4309  1.4635 -2.4723
   78MOL   H11814132   6.278   4.514   2.400  0.5367 -0.2271  0.1415
   78MOL   C11914133   6.204   4.414   2.079  0.3274 -0.5101  0.3141
   78MOL   C12014134   6.260   4.268   2.075 -0.5321  0.9210 -0.3321
   78MOL   C12114135   6.149   4.174   2.016 -0.3921  0.3292  0.4026
   78MOL   H12214136   6.112   4.433   2.025 -0.2268  0.6024  1.6384
   78MOL   H12314137   6.277   4.479   2.031 -0.8836  0.8400  0.2683
   78MOL   H12414138   6.283   4.229   2.175  1.3623  4.1940  0.5763
   78MOL   H12514139   6.119   4.210   1.918  1.6735  2.2562  0.4314
   78MOL   H12614140   6.187   4.071   2.014 -2.0554 -0.3123  1.0321
   78MOL   H12714141   6.063   4.170   2.083 -0.0425  0.3348  0.8546
   78MOL   C12814142   6.387   4.259   1.986  0.8077 -0.0964  0.3796
   78MOL   C12914143   6.521   4.271   2.063 -0.5435  0.5700  0.4340
   78MOL   C13014144   6.550   4.148   2.157  0.2995  0.1112 -0.2371
   78MOL   H13114145   6.393   4.162   1.937 -4.3388  0.7813 -2.2799
   78MOL   H13214146   6.389   4.345   1.919 -3.1023 -1.8467 -2.1450
   78MOL   H13314147   6.516   4.360   2.126  0.8609  1.3993 -0.6203
   78MOL   H13414148   6.458   4.115   2.204  1.4550 -1.3124  1.1055
   78MOL   H13514149   6.591   4.069   2.095  0.8625  0.7853 -0.7284
   78MOL   H13614150   6.623   4.174   2.235 -0.8725 -0.5405  1.1008
   78MOL   C13714151   6.649   4.297   1.977  0.1786  0.7034 -0.1148
   78MOL   C13814152   6.760   4.379   2.061 -0.9408  0.1687 -0.2709
   78MOL   C13914153   6.896   4.362   2.000 -0.0833 -0.3378  0.1000
   78MOL   H14014154   6.690   4.197   1.967 -1.6315 -0.2225  1.4540
   78MOL   H14114155   6.637   4.338   1.876  3.0302  1.4038 -0.2147
   78MOL   H14214156   6.768   4.345   2.164  1.9166  1.6679  0.0663
   78MOL   H14314157   6.902   4.409   1.902 -1.0492 -0.5208 -0.0463
   78MOL   H14414158   6.985   4.394   2.056 -0.2090  1.0718 -0.4835
   78MOL   H14514159   6.919   4.257   1.986 -2.8742 -0.6701 -2.3595
   78MOL   C14614160   6.732   4.530   2.055  0.6399  0.3886  0.3037
   78MOL   C14714161   6.805   4.630   2.148 -0.0447  0.3273  0.6679
   78MOL   C14814162   6.761   4.779   2.104 -0.2169 -0.3330  0.6018
   78MOL   H14914163   6.741   4.571   1.955 -0.9967 -0.8177 -0.3555
   78MOL   H15014164   6.625   4.544   2.074  0.2766 -0.7662 -0.8234
   78MOL   H15114165   6.912   4.611   2.141 -0.1817 -0.4146  0.5857
   78MOL   H15214166   6.653   4.795   2.104 -0.0029  1.1611  0.4371
   78MOL   H15314167   6.805   4.852   2.173 -0.3306  0.9816 -0.6932
   78MOL   H15414168   6.791   4.804   2.003  0.2986  1.6699  1.2209
   78MOL   C15514169   6.767   4.607   2.301 -0.2100  0.1116 -0.6967
   78MOL   C15614170   6.840   4.680   2.422  1.3197 -0.5537  0.2481
   78MOL   C15714171   6.790   4.635   2.557  0.1250  0.3675 -0.1212
   78MOL   H15814172   6.659   4.621   2.308  0.1251  2.6066  0.0866
   78MOL   H15914173   6.774   4.500   2.317 -1.7102 -0.0776 -1.1543
   78MOL   H16014174   6.810   4.783   2.407  1.3526 -0.9016 -2.4402
   78MOL   H16114175   6.850   4.687   2.631  1.0058 -1.2848  0.3600
   78MOL   H16214176   6.684   4.662   2.561  0.1715  0.8482 -1.7590
   78MOL   H16314177   6.801   4.527   2.565 -1.3667  0.1927 -0.1644
   78MOL   C16414178   6.993   4.676   2.409  0.1213  0.0733  0.1205
   78MOL   C16514179   7.062   4.540   2.417  0.3527  0.8033 -0.7496
   78MOL   C16614180   7.198   4.551   2.335  0.5433 -0.0078 -0.5747
   78MOL   H16714181   7.025   4.732   2.321  3.2053 -1.8696 -0.0504
   78MOL   H16814182   7.039   4.744   2.481 -1.3287  0.2402  0.9325
   78MOL   H16914183   6.998   4.461   2.378 -2.1617  1.5032  1.7988
   78MOL   H17014184   7.243   4.462   2.291  1.2927 -0.0875  0.3287
   78MOL   H17114185   7.197   4.623   2.254  0.9760  1.2656  0.5359
   78MOL   H17214186   7.279   4.584   2.400 -0.1476 -0.9489  0.7926
   78MOL   C17314187   7.090   4.472   2.555 -0.1532 -0.6077  0.0909
   78MOL   C17414188   7.154   4.338   2.555  1.2734 -0.1939 -0.6409
   78MOL   C17514189   7.072   4.218   2.492 -0.3912  0.0715  0.3687
   78MOL   H17614190   7.145   4.540   2.619 -0.9067  0.7279 -0.6587
   78MOL   H17714191   6.997   4.462   2.612 -2.2718 -1.0733 -3.3018
   78MOL   H17814192   7.158   4.312   2.661  1.9936  0.8122 -0.4099
   78MOL   H17914193   7.085   4.211   2.384  3.4342  0.5084  0.7601
   78MOL   H18014194   7.096   4.120   2.532 -0.0475 -0.0088 -0.0288
   78MOL   H18114195   6.967   4.227   2.520 -0.2175 -0.6506  1.2659
   78MOL   H18214196   7.258   4.347   2.522  0.9860 -0.2858 -1.5785
   79MOL     C114197   0.608   7.134   5.285  0.4661 -0.6885  1.3100
   79MOL     C214198   0.512   7.237   5.216 -0.1060  0.2745 -0.0622
   79MOL     C314199   0.365   7.236   5.267  0.3595 -0.4562  0.4105
   79MOL     H414200   0.624   7.160   5.390 -0.2066 -0.7251  1.4219
   79MOL     H514201   0.709   7.138   5.245  0.7505  1.1064  2.1388
   79MOL     H614202   0.495   7.199   5.115  0.6752 -0.4434  0.0767
   79MOL     H714203   0.326   7.134   5.269  1.2408 -0.9175 -2.7068
   79MOL     H814204   0.369   7.283   5.365 -2.3809 -0.4222  0.5406
   79MOL     H914205   0.307   7.303   5.203 -1.6994 -0.8640  1.8117
   79MOL    H1014206   0.579   7.030   5.270  2.5749 -1.1167 -0.0554
   79MOL    C1114207   0.587   7.368   5.196 -0.1248 -0.4131 -0.0943
   79MOL    C1214208   0.520   7.475   5.102 -0.5876  0.4935 -0.3382
   79MOL    C1314209   0.572   7.613   5.130 -0.6156  0.0137 -0.1617
   79MOL    H1414210   0.625   7.412   5.288 -1.6266  2.7429 -0.9057
   79MOL    H1514211   0.685   7.344   5.153  0.2382  1.6546 -0.5097
   79MOL    H1614212   0.411   7.473   5.111 -0.6256  0.8818 -0.7218
   79MOL    H1714213   0.549   7.684   5.050  3.0764  1.6976  0.1367
   79MOL    H1814214   0.534   7.653   5.224 -0.1497  0.5569 -0.1983
   79MOL    H1914215   0.681   7.618   5.129 -0.4742 -2.1260  0.8868
   79MOL    C2014216   0.554   7.445   4.954 -0.5019  0.0735 -0.2284
   79MOL    C2114217   0.470   7.509   4.836 -0.5655 -0.0045 -0.5086
   79MOL    C2214218   0.554   7.522   4.708  0.4827  0.4181  0.2503
   79MOL    H2314219   0.659   7.467   4.938  0.0585 -1.5139  1.1096
   79MOL    H2414220   0.543   7.338   4.937 -1.9337 -0.0527  1.3002
   79MOL    H2514221   0.429   7.605   4.869  2.0522  1.4768 -1.3286
   79MOL    H2614222   0.524   7.606   4.646  0.0664  1.1671  1.4463
   79MOL    H2714223   0.659   7.537   4.733  0.4845 -0.7637  1.0285
   79MOL    H2814224   0.555   7.437   4.640 -0.1478  0.5392  0.0894
   79MOL    C2914225   0.343   7.422   4.800 -0.3001 -0.1012  0.2343
   79MOL    C3014226   0.241   7.475   4.699  0.7039 -0.1934  0.2080
   79MOL    C3114227   0.206   7.622   4.729  0.2393  0.2793  0.6016
   79MOL    H3214228   0.364   7.318   4.775 -0.0285 -0.1462  0.6593
   79MOL    H3314229   0.287   7.409   4.893 -3.5177  0.3276 -1.5457
   79MOL    H3414230   0.153   7.416   4.727  0.8020  0.0060  0.9255
   79MOL    H3514231   0.109   7.645   4.686  0.5980 -1.4920 -1.2045
   79MOL    H3614232   0.206   7.639   4.837 -0.5374 -1.1853  0.8377
   79MOL    H3714233   0.270   7.693   4.676  0.8723 -0.2332  0.6783
   79MOL    C3814234   0.260   7.427   4.551  0.1937 -0.3292  0.1165
   79MOL    C3914235   0.135   7.460   4.461 -0.3138  0.5068  0.3913
   79MOL    C4014236   0.185   7.470   4.317  0.1280 -0.4934 -0.1757
   79MOL    H4114237   0.349   7.475   4.511  0.6594 -3.0864 -2.3402
   79MOL    H4214238   0.278   7.320   4.540 -1.5159 -0.4704 -1.5844
   79MOL    H4314239   0.093   7.558   4.484  0.6374  1.0581 -0.1748
   79MOL    H4414240   0.230   7.567   4.301  0.0277 -0.3692  0.2930
   79MOL    H4514241   0.253   7.394   4.278  0.9648  0.5577 -0.7616
   79MOL    H4614242   0.100   7.477   4.248  0.0996 -0.2337 -0.1125
   79MOL    C4714243   0.027   7.347   4.473  0.3891  0.7459 -0.1660
   79MOL    C4814244   7.592   7.382   4.552  0.2712  0.7238 -0.2825
   79MOL    C4914245   7.492   7.471   4.461  0.5706  1.1177 -0.5279
   79MOL    H5014246   7.691   7.316   4.374 -0.7748 -1.4115  0.8755
   79MOL    H5114247   0.080   7.262   4.515 -0.6661  1.3558  2.4397
   79MOL    H5214248   7.625   7.438   4.639  1.3814 -1.6238  0.8530
   79MOL    H5314249   7.542   7.535   4.389  0.6949  0.5473 -0.9578
   79MOL    H5414250   7.425   7.417   4.393  1.3021 -0.0129 -0.3512
   79MOL    H5514251   7.434   7.532   4.530  0.3564  0.8005 -0.4297
   79MOL    C5614252   7.519   7.251   4.601  0.3032  0.4077 -0.4695
   79MOL    C5714253   7.583   7.181   4.730 -0.2812  0.1688  0.1879
   79MOL    C5814254   7.556   7.272   4.846  0.1054 -0.8451 -0.0437
   79MOL    H5914255   7.413   7.268   4.620  0.3447 -0.9315  1.0815
   79MOL    H6014256   7.523   7.174   4.524 -1.0218 -1.6131  1.4200
   79MOL    H6114257   7.692   7.183   4.723 -0.0441 -0.7808  3.2467
   79MOL    H6214258   7.618   7.234   4.927  0.2312 -1.1079 -0.2578
   79MOL    H6314259   7.587   7.376   4.836 -1.3442 -0.3987  0.0666
   79MOL    H6414260   7.455   7.278   4.886 -0.3108 -0.3912 -1.1218
   79MOL    C6514261   7.527   7.036   4.749 -0.1719 -0.3276  0.5023
   79MOL    C6614262   7.566   6.957   4.878 -0.5865  0.0793  0.5117
   79MOL    C6714263   7.463   6.845   4.905  0.3031 -0.1244 -0.2460
   79MOL    H6814264   7.419   7.053   4.753  0.0667  1.3182  0.3861
   79MOL    H6914265   7.534   6.970   4.663 -2.0468 -1.2401  1.0386
   79MOL    H7014266   7.558   7.025   4.962 -0.2230  0.9108 -0.1201
   79MOL    H7114267   7.461   6.772   4.825  1.6913  0.6919 -1.0496
   79MOL    H7214268   7.476   6.799   5.003  0.0299 -1.0500 -0.6385
   79MOL    H7314269   7.369   6.899   4.903 -0.4214 -1.4375 -4.3906
   79MOL    C7414270   0.008   6.886   4.878 -0.2898 -0.3730 -0.4814
   79MOL    C7514271   0.136   6.961   4.896 -1.1024  0.7738 -0.1641
   79MOL    C7614272   0.153   7.037   5.027  0.3766  0.0648 -0.7455
   79MOL    H7714273   7.697   6.806   4.951 -0.9676  0.0687 -0.0672
   79MOL    H7814274   0.014   6.831   4.784  3.4442 -1.4305  0.2798
   79MOL    H7914275   0.131   7.037   4.817 -0.5933  0.6493 -0.3183
   79MOL    H8014276   0.060   7.091   5.048  1.4619  0.7308  2.6748
   79MOL    H8114277   0.159   6.973   5.115  4.5768  1.6153  0.1936
   79MOL    H8214278   0.237   7.105   5.035 -1.7727  2.8145 -0.8088
   79MOL    C8314279   0.269   6.880   4.864  0.4845  0.6432 -0.1081
   79MOL    C8414280   0.271   6.791   4.740 -0.0621  0.3133 -0.2116
   79MOL    C8514281   0.247   6.870   4.615 -0.9196  0.2413 -0.2845
   79MOL    H8614282   0.357   6.944   4.861  0.9860 -0.0535 -0.5291
   79MOL    H8714283   0.287   6.817   4.952 -1.6264  0.1244 -0.0134
   79MOL    H8814284   0.188   6.722   4.755 -0.3424  0.4574 -1.0328
   79MOL    H8914285   0.153   6.926   4.614 -0.4436  1.0427 -0.3368
   79MOL    H9014286   0.328   6.941   4.599 -0.2073 -0.4337  0.2577
   79MOL    H9114287   0.260   6.809   4.525  2.7629  0.6040 -0.0612
   79MOL    C9214288   0.403   6.702   4.735  0.8282  0.1014  0.1582
   79MOL    C9314289   0.417   6.579   4.840  0.0528  0.2359  0.5022
   79MOL    C9414290   0.315   6.463   4.806  0.0948 -0.4668  0.5414
   79MOL    H9514291   0.414   6.655   4.638 -0.7542 -1.3977  0.6724
   79MOL    H9614292   0.483   6.773   4.754  1.6497 -0.2500 -1.8861
   79MOL    H9714293   0.384   6.599   4.942 -0.2753  1.4769  0.1585
   79MOL    H9814294   0.318   6.375   4.871  2.4275 -0.3996  0.5774
   79MOL    H9914295   0.218   6.505   4.829  0.2177  0.8164 -1.1938
   79MOL   H10014296   0.318   6.419   4.706 -0.1789  0.8496 -0.0593
   79MOL   C10114297   0.563   6.515   4.842  0.1329 -0.5492  0.6521
   79MOL   C10214298   0.638   6.548   4.979 -0.6396 -0.1433 -0.5970
   79MOL   C10314299   0.650   6.699   5.006 -0.1666  0.5600 -0.8677
   79MOL   H10414300   0.565   6.410   4.812  0.0980 -0.2141 -0.5519
   79MOL   H10514301   0.621   6.566   4.765 -0.0787 -0.0869  0.7942
   79MOL   H10614302   0.739   6.511   4.961 -0.7629 -1.7578  1.7751
   79MOL   H10714303   0.717   6.703   5.092  0.7811  0.8623 -1.6238
   79MOL   H10814304   0.697   6.754   4.925  2.5402 -0.2450  0.0841
   79MOL   H10914305   0.557   6.742   5.044 -0.7911 -0.5139 -1.1634
   79MOL   C11014306   0.586   6.475   5.101 -0.0555  0.9593  0.0826
   79MOL   C11114307   0.692   6.429   5.210 -0.3516  0.2942 -0.0073
   79MOL   C11214308   0.616   6.400   5.342 -0.2877  0.5352 -0.6600
   79MOL   H11314309   0.525   6.550   5.150  1.3989  0.5660  2.5496
   79MOL   H11414310   0.521   6.390   5.080  2.8806 -0.9594 -1.7296
   79MOL   H11514311   0.754   6.515   5.230 -1.9960  2.0760 -2.2350
   79MOL   H11614312   0.545   6.482   5.357  1.4948  2.2554 -1.5328
   79MOL   H11714313   0.553   6.312   5.330 -0.3007  0.5581 -0.7566
   79MOL   H11814314   0.690   6.380   5.420 -1.6347 -1.1252  0.2368
   79MOL   C11914315   0.777   6.312   5.162  0.5381  0.1607  0.2101
   79MOL   C12014316   0.874   6.247   5.273  0.8902 -0.1757 -0.3942
   79MOL   C12114317   0.860   6.094   5.273 -0.0652 -0.7345  0.6505
   79MOL   H12214318   0.708   6.231   5.140  1.7710 -1.1013  0.8955
   79MOL   H12314319   0.829   6.327   5.067 -1.6862  0.2584 -1.0206
   79MOL   H12414320   0.858   6.271   5.379 -1.1101  1.2522 -0.9931
   79MOL   H12514321   0.934   6.045   5.336 -1.0703 -3.3732 -0.1464
   79MOL   H12614322   0.758   6.064   5.297 -1.3692  2.4761 -0.5054
   79MOL   H12714323   0.885   6.063   5.172 -0.9209 -1.4539  0.6488
   79MOL   C12814324   1.031   6.266   5.244  0.1769 -0.1646 -0.0857
   79MOL   C12914325   1.082   6.416   5.242  0.9444  0.4542 -0.2230
   79MOL   C13014326   1.058   6.471   5.393  0.0848 -0.1273 -0.1389
   79MOL   H13114327   1.093   6.214   5.317  1.2405  2.4695  0.9281
   79MOL   H13214328   1.060   6.222   5.149 -0.0723  1.0221 -0.7159
   79MOL   H13314329   1.029   6.470   5.163  1.9068  0.5852 -0.7831
   79MOL   H13414330   1.101   6.406   5.470 -0.1557 -0.1133  0.0082
   79MOL   H13514331   1.102   6.568   5.416 -0.7895 -0.1449  1.7092
   79MOL   H13614332   0.953   6.487   5.418  0.8036 -0.3380  3.2483
   79MOL   C13714333   1.230   6.406   5.201 -0.3696  0.2778  0.5876
   79MOL   C13814334   1.302   6.545   5.179 -0.4334 -0.1025 -0.2061
   79MOL   C13914335   1.450   6.520   5.140  0.1259 -0.0352 -0.1391
   79MOL   H14014336   1.277   6.346   5.279 -0.3993 -0.0255  0.3731
   79MOL   H14114337   1.245   6.350   5.109 -3.0749  1.5718 -0.7060
   79MOL   H14214338   1.296   6.596   5.275 -1.7762 -0.1330 -0.2724
   79MOL   H14314339   1.513   6.478   5.218 -0.4357 -1.0397 -0.2238
   79MOL   H14414340   1.456   6.451   5.056  0.2475  0.6255 -0.6873
   79MOL   H14514341   1.508   6.611   5.121 -0.5380  0.3923 -0.1631
   79MOL   C14614342   1.236   6.639   5.069  0.8567  0.2796 -0.3076
   79MOL   C14714343   1.233   6.585   4.927 -0.4073 -0.0686 -0.2255
   79MOL   C14814344   1.099   6.529   4.894  0.3922 -0.3863 -0.0355
   79MOL   H14914345   1.133   6.656   5.100  0.9444 -1.6326  1.1060
   79MOL   H15014346   1.288   6.731   5.095  1.9030  0.1672 -1.9262
   79MOL   H15114347   1.301   6.501   4.918 -1.0080 -0.7142  1.0851
   79MOL   H15214348   1.095   6.497   4.790  2.9232 -0.0268 -0.2731
   79MOL   H15314349   1.064   6.443   4.950 -0.6560 -1.4005 -2.2197
   79MOL   H15414350   1.025   6.609   4.906 -0.9970 -1.3429 -1.9409
   79MOL   C15514351   1.271   6.700   4.824 -0.2953 -0.2064  0.4420
   79MOL   C15614352   1.418   6.746   4.838 -0.1765 -0.2093  0.3016
   79MOL   C15714353   1.516   6.636   4.803  0.1461 -0.2214  0.5338
   79MOL   H15814354   1.248   6.670   4.722  0.5637  1.9720 -0.4105
   79MOL   H15914355   1.202   6.783   4.837  0.5920  0.4436  1.0299
   79MOL   H16014356   1.442   6.760   4.944 -0.5747 -1.6380  0.5993
   79MOL   H16114357   1.507   6.546   4.863 -1.2337 -0.4728 -0.0288
   79MOL   H16214358   1.487   6.610   4.701  2.7226 -1.0517 -0.0005
   79MOL   H16314359   1.617   6.677   4.807 -0.0362  0.5271 -1.5537
   79MOL   C16414360   1.447   6.872   4.745 -0.7852  0.4140  0.3052
   79MOL   C16514361   1.382   7.003   4.790 -0.3935  0.5535  0.9958
   79MOL   C16614362   1.425   7.034   4.936  0.1111  0.2701  0.4202
   79MOL   H16714363   1.555   6.887   4.743 -0.5081 -1.2645  1.5964
   79MOL   H16814364   1.422   6.849   4.642 -0.3694 -1.5737  0.6235
   79MOL   H16914365   1.273   6.998   4.785 -0.4612  3.5359 -2.1518
   79MOL   H17014366   1.385   6.961   5.006 -0.8605  1.2984  0.9403
   79MOL   H17114367   1.532   7.052   4.947  0.4450 -1.5937  0.3495
   79MOL   H17214368   1.370   7.121   4.972 -2.1153  0.0558 -2.2744
   79MOL   C17314369   1.412   7.126   4.702 -0.0686  0.0044  0.2082
   79MOL   C17414370   1.354   7.113   4.553 -0.0674  0.4412  0.7027
   79MOL   C17514371   1.423   7.225   4.469  0.0630  0.3040  1.0170
   79MOL   H17614372   1.370   7.219   4.742 -0.9182 -0.7349  1.0512
   79MOL   H17714373   1.520   7.124   4.693 -0.1922 -3.1747 -1.0308
   79MOL   H17814374   1.246   7.127   4.557 -0.0018  1.4254 -0.5895
   79MOL   H17914375   1.374   7.233   4.372  1.1024 -1.6209  0.3031
   79MOL   H18014376   1.431   7.323   4.517 -0.1662  1.0850 -0.5119
   79MOL   H18114377   1.529   7.200   4.461  0.4213  1.4603  1.9667
   79MOL   H18214378   1.370   7.012   4.515 -3.5847 -0.0814  0.4727
   80MOL     C114379   0.240   6.376   5.642 -0.3550  0.3504  0.5502
   80MOL     C214380   0.395   6.370   5.630  0.0760 -1.2197  0.0320
   80MOL     C314381   0.444   6.518   5.645 -0.6297 -0.5519  0.7940
   80MOL     H414382   0.198   6.275   5.650  0.3023 -0.2357 -2.8817
   80MOL     H514383   0.190   6.427   5.560  1.9370  0.7138 -0.6675
   80MOL     H614384   0.421   6.345   5.527 -1.4221 -6.1662  0.7355
   80MOL     H714385   0.441   6.543   5.750  1.6071  0.0955  0.7330
   80MOL     H814386   0.547   6.522   5.611 -0.8490 -0.6996  0.0843
   80MOL     H914387   0.377   6.578   5.583 -0.9129 -0.4587  1.1889
   80MOL    H1014388   0.208   6.434   5.729  0.6611  1.3064  0.2950
   80MOL    C1114389   0.464   6.275   5.727 -0.0612 -0.7242  0.7751
   80MOL    C1214390   0.441   6.121   5.709 -1.2338 -0.5259  0.7154
   80MOL    C1314391   0.524   6.071   5.592  0.3422 -0.2882  0.1890
   80MOL    H1414392   0.568   6.304   5.740  0.1775 -0.7619 -0.9069
   80MOL    H1514393   0.442   6.296   5.831 -0.0744 -2.8583  1.2347
   80MOL    H1614394   0.341   6.096   5.675  0.1295 -0.9983 -3.2115
   80MOL    H1714395   0.628   6.090   5.617  0.7615 -1.7698 -0.3980
   80MOL    H1814396   0.503   5.966   5.575 -2.6905 -0.1639  2.5663
   80MOL    H1914397   0.502   6.123   5.499 -0.1531  1.0642  1.0380
   80MOL    C2014398   0.474   6.030   5.826 -1.0805 -0.6922  0.0648
   80MOL    C2114399   0.400   6.070   5.956 -0.1347  0.4868  0.9198
   80MOL    C2214400   0.247   6.078   5.929 -0.8123 -0.1051  0.2955
   80MOL    H2314401   0.454   5.928   5.794  1.1962 -1.8520  2.1641
   80MOL    H2414402   0.579   6.054   5.845 -1.4940  1.1371  0.1648
   80MOL    H2514403   0.429   6.166   6.000 -0.6142  0.8887  0.3640
   80MOL    H2614404   0.223   6.153   5.854  1.5349  0.7781  0.3901
   80MOL    H2714405   0.218   5.979   5.893 -1.6606 -0.0707  0.8735
   80MOL    H2814406   0.185   6.098   6.017 -1.8165 -1.5293 -0.0581
   80MOL    C2914407   0.417   5.970   6.073 -0.4303  0.3431 -0.0463
   80MOL    C3014408   0.552   5.963   6.149 -0.3439 -0.2854  0.0355
   80MOL    C3114409   0.588   6.088   6.232 -0.0176 -0.0490 -0.1592
   80MOL    H3214410   0.341   5.969   6.151  0.5719  0.8983  0.9619
   80MOL    H3314411   0.407   5.872   6.027 -1.1538  0.2593  0.2743
   80MOL    H3414412   0.638   5.967   6.082  0.6676 -0.8575  1.2604
   80MOL    H3514413   0.516   6.108   6.311  0.1288  0.8424 -0.2513
   80MOL    H3614414   0.689   6.088   6.272 -0.9431 -1.7754  2.3224
   80MOL    H3714415   0.581   6.171   6.162 -0.1434  0.7162  0.7493
   80MOL    C3814416   0.552   5.828   6.240  0.0167 -0.4022  0.3374
   80MOL    C3914417   0.671   5.739   6.226 -0.0707  0.3772 -0.5550
   80MOL    C4014418   0.663   5.635   6.326  0.4213 -0.3405 -0.1765
   80MOL    H4114419   0.531   5.861   6.342 -0.2503  0.2027  0.0842
   80MOL    H4214420   0.457   5.779   6.218  0.4866 -1.4327  0.5458
   80MOL    H4314421   0.755   5.806   6.243  0.8159 -0.5995 -1.0467
   80MOL    H4414422   0.665   5.686   6.422  2.9648  0.5409 -0.6420
   80MOL    H4514423   0.574   5.573   6.319 -1.1253  1.8613 -0.5657
   80MOL    H4614424   0.742   5.560   6.338  0.1873 -0.6524 -0.5736
   80MOL    C4714425   0.682   5.679   6.084  0.6273 -0.0093 -0.2394
   80MOL    C4814426   0.812   5.609   6.046  0.2079 -0.5529  0.3216
   80MOL    C4914427   0.800   5.452   6.041  0.1600 -0.1568  0.5703
   80MOL    H5014428   0.599   5.609   6.084  0.8764 -0.3274 -1.6057
   80MOL    H5114429   0.645   5.747   6.007 -1.3588 -0.3726  0.3615
   80MOL    H5214430   0.883   5.636   6.124 -0.1372  0.3591  0.3201
   80MOL    H5314431   0.885   5.409   5.988  1.4033  0.8140  1.7252
   80MOL    H5414432   0.776   5.422   6.143 -1.7922  1.2171  0.5494
   80MOL    H5514433   0.716   5.413   5.984 -0.1633  1.7449 -0.2703
   80MOL    C5614434   0.885   5.648   5.907  0.2774 -0.5160 -0.6505
   80MOL    C5714435   0.921   5.797   5.891 -0.2949 -0.4281  0.9803
   80MOL    C5814436   1.014   5.844   6.006  0.3578 -0.7286  0.0794
   80MOL    H5914437   0.974   5.586   5.895  1.1217  0.3169  1.1511
   80MOL    H6014438   0.830   5.609   5.821  1.1326  0.6150 -1.7420
   80MOL    H6114439   0.834   5.861   5.875  0.4550 -0.4661 -3.8628
   80MOL    H6214440   1.100   5.904   5.976  2.5700 -3.1040  1.4528
   80MOL    H6314441   0.954   5.901   6.077 -2.3760 -3.6506  0.1796
   80MOL    H6414442   1.061   5.761   6.058  2.8282  1.0781  0.8738
   80MOL    C6514443   1.004   5.813   5.759  0.3089  0.4736  0.1978
   80MOL    C6614444   0.946   5.776   5.623 -0.6189  0.4605  0.3299
   80MOL    C6714445   0.823   5.858   5.591  0.1999 -0.0998  0.5505
   80MOL    H6814446   1.027   5.919   5.749 -1.0490  0.8129  0.5989
   80MOL    H6914447   1.095   5.754   5.768  0.6106  1.1358  1.5392
   80MOL    H7014448   0.916   5.671   5.630 -2.0297  1.0336  4.0430
   80MOL    H7114449   0.748   5.840   5.668 -2.2228  0.6048 -1.5740
   80MOL    H7214450   0.833   5.966   5.582 -2.0789  0.0166 -1.2289
   80MOL    H7314451   0.772   5.822   5.501 -0.0679 -1.5297  1.2654
   80MOL    C7414452   1.057   5.770   5.514  0.4897 -0.4361  0.0617
   80MOL    C7514453   1.010   5.741   5.372 -0.1783  0.6855  0.3446
   80MOL    C7614454   1.110   5.788   5.264 -0.3101  0.1914  0.3623
   80MOL    H7714455   1.108   5.866   5.523 -1.5759  0.7427 -0.4556
   80MOL    H7814456   1.130   5.694   5.544 -1.2574 -1.6075  1.4823
   80MOL    H7914457   0.926   5.808   5.357 -1.4466 -1.3947 -2.4623
   80MOL    H8014458   1.146   5.891   5.266  1.2181 -0.3123 -0.1469
   80MOL    H8114459   1.191   5.715   5.260 -1.9244 -1.6212  0.3059
   80MOL    H8214460   1.069   5.778   5.163 -0.1886  0.8693  0.2384
   80MOL    C8314461   0.968   5.588   5.365  0.3959  0.5303 -0.7638
   80MOL    C8414462   0.828   5.555   5.310 -0.4334  0.3335  0.3632
   80MOL    C8514463   0.830   5.572   5.158  0.2807  0.4338  0.7857
   80MOL    H8614464   1.037   5.531   5.303  1.2782  0.2841  0.4419
   80MOL    H8714465   0.991   5.541   5.460 -0.4906 -0.7904 -1.1777
   80MOL    H8814466   0.751   5.626   5.339 -0.9104 -0.9912  2.4989
   80MOL    H8914467   0.867   5.481   5.112  0.6393  0.6959  0.5622
   80MOL    H9014468   0.729   5.578   5.117  0.0033 -1.5611  1.1254
   80MOL    H9114469   0.887   5.657   5.122 -0.4094  1.0054  1.0075
   80MOL    C9214470   0.777   5.413   5.354 -0.3785  0.1546 -0.6209
   80MOL    C9314471   0.712   5.405   5.495  0.5163  0.4315  0.1144
   80MOL    C9414472   0.823   5.360   5.595  0.2110  0.1513 -0.3216
   80MOL    H9514473   0.701   5.376   5.285  0.7827 -0.0739 -1.7931
   80MOL    H9614474   0.849   5.331   5.344 -0.7165 -0.1932 -0.2476
   80MOL    H9714475   0.645   5.319   5.487  0.6330  0.1094  2.2910
   80MOL    H9814476   0.899   5.301   5.544  1.5802  2.1474 -0.6508
   80MOL    H9914477   0.874   5.445   5.640  1.2216 -1.8453  2.4761
   80MOL   H10014478   0.782   5.321   5.688 -0.8431  0.2122 -0.7533
   80MOL   C10114479   0.621   5.520   5.544  0.1375 -0.3979  0.1086
   80MOL   C10214480   0.544   5.503   5.677  0.1094 -0.2157  0.4525
   80MOL   C10314481   0.457   5.627   5.706 -0.3881 -0.8880  0.1899
   80MOL   H10414482   0.693   5.601   5.554 -0.2880 -0.0615  0.4890
   80MOL   H10514483   0.551   5.541   5.463  0.0360 -0.0681  0.2842
   80MOL   H10614484   0.622   5.490   5.753  0.4811  1.1877  0.3187
   80MOL   H10714485   0.411   5.629   5.805 -0.7853 -0.5260 -0.0029
   80MOL   H10814486   0.505   5.721   5.681  0.6565 -1.7836 -1.2231
   80MOL   H10914487   0.377   5.621   5.632  2.1965 -0.2210 -2.7591
   80MOL   C11014488   0.469   5.369   5.672  0.3126 -0.2084 -1.0024
   80MOL   C11114489   0.351   5.341   5.768 -0.3182 -0.4003  0.7119
   80MOL   C11214490   0.281   5.210   5.737 -0.4374 -0.6534 -0.0358
   80MOL   H11314491   0.425   5.364   5.572  1.7189 -0.0348 -1.6496
   80MOL   H11414492   0.539   5.286   5.681 -0.3721 -0.6308  0.5083
   80MOL   H11514493   0.285   5.427   5.754 -0.6437 -0.3092  2.6052
   80MOL   H11614494   0.215   5.183   5.819  0.4527  2.3697  1.7437
   80MOL   H11714495   0.231   5.222   5.641  0.8547  0.1607 -0.6256
   80MOL   H11814496   0.360   5.135   5.732  0.4075  0.2914 -1.3803
   80MOL   C11914497   0.389   5.351   5.918 -0.1604  0.6413 -0.0290
   80MOL   C12014498   0.279   5.352   6.026  0.2237 -0.4798  0.6500
   80MOL   C12114499   0.282   5.208   6.095  0.4361 -0.0000 -0.0637
   80MOL   H12214500   0.473   5.283   5.932 -0.5217  0.3526  0.8044
   80MOL   H12314501   0.449   5.441   5.932  1.6516 -0.7696  1.3656
   80MOL   H12414502   0.185   5.389   5.984  0.0318  0.3053  1.7418
   80MOL   H12514503   0.253   5.129   6.025  1.0382 -0.2937  0.0212
   80MOL   H12614504   0.386   5.191   6.122 -0.4077 -3.2869  1.3237
   80MOL   H12714505   0.222   5.205   6.186  0.1216  0.2139 -0.2631
   80MOL   C12814506   0.307   5.466   6.126  0.0344 -0.6345  0.6402
   80MOL   C12914507   0.199   5.485   6.235  0.1491 -0.4033  0.4646
   80MOL   C13014508   0.250   5.542   6.367 -0.0842  0.1691  0.2419
   80MOL   H13114509   0.403   5.448   6.173  0.5074 -1.8905 -0.7547
   80MOL   H13214510   0.319   5.558   6.070  1.0197 -1.0868  0.0960
   80MOL   H13314511   0.141   5.395   6.254 -1.0347  0.4878  1.1563
   80MOL   H13414512   0.299   5.639   6.362 -0.7030  0.5291  1.0998
   80MOL   H13514513   0.166   5.553   6.436 -0.6493  2.2273 -0.7528
   80MOL   H13614514   0.311   5.466   6.417 -0.1595 -0.4038 -0.5335
   80MOL   C13714515   0.084   5.574   6.178  0.2249  0.3103 -0.0155
   80MOL   C13814516   7.644   5.568   6.244 -0.3543 -0.6170 -0.3037
   80MOL   C13914517   7.551   5.683   6.199 -0.0108 -0.1528  0.0875
   80MOL   H14014518   0.109   5.678   6.162 -0.0650  0.6088  1.4044
   80MOL   H14114519   0.076   5.549   6.072 -1.1760  1.6873 -0.2536
   80MOL   H14214520   7.656   5.583   6.351  0.0810 -0.3722 -0.3841
   80MOL   H14314521   7.597   5.780   6.217 -0.3852  0.2385 -1.0120
   80MOL   H14414522   7.534   5.675   6.091 -0.5010 -1.6876  0.2633
   80MOL   H14514523   7.457   5.667   6.252  0.1103 -1.9495 -0.2067
   80MOL   C14614524   7.563   5.438   6.221 -0.0201  0.3534  0.3291
   80MOL   C14714525   7.571   5.317   6.319  0.6232  0.1969  0.0595
   80MOL   C14814526   7.579   5.364   6.464 -0.0294  0.1900  0.5009
   80MOL   H14914527   7.455   5.448   6.210 -0.2388 -3.1295 -1.5965
   80MOL   H15014528   7.589   5.409   6.120  0.8770  0.3158  0.5672
   80MOL   H15114529   7.665   5.268   6.294  0.3746  0.3064 -1.1029
   80MOL   H15214530   7.676   5.408   6.488  0.3840 -1.2883  1.6609
   80MOL   H15314531   7.502   5.439   6.480 -1.5132 -1.2513  0.2566
   80MOL   H15414532   7.562   5.296   6.548  5.5572 -0.4121  1.4020
   80MOL   C15514533   7.458   5.210   6.299 -0.4234 -0.6000 -0.5244
   80MOL   C15614534   7.443   5.146   6.153  1.0102 -0.0456  0.5962
   80MOL   C15714535   7.581   5.108   6.094  0.6281  0.3950  0.4821
   80MOL   H15814536   7.498   5.131   6.362 -3.5037 -0.5376  1.6355
   80MOL   H15914537   7.368   5.244   6.351 -0.6027 -0.3793 -0.9774
   80MOL   H16014538   7.401   5.222   6.087  2.1983 -1.1406 -1.4614
   80MOL   H16114539   7.641   5.052   6.165  0.0064 -0.6944  0.1588
   80MOL   H16214540   7.556   5.048   6.006 -1.5564  3.5493 -1.1539
   80MOL   H16314541   7.644   5.192   6.063  0.6932  0.3191  0.4155
   80MOL   C16414542   7.346   5.028   6.136  0.4311  0.2779 -0.3715
   80MOL   C16514543   7.207   5.041   6.205  0.4995 -0.5359 -0.1988
   80MOL   C16614544   7.114   5.149   6.152 -1.0278 -0.5355  0.2725
   80MOL   H16714545   7.319   5.014   6.032 -2.3574  1.3143  0.1746
   80MOL   H16814546   7.403   4.936   6.155 -0.2984  0.3955  2.7339
   80MOL   H16914547   7.221   5.064   6.310 -2.3817 -1.9339  0.5310
   80MOL   H17014548   7.033   5.154   6.225  0.7768  1.4225  2.2121
   80MOL   H17114549   7.152   5.252   6.156 -1.7392 -0.2145 -0.9026
   80MOL   H17214550   7.081   5.127   6.050  1.7665 -0.1183 -0.7792
   80MOL   C17314551   7.131   4.906   6.190  0.2007  0.1970 -1.2880
   80MOL   C17414552   7.164   4.785   6.282  0.0290 -0.2429  0.0457
   80MOL   C17514553   7.156   4.824   6.438  0.1395  0.1732  1.7181
   80MOL   H17614554   7.023   4.921   6.195  0.3776  1.0647  0.3998
   80MOL   H17714555   7.145   4.880   6.085  1.9164  0.9134 -1.2423
   80MOL   H17814556   7.265   4.755   6.254  1.1461  3.6791 -0.3466
   80MOL   H17914557   7.180   4.740   6.504 -1.1061 -2.0057 -0.5068
   80MOL   H18014558   7.209   4.918   6.455 -0.4328  0.5602  1.3860
   80MOL   H18114559   7.053   4.860   6.448  0.9899  3.4498 -0.5748
   80MOL   H18214560   7.100   4.699   6.258  0.6064 -0.3081 -1.2867
   81MOL     C114561   0.249   7.281   6.874 -0.1534  0.7660  0.5916
   81MOL     C214562   0.242   7.305   7.023  0.8150 -0.2709 -0.4818
   81MOL     C314563   0.105   7.273   7.091 -0.3468 -0.0679  0.2666
   81MOL     H414564   0.245   7.176   6.847 -3.3233  1.2126 -0.9121
   81MOL     H514565   0.343   7.316   6.832  0.5521 -1.9356 -0.1736
   81MOL     H614566   0.244   7.414   7.026 -1.0257 -0.1775 -1.7680
   81MOL     H714567   0.022   7.335   7.059  1.0583  2.1965  0.8578
   81MOL     H814568   0.086   7.169   7.062  0.3558  0.6431 -2.9856
   81MOL     H914569   0.112   7.273   7.200  0.7762 -0.2220  0.2037
   81MOL    H1014570   0.170   7.334   6.820  0.2893  2.6073  1.7010
   81MOL    C1114571   0.374   7.248   7.094 -0.0054 -0.4850  0.3678
   81MOL    C1214572   0.512   7.328   7.091 -0.4506  0.2410 -0.4775
   81MOL    C1314573   0.500   7.451   7.182  0.5057 -0.2938 -0.0433
   81MOL    H1414574   0.342   7.234   7.198 -0.5801 -1.9713  0.0108
   81MOL    H1514575   0.389   7.148   7.053  1.6869 -0.3391  0.6111
   81MOL    H1614576   0.540   7.345   6.987 -2.9511  0.3591 -1.1636
   81MOL    H1714577   0.460   7.423   7.279 -1.3474 -0.4718 -0.8287
   81MOL    H1814578   0.598   7.492   7.206 -0.0563 -0.1547  2.0496
   81MOL    H1914579   0.446   7.535   7.140  0.8029 -0.9549 -1.8273
   81MOL    C2014580   0.624   7.236   7.147  0.3695  0.7370 -0.8038
   81MOL    C2114581   0.649   7.104   7.087 -0.5282 -0.8296  0.6357
   81MOL    C2214582   0.674   7.112   6.930 -0.4059 -0.0953 -0.1411
   81MOL    H2314583   0.719   7.288   7.145  0.8914 -0.0481  1.5707
   81MOL    H2414584   0.599   7.220   7.252 -1.3978  0.3861 -1.2620
   81MOL    H2514585   0.563   7.039   7.104 -1.8563  0.7553  0.0561
   81MOL    H2614586   0.767   7.164   6.905 -0.4016 -0.3904 -0.7477
   81MOL    H2714587   0.676   7.007   6.900 -1.2953 -0.3158  0.5600
   81MOL    H2814588   0.601   7.172   6.876  0.8812  1.1820 -0.5205
   81MOL    C2914589   0.771   7.036   7.161 -0.1224 -0.2170 -0.2114
   81MOL    C3014590   0.795   6.886   7.158  0.1126 -0.4663  0.4421
   81MOL    C3114591   0.655   6.819   7.177  0.2744 -0.9210  0.0582
   81MOL    H3214592   0.862   7.085   7.128 -0.7454  1.0009 -0.1565
   81MOL    H3314593   0.753   7.058   7.266  1.0099  2.3676 -0.5114
   81MOL    H3414594   0.856   6.862   7.245  1.1412 -0.1244 -0.1753
   81MOL    H3514595   0.588   6.832   7.092  0.3242  0.0906  0.1650
   81MOL    H3614596   0.666   6.711   7.184  3.5612 -0.6236  0.6251
   81MOL    H3714597   0.605   6.851   7.269  0.6437 -0.6141  0.1576
   81MOL    C3814598   0.861   6.827   7.023  0.5189  0.5584  0.3888
   81MOL    C3914599   0.993   6.884   6.969  0.8291  0.0381  0.0604
   81MOL    C4014600   1.110   6.841   7.057  0.2751  0.1374 -0.0176
   81MOL    H4114601   0.885   6.722   7.044  2.1898  1.1218  1.3568
   81MOL    H4214602   0.790   6.830   6.941 -0.7964 -0.4592  1.4689
   81MOL    H4314603   0.978   6.992   6.964  0.5037 -0.0375 -0.7496
   81MOL    H4414604   1.081   6.848   7.161  2.0683  0.6693  0.4676
   81MOL    H4514605   1.127   6.735   7.037  1.0891  0.6381 -2.1226
   81MOL    H4614606   1.197   6.902   7.031  0.2224  0.6026  0.9045
   81MOL    C4714607   1.009   6.844   6.822  0.6174 -0.3049  0.2549
   81MOL    C4814608   1.002   6.953   6.716 -0.2484  0.4133  0.1656
   81MOL    C4914609   1.128   7.046   6.723  0.4844 -0.5199 -0.4242
   81MOL    H5014610   1.100   6.787   6.803  0.6555  0.4273 -1.7872
   81MOL    H5114611   0.927   6.775   6.803 -0.6997  1.3844 -0.2901
   81MOL    H5214612   0.908   7.001   6.742  0.4130  1.0147  1.5089
   81MOL    H5314613   1.138   7.099   6.818  0.3471 -0.2113 -0.5809
   81MOL    H5414614   1.218   6.989   6.702  1.6400  0.6404  1.2306
   81MOL    H5514615   1.125   7.122   6.645  1.9627  0.4708  0.4457
   81MOL    C5614616   0.976   6.884   6.580 -0.4253  0.0333  0.2745
   81MOL    C5714617   0.925   6.969   6.459 -0.1933 -0.1429  0.3073
   81MOL    C5814618   0.798   7.044   6.497  0.1158 -0.3785  0.2716
   81MOL    H5914619   1.068   6.836   6.545  0.1770  1.4812 -0.1780
   81MOL    H6014620   0.907   6.800   6.584 -0.1282 -0.3207 -1.7070
   81MOL    H6114621   0.900   6.895   6.383  1.4448 -0.1832 -0.1965
   81MOL    H6214622   0.737   7.048   6.407  2.3306  0.7152 -1.2472
   81MOL    H6314623   0.737   6.995   6.573  0.3394 -0.1570  0.5943
   81MOL    H6414624   0.812   7.149   6.523  1.5209 -1.1110  2.5636
   81MOL    C6514625   1.036   7.052   6.382  0.5736 -0.1179  0.2093
   81MOL    C6614626   1.024   7.051   6.227  0.4701 -0.4036  0.1180
   81MOL    C6714627   1.041   6.909   6.168  0.2307 -0.1191  0.3947
   81MOL    H6814628   1.029   7.156   6.414 -0.6832  0.1785 -0.9590
   81MOL    H6914629   1.135   7.015   6.406  0.3325 -1.0853 -0.2678
   81MOL    H7014630   1.105   7.113   6.189 -1.7345  2.2309 -0.4209
   81MOL    H7114631   1.063   6.919   6.061 -0.8297  0.4707  0.2216
   81MOL    H7214632   1.127   6.859   6.212  1.4013 -0.9962 -2.7214
   81MOL    H7314633   0.955   6.846   6.188  1.4288 -2.4283 -1.5166
   81MOL    C7414634   0.887   7.104   6.184  0.1995 -0.8097  0.5519
   81MOL    C7514635   0.893   7.159   6.038 -0.7930  0.1002  0.4312
   81MOL    C7614636   0.755   7.148   5.973 -0.0044 -0.1223 -0.5617
   81MOL    H7714637   0.821   7.017   6.177 -1.8820  0.8414 -0.6949
   81MOL    H7814638   0.847   7.178   6.252  0.9564  0.2686 -0.1561
   81MOL    H7914639   0.954   7.090   5.980 -1.5143 -0.4594  0.3332
   81MOL    H8014640   0.677   7.212   6.015  2.6672  1.8544  1.5266
   81MOL    H8114641   0.756   7.164   5.865  0.3658 -3.6575 -1.1406
   81MOL    H8214642   0.727   7.044   5.991 -1.6703 -0.2136 -3.3105
   81MOL    C8314643   0.961   7.295   6.031 -0.9926  0.7720  0.1487
   81MOL    C8414644   1.076   7.295   5.929  0.6222  0.2110  0.5296
   81MOL    C8514645   1.029   7.268   5.794  0.6678  0.0847  0.8392
   81MOL    H8614646   0.883   7.365   6.003 -1.5075 -0.2344 -0.9782
   81MOL    H8714647   1.012   7.326   6.122 -0.2799  3.2659 -1.0608
   81MOL    H8814648   1.144   7.214   5.954  0.3252 -0.7318 -1.6285
   81MOL    H8914649   0.955   7.188   5.794  0.7724 -0.0250 -0.6799
   81MOL    H9014650   0.984   7.357   5.751  0.1599  0.2905  1.7746
   81MOL    H9114651   1.113   7.232   5.736  1.4193  2.0415  0.7060
   81MOL    C9214652   1.145   7.430   5.933  0.7499  0.7964  0.5130
   81MOL    C9314653   1.247   7.466   6.039 -0.2257  0.2924 -0.9898
   81MOL    C9414654   1.344   7.353   6.066 -0.0776  1.5396 -1.2615
   81MOL    H9514655   1.199   7.435   5.838  0.9219  2.3963  0.6889
   81MOL    H9614656   1.072   7.510   5.931 -2.1458 -1.7807 -0.5507
   81MOL    H9714657   1.197   7.494   6.132 -0.3436 -1.3667 -0.5447
   81MOL    H9814658   1.439   7.383   6.110  1.2556  1.3643 -3.8907
   81MOL    H9914659   1.304   7.273   6.128 -1.3869  2.8601 -0.3584
   81MOL   H10014660   1.365   7.298   5.974  0.2723  0.0022 -0.2898
   81MOL   C10114661   1.323   7.588   5.991 -0.6168  0.5610 -0.1615
   81MOL   C10214662   1.416   7.656   6.101 -0.3295  0.0064  0.7133
   81MOL   C10314663   1.477   0.095   6.040 -0.0532 -0.4322 -0.2956
   81MOL   H10414664   1.381   7.579   5.899  1.2576 -1.0692  1.1463
   81MOL   H10514665   1.246   7.665   5.984 -0.7616  0.6901  2.4729
   81MOL   H10614666   1.492   7.580   6.116  0.6614  1.2391  2.0965
   81MOL   H10714667   1.417   0.179   6.007  1.9042  0.8282 -0.7254
   81MOL   H10814668   1.543   0.137   6.115 -0.9690 -1.0047  0.8373
   81MOL   H10914669   1.537   0.065   5.953  0.4565  0.6743 -0.3367
   81MOL   C11014670   1.354   7.681   6.244 -1.0224  0.6608 -0.1524
   81MOL   C11114671   1.444   0.017   6.361 -0.2093  0.9009  0.1209
   81MOL   C11214672   1.345   0.068   6.465 -0.0239  0.0654 -0.3016
   81MOL   H11314673   1.262   0.043   6.240 -1.2662  0.1497 -2.7426
   81MOL   H11414674   1.303   7.591   6.278  0.7345 -1.0275 -1.8951
   81MOL   H11514675   1.499   0.108   6.338 -1.1658  2.0834  2.4153
   81MOL   H11614676   1.385   0.100   6.561 -2.6808 -0.6897  1.0974
   81MOL   H11714677   1.292   0.150   6.416  0.9956  1.3948  0.7826
   81MOL   H11814678   1.278   7.684   6.491  1.0578 -0.7605 -0.0564
   81MOL   C11914679   1.547   7.611   6.406 -0.2634 -0.5496  0.3729
   81MOL   C12014680   1.651   7.664   6.503 -0.3499  0.6446 -1.0109
   81MOL   C12114681   1.615   7.624   6.648 -0.1484  0.2054  0.6764
   81MOL   H12214682   1.495   7.518   6.427  0.3636 -1.0600 -0.3538
   81MOL   H12314683   1.606   7.579   6.321  1.6709  1.4899  0.8955
   81MOL   H12414684   1.667   0.075   6.502  0.7850  0.4934 -0.4010
   81MOL   H12514685   1.525   7.677   6.680  0.3326  0.5644  1.4531
   81MOL   H12614686   1.589   7.519   6.635 -1.5219  0.6301 -0.1849
   81MOL   H12714687   1.691   7.649   6.722 -0.6595  3.1943  0.2603
   81MOL   C12814688   1.792   7.618   6.460 -0.0136  0.5900 -0.5552
   81MOL   C12914689   1.845   7.675   6.316  0.2264  0.1727  0.1143
   81MOL   C13014690   1.803   0.121   6.291  0.2696 -0.2269 -0.3738
   81MOL   H13114691   1.858   7.631   6.545 -0.9030 -0.9653  0.3978
   81MOL   H13214692   1.790   7.510   6.443  0.6775  0.3768  0.7284
   81MOL   H13314693   1.797   7.623   6.234 -1.4987  0.1045  1.1429
   81MOL   H13414694   1.868   0.175   6.222 -1.1287 -0.2306 -1.7201
   81MOL   H13514695   1.703   0.119   6.248  0.6017  0.0126 -1.1835
   81MOL   H13614696   1.812   0.176   6.384  0.6594  0.9565 -1.0872
   81MOL   C13714697   2.001   7.650   6.289  0.4666  0.6144  0.7792
   81MOL   C13814698   2.072   7.687   6.162 -0.2468  0.6460 -0.2589
   81MOL   C13914699   2.212   0.046   6.203  0.3083 -0.1152  0.7881
   81MOL   H14014700   2.054   0.003   6.370 -0.5485  1.1278  1.1302
   81MOL   H14114701   2.013   7.547   6.323 -0.3149  0.4912  0.6951
   81MOL   H14214702   2.021   0.064   6.101 -2.6647 -2.3404 -2.0329
   81MOL   H14314703   2.266   0.085   6.117  2.9143 -0.3124  2.2930
   81MOL   H14414704   2.207   0.126   6.277 -0.4791  1.1166 -0.5667
   81MOL   H14514705   2.272   7.661   6.240 -0.5517 -0.8926  0.4836
   81MOL   C14614706   2.091   7.576   6.058  0.5874  0.4059 -0.0700
   81MOL   C14714707   1.967   7.499   6.002 -0.5312 -0.3891  0.9401
   81MOL   C14814708   1.850   7.584   5.963  0.5902 -0.6379  0.9988
   81MOL   H14914709   2.140   7.631   5.977 -1.2838  0.6745 -1.0305
   81MOL   H15014710   2.162   7.499   6.089 -0.0477 -0.5046 -0.8529
   81MOL   H15114711   1.929   7.442   6.086 -1.0961 -0.1104  0.8779
   81MOL   H15214712   1.854   7.689   5.991 -1.3087 -0.1555 -0.4162
   81MOL   H15314713   1.837   7.591   5.855 -0.4582  2.2514  1.2699
   81MOL   H15414714   1.756   7.549   6.006  0.4497  0.9812  2.0243
   81MOL   C15514715   2.010   7.394   5.895 -0.5386 -0.0552 -0.3448
   81MOL   C15614716   2.104   7.430   5.790  0.0253 -0.5219 -0.0792
   81MOL   C15714717   2.160   7.300   5.733 -0.5750  0.3760  0.0223
   81MOL   H15814718   2.046   7.306   5.948 -0.2529  0.1300 -0.2297
   81MOL   H15914719   1.917   7.360   5.850 -0.2175  0.8478 -1.7131
   81MOL   H16014720   2.185   7.488   5.834 -0.8114  0.3442  0.3332
   81MOL   H16114721   2.171   7.218   5.804 -0.2069 -0.6614 -1.2254
   81MOL   H16214722   2.092   7.266   5.655 -1.7094 -0.1573  1.2324
   81MOL   H16314723   2.255   7.323   5.684 -0.6332 -1.3801 -0.9328
   81MOL   C16414724   2.051   7.521   5.681  0.4299  1.0913  0.7006
   81MOL   C16514725   2.137   7.539   5.555  0.3048 -0.4633  0.1955
   81MOL   C16614726   2.062   7.612   5.441  0.3552 -0.2135 -0.5323
   81MOL   H16714727   1.958   7.471   5.656  0.2072  1.3924  0.9260
   81MOL   H16814728   2.018   7.619   5.716 -0.5610  1.5074 -1.3417
   81MOL   H16914729   2.170   7.438   5.531  1.0860 -0.2679  0.4526
   81MOL   H17014730   2.021   0.009   5.477 -0.4867 -1.4752  1.8853
   81MOL   H17114731   2.133   7.645   5.364 -0.3193 -2.7605 -2.3001
   81MOL   H17214732   1.985   7.551   5.395  1.4345 -3.7715  2.2038
   81MOL   C17314733   2.260   7.628   5.581 -0.8487 -0.0723 -0.3647
   81MOL   C17414734   2.248   0.062   5.674  0.1819  0.2181  0.0227
   81MOL   C17514735   2.376   0.147   5.682  0.2765  0.8750 -0.3958
   81MOL   H17614736   2.328   7.564   5.636 -1.3680  0.2884  0.7105
   81MOL   H17714737   2.308   7.642   5.484  0.1557  0.4064  0.2007
   81MOL   H17814738   2.215   0.020   5.769  0.3632 -1.6087 -0.7171
   81MOL   H17914739   2.451   0.087   5.732  0.1964  0.6446 -0.5546
   81MOL   H18014740   2.420   0.165   5.584  0.3708  3.2228  0.0452
   81MOL   H18114741   2.366   0.243   5.733 -0.6438  0.9798 -0.7687
   81MOL   H18214742   2.163   0.125   5.646 -0.4868 -1.0295 -0.7437
   82MOL     C114743   0.827   0.608   0.097 -0.2955 -0.1298 -0.5884
   82MOL     C214744   0.765   0.633   0.237 -0.5569  0.1235 -0.1695
   82MOL     C314745   0.853   0.599   0.358  0.7591 -0.4229  0.5412
   82MOL     H414746   0.752   0.613   0.018 -1.2145  1.7566  0.3650
   82MOL     H514747   0.867   0.506   0.097  1.4118  0.5286 -0.2918
   82MOL     H614748   0.673   0.573   0.244 -0.4026  0.1004  2.1020
   82MOL     H714749   0.899   0.500   0.360  0.8964 -0.3645  0.3501
   82MOL     H814750   0.914   0.688   0.374 -1.7824  1.6883 -0.9817
   82MOL     H914751   0.780   0.599   0.439 -1.4891 -0.2638 -1.4367
   82MOL    H1014752   0.902   0.681   0.067  0.6494 -1.1424 -0.7441
   82MOL    C1114753   0.722   0.781   0.244 -0.5766 -0.5445  0.2182
   82MOL    C1214754   0.599   0.830   0.154 -0.0517  0.2484 -0.0639
   82MOL    C1314755   0.474   0.744   0.181 -0.2053  0.5567  0.1256
   82MOL    H1414756   0.713   0.807   0.350 -1.2665 -0.2766  0.0945
   82MOL    H1514757   0.808   0.844   0.221  0.7607 -1.2414  3.0555
   82MOL    H1614758   0.634   0.822   0.051 -1.3735  1.3035 -0.6055
   82MOL    H1714759   0.489   0.645   0.138 -2.1843  1.1696 -2.0525
   82MOL    H1814760   0.450   0.730   0.286 -2.8764 -2.2225 -0.7908
   82MOL    H1914761   0.387   0.785   0.130  0.5638  1.2456 -0.6500
   82MOL    C2014762   0.558   0.979   0.179 -0.8147  0.5310  0.4662
   82MOL    C2114763   0.652   1.087   0.124  0.5512  0.9039 -0.1625
   82MOL    C2214764   0.637   1.096   7.667  0.2665 -0.1263 -0.1695
   82MOL    H2314765   0.463   0.997   0.127 -0.9333  1.4421  0.9841
   82MOL    H2414766   0.529   0.996   0.283 -1.8985 -1.3194  0.4792
   82MOL    H2514767   0.753   1.056   0.150  0.3976 -0.6067 -1.3002
   82MOL    H2614768   0.717   1.155   7.623 -0.8964  1.0418 -0.7814
   82MOL    H2714769   0.644   1.005   7.607  1.4426 -0.7961  0.9807
   82MOL    H2814770   0.541   1.140   7.639 -1.0065 -1.8301  1.4221
   82MOL    C2914771   0.614   1.217   0.193  0.4376  0.1759  0.8336
   82MOL    C3014772   0.714   1.326   0.193 -0.9930 -0.3032 -0.1043
   82MOL    C3114773   0.651   1.450   0.255 -0.0366  0.0556  0.3905
   82MOL    H3214774   0.523   1.259   0.150  0.4325 -1.1285 -0.4792
   82MOL    H3314775   0.590   1.202   0.298  1.1991  1.0557  1.1379
   82MOL    H3414776   0.750   1.341   0.091  0.7388  1.7495  0.7744
   82MOL    H3514777   0.562   1.484   0.203 -0.1610 -3.5500 -1.8604
   82MOL    H3614778   0.621   1.435   0.359 -2.0092 -0.6805 -0.2703
   82MOL    H3714779   0.729   1.526   0.255  1.0466 -1.0032  2.2639
   82MOL    C3814780   0.840   1.283   0.281  0.5226 -0.9725  0.2304
   82MOL    C3914781   0.979   1.289   0.211 -0.4211  0.2855  0.0286
   82MOL    C4014782   1.018   1.436   0.211  0.7905 -0.6310  0.2983
   82MOL    H4114783   0.840   1.345   0.370  0.0140  0.5259 -0.7997
   82MOL    H4214784   0.812   1.186   0.322 -0.9534 -0.3238  0.7995
   82MOL    H4314785   0.979   1.263   0.105  0.2754 -0.7519  0.2783
   82MOL    H4414786   1.110   1.446   0.154  1.0905 -2.4529  0.4106
   82MOL    H4514787   0.941   1.496   0.162  2.8265  2.0204  0.2730
   82MOL    H4614788   1.032   1.472   0.313  1.4274 -0.6880  0.2328
   82MOL    C4714789   1.084   1.193   0.272  0.4116 -0.9585 -0.1082
   82MOL    C4814790   1.038   1.041   0.270 -0.3533 -0.3204  0.3500
   82MOL    C4914791   1.023   1.000   0.123 -0.5835  1.0308 -0.2519
   82MOL    H5014792   1.179   1.197   0.218 -0.7697 -1.7959 -2.2871
   82MOL    H5114793   1.102   1.221   0.376  0.4196  2.1862 -0.9143
   82MOL    H5214794   0.939   1.018   0.309 -1.6945  0.2290 -2.6185
   82MOL    H5314795   0.957   1.068   0.069  0.9803  2.0587 -0.9053
   82MOL    H5414796   1.112   1.003   0.061  0.0474  0.0509  0.5925
   82MOL    H5514797   0.982   0.899   0.116 -0.0808  0.7077  1.1655
   82MOL    C5614798   1.141   0.951   0.338 -0.2821 -0.6437 -0.4902
   82MOL    C5714799   1.161   0.974   0.492  0.7718  0.3236 -0.2889
   82MOL    C5814800   1.027   0.941   0.567  0.0538  0.4779 -0.3306
   82MOL    H5914801   1.126   0.844   0.320 -0.4505 -0.9817  1.5526
   82MOL    H6014802   1.232   0.966   0.280 -0.6076 -0.3658 -0.9343
   82MOL    H6114803   1.188   1.075   0.522 -0.7233  0.8028 -0.5655
   82MOL    H6214804   0.948   1.013   0.544 -0.2885  0.0253 -0.6001
   82MOL    H6314805   0.983   0.844   0.542  0.2889 -0.3253  2.1996
   82MOL    H6414806   1.052   0.959   0.671 -1.6819 -0.6930  0.3205
   82MOL    C6514807   1.285   0.901   0.556 -0.2271  0.3462 -0.2919
   82MOL    C6614808   1.423   0.921   0.484  0.6414  0.2388 -0.4473
   82MOL    C6714809   1.464   1.067   0.453 -0.1348 -0.3204 -0.9301
   82MOL    H6814810   1.298   0.925   0.662 -1.7352 -1.7481  0.4267
   82MOL    H6914811   1.253   0.797   0.551 -0.6718  0.4365  0.4953
   82MOL    H7014812   1.419   0.870   0.388  1.2137  0.2970 -0.5079
   82MOL    H7114813   1.408   1.114   0.372  0.3824  2.1898  0.1085
   82MOL    H7214814   1.449   1.114   0.551  0.3588 -0.8143 -0.6148
   82MOL    H7314815   1.569   1.070   0.422 -0.2116  0.2690 -1.1425
   82MOL    C7414816   1.538   0.855   0.561  0.3192 -0.3301  0.1246
   82MOL    C7514817   1.576   0.704   0.527  1.1208  0.8480 -0.3750
   82MOL    C7614818   1.472   0.596   0.577 -0.4734  0.0625 -0.1319
   82MOL    H7714819   1.630   0.912   0.549 -0.6194  1.2528  0.4244
   82MOL    H7814820   1.509   0.870   0.665 -1.4296 -0.5148 -0.3296
   82MOL    H7914821   1.658   0.692   0.597 -0.2648  1.9793  1.4726
   82MOL    H8014822   1.383   0.603   0.515 -1.2029  2.5518  1.1639
   82MOL    H8114823   1.523   0.500   0.564 -0.0881  0.2486 -0.0264
   82MOL    H8214824   1.454   0.602   0.684 -0.5547 -1.1730 -0.0632
   82MOL    C8314825   1.626   0.677   0.392  0.8156  0.1277 -0.9525
   82MOL    C8414826   1.733   0.771   0.329  0.5425 -0.2163  0.0751
   82MOL    C8514827   1.867   0.766   0.411  0.0794 -0.1425  0.1461
   82MOL    H8614828   1.674   0.581   0.407  1.9799  0.7441 -0.6717
   82MOL    H8714829   1.541   0.663   0.325 -0.8065  0.7331  0.9501
   82MOL    H8814830   1.695   0.873   0.339 -0.8037 -0.2927 -3.4775
   82MOL    H8914831   1.947   0.814   0.355 -0.2302 -0.3967 -0.5157
   82MOL    H9014832   1.857   0.794   0.516 -0.4618  0.1087  0.0337
   82MOL    H9114833   1.897   0.662   0.416 -1.1722 -0.4555  1.9990
   82MOL    C9214834   1.748   0.748   0.170 -0.7625  0.6969  0.3360
   82MOL    C9314835   1.631   0.771   0.074 -0.4550  0.1684  0.4669
   82MOL    C9414836   1.583   0.916   0.067  0.3682 -0.2868 -0.0180
   82MOL    H9514837   1.825   0.813   0.129 -1.3215  0.2008 -1.5851
   82MOL    H9614838   1.803   0.656   0.153 -1.6322  0.4975 -1.5275
   82MOL    H9714839   1.547   0.709   0.104 -1.1986  0.7544 -0.3810
   82MOL    H9814840   1.488   0.918   0.014  0.0846 -4.1188  0.2431
   82MOL    H9914841   1.568   0.951   0.169 -1.0465 -0.5944 -0.1142
   82MOL   H10014842   1.648   0.993   0.024 -1.3711  1.2538  0.0258
   82MOL   C10114843   1.665   0.730   7.626  0.8869  0.7036 -0.0103
   82MOL   C10214844   1.736   0.594   7.600 -1.2401  0.3681 -0.8633
   82MOL   C10314845   1.666   0.474   7.661 -0.1086  0.0542  0.2664
   82MOL   H10414846   1.573   0.738   7.569  1.0907 -0.1822 -0.4669
   82MOL   H10514847   1.738   0.804   7.592  1.0808  0.3256 -0.4250
   82MOL   H10614848   1.834   0.602   7.648 -1.6892 -0.3651  0.1784
   82MOL   H10714849   1.689   0.481   0.070  1.1389 -0.0055  0.0074
   82MOL   H10814850   1.558   0.469   7.642 -0.0849 -0.6107  0.3051
   82MOL   H10914851   1.710   0.384   7.618  0.7789  0.6229 -0.0295
   82MOL   C11014852   1.761   0.568   7.449  0.1335  0.3944  0.9093
   82MOL   C11114853   1.887   0.485   7.404  0.1266  0.1239 -0.6860
   82MOL   C11214854   1.856   0.389   7.301  0.6414  0.3173  0.4972
   82MOL   H11314855   1.666   0.527   7.413  0.1682  1.1485 -0.0475
   82MOL   H11414856   1.757   0.660   7.391 -0.6602 -0.1790  0.0257
   82MOL   H11514857   1.925   0.437   7.494  1.4183  1.9761 -0.2095
   82MOL   H11614858   1.790   0.312   7.343  1.3518  0.5460  2.0537
   82MOL   H11714859   1.810   0.431   7.212  0.7305 -0.4569  0.0805
   82MOL   H11814860   1.929   0.320   7.258  1.9928  2.5088 -0.7898
   82MOL   C11914861   1.995   0.577   7.346 -0.1786  0.1591  0.0581
   82MOL   C12014862   2.027   0.708   7.434  0.3781 -0.2157 -0.0027
   82MOL   C12114863   2.099   0.668   7.564  0.0700 -0.6229  0.5346
   82MOL   H12214864   2.086   0.519   7.331 -0.7894 -0.1772 -2.5227
   82MOL   H12314865   1.955   0.618   7.253 -0.3026 -1.7735 -0.7604
   82MOL   H12414866   1.935   0.765   7.450 -0.9563 -2.2910 -0.1072
   82MOL   H12514867   2.207   0.667   7.547  0.0621  0.5259  0.3693
   82MOL   H12614868   2.088   0.759   7.623  0.4673  2.4460 -3.8336
   82MOL   H12714869   2.059   0.579   7.612  0.9638 -2.4428 -1.9302
   82MOL   C12814870   2.115   0.805   7.351 -0.4744 -0.5731  0.4290
   82MOL   C12914871   2.119   0.948   7.415 -0.4598  0.1085  0.4382
   82MOL   C13014872   2.261   1.007   7.381 -0.0832  0.2663  0.0973
   82MOL   H13114873   2.215   0.764   7.336  0.1236  0.8790  0.3917
   82MOL   H13214874   2.077   0.814   7.250 -0.5413 -0.0293  0.5050
   82MOL   H13314875   2.116   0.943   7.524 -1.5061  0.3188  0.4215
   82MOL   H13414876   2.289   1.024   7.278  3.5608 -0.1506  0.9537
   82MOL   H13514877   2.284   1.093   7.444 -1.0433  1.0887 -0.6747
   82MOL   H13614878   2.335   0.930   7.405 -0.4795 -0.2435 -0.3131
   82MOL   C13714879   2.024   1.055   7.343 -0.8951 -0.1598  0.4585
   82MOL   C13814880   1.870   1.045   7.361  0.8330 -0.2603 -0.1206
   82MOL   C13914881   1.833   1.088   7.502 -0.2049  0.2658 -0.4745
   82MOL   H14014882   2.058   1.153   7.375  0.2546 -0.1999 -0.5883
   82MOL   H14114883   2.046   1.062   7.236 -2.2299  0.5284  0.2226
   82MOL   H14214884   1.836   0.944   7.341 -2.3578  1.1559 -2.2086
   82MOL   H14314885   1.892   1.174   7.535 -1.0625  0.8527 -0.4734
   82MOL   H14414886   1.730   1.118   7.516 -0.7053 -0.7366 -1.9210
   82MOL   H14514887   1.860   1.010   7.574 -0.9017 -0.9154 -1.4587
   82MOL   C14614888   1.800   1.119   7.247  0.6559  0.2490 -0.7566
   82MOL   C14714889   1.645   1.146   7.245  1.0178  0.8105 -0.2137
   82MOL   C14814890   1.591   1.233   7.132 -0.4454 -0.4133  0.3941
   82MOL   H14914891   1.847   1.217   7.241  1.5447 -0.1671 -0.6052
   82MOL   H15014892   1.830   1.077   7.151 -0.9006 -0.6171 -0.8913
   82MOL   H15114893   1.621   1.187   7.344  0.1115 -1.2470  0.4415
   82MOL   H15214894   1.663   1.315   7.124  0.5464 -1.0964  1.9942
   82MOL   H15314895   1.585   1.169   7.044  1.0734 -1.6560  1.1687
   82MOL   H15414896   1.489   1.266   7.153 -0.8471 -1.3151 -0.1370
   82MOL   C15514897   1.572   1.005   7.250 -0.4260 -0.0078  0.3734
   82MOL   C15614898   1.430   0.999   7.299 -0.0211 -0.0106 -0.2346
   82MOL   C15714899   1.362   0.866   7.259 -0.2958  0.2442  0.1083
   82MOL   H15814900   1.573   0.957   7.152  1.1808 -1.4196  1.0457
   82MOL   H15914901   1.629   0.938   7.316  2.3200  1.7758 -0.0977
   82MOL   H16014902   1.373   1.076   7.248 -0.3433  1.0253  1.6465
   82MOL   H16114903   1.431   0.792   7.301 -1.5959 -0.8123  0.4122
   82MOL   H16214904   1.259   0.843   7.286  0.0781  0.7865  2.0459
   82MOL   H16314905   1.371   0.842   7.153  1.8964 -3.5348  1.0576
   82MOL   C16414906   1.414   1.032   7.451 -0.0496 -0.6096  0.5773
   82MOL   C16514907   1.303   1.134   7.485 -0.4495  0.1425  0.2131
   82MOL   C16614908   1.167   1.052   7.491 -0.4626  0.0108 -0.5419
   82MOL   H16714909   1.400   0.938   7.506  0.8144 -1.4648 -0.6401
   82MOL   H16814910   1.505   1.078   7.488 -1.4363  2.7453  0.0114
   82MOL   H16914911   1.303   1.217   7.414 -1.3877  0.4867  0.6066
   82MOL   H17014912   1.168   0.968   7.561  2.2594  1.5380  1.3732
   82MOL   H17114913   1.083   1.119   7.509 -1.8838 -1.8911  0.1126
   82MOL   H17214914   1.146   1.011   7.392  0.2577  0.3934 -0.8535
   82MOL   C17314915   1.321   1.203   7.627  0.3548 -0.1412 -0.0793
   82MOL   C17414916   1.420   1.320   7.628  0.5998  0.0033 -0.3669
   82MOL   C17514917   1.454   1.363   0.078 -0.2870  0.4741  0.2135
   82MOL   H17614918   1.228   1.236   7.676 -1.2063 -2.7689 -1.1853
   82MOL   H17714919   1.354   1.125   7.697  0.1678 -0.2565 -0.1196
   82MOL   H17814920   1.388   1.401   7.563  1.9832 -1.3497 -2.7921
   82MOL   H17914921   1.542   1.428   0.084 -0.9180  1.4671 -1.3178
   82MOL   H18014922   1.374   1.424   0.121 -1.1629 -0.6254  0.1546
   82MOL   H18114923   1.466   1.277   0.144 -0.8840  0.0918 -0.1745
   82MOL   H18214924   1.510   1.293   7.574  0.8309  0.8324 -0.4035
   83MOL     C114925   0.540   1.800   1.416  0.3618  1.1808 -0.0881
   83MOL     C214926   0.449   1.917   1.384 -0.5058 -0.6844 -0.6007
   83MOL     C314927   0.535   2.045   1.392  0.0981  0.1532 -0.3372
   83MOL     H414928   0.590   1.811   1.512 -0.5784  2.0827  0.3028
   83MOL     H514929   0.607   1.761   1.339 -1.1974  0.5910 -1.1558
   83MOL     H614930   0.379   1.937   1.465  0.7404  0.7929  0.1480
   83MOL     H714931   0.480   2.136   1.367 -0.6943 -0.2328 -0.0168
   83MOL     H814932   0.573   2.052   1.493  0.0536  1.6480 -0.4203
   83MOL     H914933   0.618   2.045   1.321  0.1380 -2.5081 -0.3488
   83MOL    H1014934   0.482   1.710   1.433  2.7288 -0.5371 -0.7703
   83MOL    C1114935   0.362   1.901   1.256 -0.5566 -0.0116 -0.7497
   83MOL    C1214936   0.264   1.787   1.269 -0.1866  0.2640  0.1052
   83MOL    C1314937   0.142   1.829   1.349  0.0066  0.1359 -0.7566
   83MOL    H1414938   0.317   1.996   1.226  0.9561  0.2315 -2.3584
   83MOL    H1514939   0.436   1.865   1.185  0.1564  0.3119 -0.1754
   83MOL    H1614940   0.309   1.699   1.314  0.0176  0.9612  1.2700
   83MOL    H1714941   0.076   1.903   1.302  0.5200  1.1551  0.0877
   83MOL    H1814942   0.074   1.747   1.372 -0.9548  1.0540 -0.2129
   83MOL    H1914943   0.165   1.880   1.443  2.0703  0.5253 -1.4600
   83MOL    C2014944   0.219   1.751   1.127  0.6022  0.3891 -0.4966
   83MOL    C2114945   0.154   1.615   1.113  0.5370  0.8489  0.0976
   83MOL    C2214946   0.079   1.578   0.987 -0.0537  0.0694 -1.2672
   83MOL    H2314947   0.137   1.819   1.100 -1.6208 -2.7611 -1.8981
   83MOL    H2414948   0.295   1.766   1.051  0.2087  0.2037 -0.9253
   83MOL    H2514949   0.073   1.609   1.186  0.9080  1.2044  0.5450
   83MOL    H2614950   0.040   1.675   0.958 -1.1402 -0.3852 -1.3593
   83MOL    H2714951   0.150   1.541   0.913  3.2159  2.2866  0.6623
   83MOL    H2814952   0.001   1.504   1.005  0.0462  0.0764 -0.7901
   83MOL    C2914953   0.261   1.504   1.148  1.0367  0.0308 -0.2641
   83MOL    C3014954   0.197   1.372   1.201  0.2562 -0.4381  1.0502
   83MOL    C3114955   0.212   1.266   1.088  0.0778  0.5626 -0.2138
   83MOL    H3214956   0.316   1.485   1.055  0.7085  0.8542 -0.6267
   83MOL    H3314957   0.341   1.535   1.215  0.4966  2.5174 -0.7287
   83MOL    H3414958   0.090   1.394   1.208  0.0751  0.0919 -2.4677
   83MOL    H3514959   0.182   1.318   0.997  0.6467  1.2315 -0.0232
   83MOL    H3614960   0.308   1.216   1.075 -1.0808 -1.6021 -0.6632
   83MOL    H3714961   0.149   1.179   1.106  0.5399  0.4532  0.8823
   83MOL    C3814962   0.254   1.330   1.334 -0.2094  0.0490  0.4552
   83MOL    C3914963   0.222   1.411   1.460  0.2692 -0.2397  0.4972
   83MOL    C4014964   0.074   1.407   1.500  0.2219  0.5767 -0.2349
   83MOL    H4114965   0.225   1.227   1.353  1.8254 -0.3757  1.4164
   83MOL    H4214966   0.361   1.314   1.321  0.1415  2.8112 -0.3127
   83MOL    H4314967   0.270   1.503   1.428  1.4673 -0.5999  1.2200
   83MOL    H4414968   0.001   1.425   1.421  1.0618 -0.8848 -1.3668
   83MOL    H4514969   0.040   1.317   1.552  1.0320 -2.2475 -4.3800
   83MOL    H4614970   0.035   1.489   1.561  0.1812 -0.0717  0.6302
   83MOL    C4714971   0.308   1.360   1.566 -0.6680 -0.2374  0.7973
   83MOL    C4814972   0.312   1.423   1.708 -0.0947  0.6869 -0.2268
   83MOL    C4914973   0.378   1.323   1.814 -0.8047  0.0753 -0.6721
   83MOL    H5014974   0.281   1.256   1.580 -1.0975 -0.0956  1.0438
   83MOL    H5114975   0.412   1.350   1.534 -0.7106  0.9363  0.2634
   83MOL    H5214976   0.208   1.438   1.738  0.0032  0.6077  0.1616
   83MOL    H5314977   0.485   1.336   1.797 -0.4262 -1.0867  0.7537
   83MOL    H5414978   0.362   1.344   1.920  0.6881  0.5305 -0.5200
   83MOL    H5514979   0.349   1.222   1.787  1.6450 -0.9064  0.2442
   83MOL    C5614980   0.384   1.563   1.709 -0.6736  0.1545  0.2666
   83MOL    C5714981   0.327   1.671   1.807 -0.2907 -0.0954  0.7816
   83MOL    C5814982   0.433   1.784   1.815 -0.2089  0.8948  0.8453
   83MOL    H5914983   0.490   1.551   1.732 -0.5020  1.4570  0.2043
   83MOL    H6014984   0.384   1.609   1.611 -0.5124 -1.4013 -0.4758
   83MOL    H6114985   0.315   1.633   1.909  0.8161 -2.9567 -0.0917
   83MOL    H6214986   0.395   1.865   1.877 -1.1735  0.2565  1.0898
   83MOL    H6314987   0.529   1.764   1.863  0.8034 -0.0294 -1.4460
   83MOL    H6414988   0.458   1.830   1.719  0.4802 -0.0022  0.5810
   83MOL    C6514989   0.197   1.727   1.754  0.9669  0.3119  0.6110
   83MOL    C6614990   0.122   1.813   1.855 -0.5571  0.2360  0.2858
   83MOL    C6714991   0.139   1.963   1.815  0.4113  0.2644  0.4350
   83MOL    H6814992   0.221   1.787   1.666 -0.2038 -1.6645 -1.1002
   83MOL    H6914993   0.132   1.647   1.718 -1.4900  2.3402  0.3359
   83MOL    H7014994   0.179   1.817   1.948 -0.0754 -3.1091  0.1948
   83MOL    H7114995   0.240   1.981   1.778  0.8821 -2.6301  0.1911
   83MOL    H7214996   0.079   1.984   1.726 -3.0717 -1.3293  2.2969
   83MOL    H7314997   0.113   2.036   1.892  1.0871 -0.0135  0.9286
   83MOL    C7414998   7.676   1.766   1.875 -0.1854 -0.4801  0.2088
   83MOL    C7514999   7.660   1.628   1.936  0.6526  0.2037  0.3344
   83MOL    C7615000   0.008   1.645   2.084  0.1955 -0.4912 -0.8214
   83MOL    H7715001   7.619   1.844   1.926  0.2987 -1.3125  2.0858
   83MOL    H7815002   7.635   1.757   1.775 -1.8309  0.8467  0.7370
   83MOL    H7915003   0.038   1.557   1.902 -0.2659  0.0711 -1.4413
   83MOL    H8015004   0.116   1.644   2.099  0.2808 -0.7509 -1.4061
   83MOL    H8115005   7.681   1.748   2.111  0.8325 -0.7720  0.8788
   83MOL    H8215006   7.655   1.570   2.145 -1.6296 -0.7442 -2.5963
   83MOL    C8315007   7.522   1.573   1.902  0.0139 -0.5389 -0.9037
   83MOL    C8415008   7.508   1.421   1.930 -0.3132  0.4539  0.1149
   83MOL    C8515009   7.357   1.385   1.920  0.6226  0.2839  0.5076
   83MOL    H8615010   7.445   1.624   1.960  1.2171 -3.1290  3.2310
   83MOL    H8715011   7.499   1.589   1.797  2.8971  0.6201 -1.4014
   83MOL    H8815012   7.526   1.406   2.036 -2.4921 -0.3194  0.3974
   83MOL    H8915013   7.333   1.376   1.814  2.6293 -0.7801  0.1125
   83MOL    H9015014   7.339   1.285   1.959 -0.7961  0.6875  0.9196
   83MOL    H9115015   7.289   1.450   1.975 -0.2857  0.2058 -0.5083
   83MOL    C9215016   7.592   1.330   1.840 -0.0580  0.0950  0.9723
   83MOL    C9315017   7.615   1.195   1.906  0.1449  0.3458 -0.1391
   83MOL    C9415018   7.655   1.105   1.791  0.0404 -0.1321  0.2344
   83MOL    H9515019   7.549   1.318   1.740  1.0808 -0.9417  0.5863
   83MOL    H9615020   7.680   1.386   1.811  0.7803 -1.4149  0.5185
   83MOL    H9715021   7.530   1.146   1.954  0.7741 -0.0188  0.6126
   83MOL    H9815022   0.040   1.145   1.732  0.2691  2.8482  2.4454
   83MOL    H9915023   7.661   1.000   1.821 -0.8840 -0.2394  0.0488
   83MOL   H10015024   7.568   1.102   1.727 -0.2425 -1.1248  0.6519
   83MOL   C10115025   0.023   1.198   2.027 -0.0873 -0.2350  0.5951
   83MOL   C10215026   0.075   1.064   2.079 -0.1930 -0.3418 -0.5598
   83MOL   C10315027   0.193   0.996   1.996  0.1847  0.2051 -0.7865
   83MOL   H10415028   0.112   1.258   2.008  2.0666 -4.0438 -2.1157
   83MOL   H10515029   7.663   1.260   2.096  0.6060  1.7271 -0.5399
   83MOL   H10615030   7.680   1.008   2.063 -1.3989  1.7520 -1.0388
   83MOL   H10715031   0.292   1.035   2.019  0.6806 -0.6672 -1.4199
   83MOL   H10815032   0.195   0.889   2.011 -2.8282  0.1689 -0.2446
   83MOL   H10915033   0.175   1.003   1.889 -1.1470  1.8200 -0.4810
   83MOL   C11015034   0.117   1.061   2.230  0.3208 -1.0098 -0.8576
   83MOL   C11115035   7.695   1.063   2.331  0.4991 -0.3868  0.1524
   83MOL   C11215036   7.593   0.941   2.316  0.0696  0.6326  0.5168
   83MOL   H11315037   0.171   0.971   2.260  0.3108 -0.4202  0.9311
   83MOL   H11415038   0.184   1.144   2.250  0.3569 -1.4738  1.0066
   83MOL   H11515039   7.639   1.157   2.327 -0.0110 -0.5204  2.8009
   83MOL   H11615040   7.519   0.938   2.396  0.2612 -0.0988  0.6694
   83MOL   H11715041   7.543   0.942   2.219 -2.1326  0.4687  1.6211
   83MOL   H11815042   7.638   0.842   2.322  1.9308  1.5664  2.4557
   83MOL   C11915043   0.047   1.071   2.475  0.7061  0.3396 -0.3215
   83MOL   C12015044   7.632   1.090   2.589  0.1702  0.2014  0.1670
   83MOL   C12115045   0.001   1.091   2.728  0.8197  0.3917  0.0254
   83MOL   H12215046   0.096   0.976   2.499 -0.6693 -0.2120  0.3598
   83MOL   H12315047   0.118   1.152   2.491 -0.6368  1.1804  1.5609
   83MOL   H12415048   7.550   1.019   2.585 -0.5103  0.8600  2.0080
   83MOL   H12515049   0.030   0.990   2.759 -0.2339  0.6625  1.9798
   83MOL   H12615050   0.097   1.141   2.724  1.2615 -0.1382  3.2482
   83MOL   H12715051   7.641   1.127   2.813 -1.8204 -0.7824 -1.1823
   83MOL   C12815052   7.566   1.231   2.572 -0.3967 -0.2273 -0.7384
   83MOL   C12915053   7.648   1.361   2.561 -0.0196  0.5491 -0.5696
   83MOL   C13015054   7.676   1.410   2.415 -0.0714 -0.3611 -0.0685
   83MOL   H13115055   7.488   1.226   2.496 -1.3570  1.5075  0.1103
   83MOL   H13215056   7.511   1.249   2.664  0.3460  0.7261 -0.4767
   83MOL   H13315057   0.046   1.341   2.610 -0.5136  0.2090  0.2787
   83MOL   H13415058   0.038   1.344   2.352  1.4415  1.0207 -0.1201
   83MOL   H13515059   7.580   1.429   2.366 -0.4651  0.7628  1.0952
   83MOL   H13615060   0.038   1.501   2.414 -0.7520  0.1203  1.2047
   83MOL   C13715061   7.580   1.485   2.635  0.4182  0.1502  0.0168
   83MOL   C13815062   7.596   1.485   2.789 -1.0312  0.4656 -0.1235
   83MOL   C13915063   0.023   1.563   2.833  0.7255 -0.5098 -0.5140
   83MOL   H14015064   7.610   1.584   2.601  0.6956  0.4729  1.1918
   83MOL   H14115065   7.477   1.497   2.603  0.5831 -0.7061 -0.8889
   83MOL   H14215066   7.606   1.381   2.821 -2.8053 -0.1360 -1.4473
   83MOL   H14315067   0.111   1.523   2.781 -0.1117 -1.8501 -0.9318
   83MOL   H14415068   0.018   1.666   2.798 -0.3712 -0.1835  0.5895
   83MOL   H14515069   0.044   1.548   2.939 -0.1397 -0.6814 -0.3653
   83MOL   C14615070   7.473   1.541   2.857  0.0308 -0.1290 -0.4020
   83MOL   C14715071   7.350   1.439   2.871  0.1465 -0.0061 -0.6438
   83MOL   C14815072   7.366   1.318   2.967  0.7143  0.0546 -0.9655
   83MOL   H14915073   7.494   1.557   2.963  0.9592  1.6876 -0.8488
   83MOL   H15015074   7.443   1.636   2.813 -0.8187 -0.9295 -1.5540
   83MOL   H15115075   7.344   1.393   2.772 -1.1256 -0.0849 -0.5387
   83MOL   H15215076   7.334   1.345   3.067 -1.1620 -0.2491 -1.4471
   83MOL   H15315077   7.301   1.235   2.938  0.7216 -0.2041 -0.2350
   83MOL   H15415078   7.469   1.285   2.974  0.1756 -1.8428 -1.7168
   83MOL   C15515079   7.214   1.517   2.907 -0.4207  0.6156  0.2636
   83MOL   C15615080   7.085   1.437   2.902  0.0170  0.8121 -0.4017
   83MOL   C15715081   6.976   1.512   2.981 -0.4704  0.2170 -0.2758
   83MOL   H15815082   7.227   1.555   3.008 -0.6300 -0.0478  0.5404
   83MOL   H15915083   7.199   1.596   2.833 -2.6845  0.0781  0.1239
   83MOL   H16015084   7.101   1.337   2.941  1.6160  0.4996 -1.7983
   83MOL   H16115085   7.012   1.553   3.076  1.0205 -1.2366 -0.1945
   83MOL   H16215086   6.934   1.598   2.929 -1.8391  0.4299  1.1382
   83MOL   H16315087   6.890   1.451   3.006  0.4318  0.3492  3.5230
   83MOL   C16415088   7.031   1.411   2.757  0.4656 -0.3095  0.1174
   83MOL   C16515089   7.069   1.280   2.692 -0.8324 -0.3794 -0.7719
   83MOL   C16615090   7.006   1.161   2.755 -0.3613 -0.3546  0.0961
   83MOL   H16715091   6.923   1.414   2.749  0.4671  0.6535  0.2857
   83MOL   H16815092   7.055   1.506   2.708 -2.4361  0.8318  0.8186
   83MOL   H16915093   7.175   1.280   2.716 -1.0213 -0.4351  0.0752
   83MOL   H17015094   7.034   1.156   2.860 -1.3976 -0.9495  0.3516
   83MOL   H17115095   6.898   1.148   2.746 -0.3799 -0.2982  0.2349
   83MOL   H17215096   7.036   1.066   2.710 -0.3125 -0.1957 -0.2115
   83MOL   C17315097   7.041   1.280   2.541  0.1955  0.6454  0.2318
   83MOL   C17415098   7.180   1.258   2.468 -0.3405 -0.4213  0.3614
   83MOL   C17515099   7.166   1.222   2.323  0.2434  0.0094 -0.8845
   83MOL   H17615100   6.975   1.197   2.514  0.0427  1.2058 -1.1613
   83MOL   H17715101   6.993   1.375   2.519 -2.3652 -0.8072 -0.8056
   83MOL   H17815102   7.244   1.183   2.514  2.2494  2.2955  1.2847
   83MOL   H17915103   7.261   1.227   2.271  1.4940 -0.1509  1.3205
   83MOL   H18015104   7.131   1.123   2.293  0.0874  0.8324 -3.4770
   83MOL   H18115105   7.093   1.287   2.275 -0.0261  0.9401  0.7397
   83MOL   H18215106   7.251   1.341   2.471 -0.3525 -0.3425 -1.0088
   84MOL     C115107   4.537   7.483   3.698 -0.4948 -0.2429  0.7452
   84MOL     C215108   4.558   7.433   3.564 -0.1753  0.8695 -0.0192
   84MOL     C315109   4.622   7.299   3.577  0.0793 -0.1644  0.3518
   84MOL     H415110   4.485   7.424   3.774 -0.8031 -2.1450 -0.8699
   84MOL     H515111   4.478   7.575   3.702  1.5773  1.2258 -1.4346
   84MOL     H615112   4.621   7.504   3.509  0.1192 -0.3877 -1.3463
   84MOL     H715113   4.562   7.230   3.637 -0.5208  0.7983  0.8776
   84MOL     H815114   4.625   7.252   3.479 -1.8219 -0.0663  0.2334
   84MOL     H915115   4.722   7.304   3.621  0.1209  1.1360  0.1387
   84MOL    H1015116   4.636   7.498   3.740  0.0134  0.5017 -0.6922
   84MOL    C1115117   4.424   7.411   3.486  0.0123  0.3149 -0.2021
   84MOL    C1215118   4.434   7.383   3.330 -0.3660  0.3129  0.2458
   84MOL    C1315119   4.290   7.391   3.259  0.5385 -0.4232  0.4017
   84MOL    H1415120   4.369   7.325   3.524  0.0219 -0.0742 -1.0492
   84MOL    H1515121   4.375   7.505   3.511  0.3284  0.5897 -0.6059
   84MOL    H1615122   4.472   7.282   3.316 -1.6517 -0.1023 -0.3053
   84MOL    H1715123   4.239   7.482   3.288  2.8238  1.5008 -1.3526
   84MOL    H1815124   4.298   7.385   3.150 -0.1771  0.7436  0.2713
   84MOL    H1915125   4.215   7.321   3.295  0.8426  0.0610  2.0123
   84MOL    C2015126   4.535   7.472   3.244 -0.2056  1.0050 -0.6623
   84MOL    C2115127   4.551   7.433   3.089  0.5113  0.0411 -0.1088
   84MOL    C2215128   4.665   7.513   3.013  0.0192  0.3992 -0.1020
   84MOL    H2315129   4.523   7.580   3.248  1.4892  1.1498  3.2395
   84MOL    H2415130   4.633   7.458   3.289 -0.3227 -0.5017 -0.8672
   84MOL    H2515131   4.456   7.469   3.050  0.3449  0.0613  0.3084
   84MOL    H2615132   4.762   7.508   3.062  0.0463 -0.8323 -0.2548
   84MOL    H2715133   4.674   7.487   2.908  0.0288 -0.5911  0.1339
   84MOL    H2815134   4.640   7.619   3.013  1.4143  0.7413 -1.0318
   84MOL    C2915135   4.574   7.280   3.061  0.1936 -0.1044  0.7765
   84MOL    C3015136   4.582   7.228   2.919  0.6883  0.5496 -0.1685
   84MOL    C3115137   4.591   7.074   2.931  0.3652 -0.1169  0.5141
   84MOL    H3215138   4.667   7.248   3.109  0.6836 -1.8182 -1.2408
   84MOL    H3315139   4.492   7.225   3.107 -1.3032  0.6902 -0.8838
   84MOL    H3415140   4.663   7.271   2.860  0.2715 -0.7316 -1.6779
   84MOL    H3515141   4.600   7.027   2.833  2.2775  0.1989  0.5222
   84MOL    H3615142   4.674   7.039   2.993  0.4323 -0.4012  0.2630
   84MOL    H3715143   4.499   7.035   2.975 -0.3586 -0.1793 -1.0298
   84MOL    C3815144   4.457   7.259   2.837 -0.0418  0.9958 -0.2353
   84MOL    C3915145   4.444   7.201   2.687 -0.1383  0.0972  0.2775
   84MOL    C4015146   4.304   7.227   2.633  0.7531  0.3267  0.6684
   84MOL    H4115147   4.372   7.227   2.897 -0.3139 -0.8999 -1.5852
   84MOL    H4215148   4.449   7.367   2.826  1.9409  1.3053  1.1897
   84MOL    H4315149   4.462   7.094   2.684 -0.6201 -0.0359  1.9807
   84MOL    H4415150   4.236   7.172   2.698 -0.0566  1.2324  0.5881
   84MOL    H4515151   4.277   7.332   2.642 -0.7255  0.4325 -3.7261
   84MOL    H4615152   4.285   7.192   2.532 -1.8452 -1.0407  1.5903
   84MOL    C4715153   4.557   7.276   2.604 -0.0733  0.7866 -0.1570
   84MOL    C4815154   4.556   7.275   2.445 -0.1080  0.3455  0.6328
   84MOL    C4915155   4.675   7.356   2.395  0.4502 -0.7381 -0.0647
   84MOL    H5015156   4.548   7.379   2.641  0.0686  1.5872 -2.2790
   84MOL    H5115157   4.656   7.236   2.627 -0.8830 -0.4608  1.2484
   84MOL    H5215158   4.470   7.329   2.406  0.4142  1.0215  0.4154
   84MOL    H5315159   4.677   7.450   2.448 -1.5701  1.3866 -3.5695
   84MOL    H5415160   4.768   7.306   2.424  1.2290 -0.8524 -2.5851
   84MOL    H5515161   4.684   7.371   2.287  1.3770 -0.6965  0.0097
   84MOL    C5615162   4.556   7.132   2.377 -0.2481  0.4012 -0.1188
   84MOL    C5715163   4.524   7.121   2.231 -0.8189  0.2088  0.0825
   84MOL    C5815164   4.564   6.988   2.162 -0.0994  0.1206 -0.2995
   84MOL    H5915165   4.649   7.076   2.387 -1.0759 -1.1281 -0.8354
   84MOL    H6015166   4.482   7.072   2.430  0.7534 -1.3497 -0.6635
   84MOL    H6115167   4.580   7.200   2.180  0.1068 -0.3174  0.2837
   84MOL    H6215168   4.670   6.964   2.176 -0.0414  0.3098 -0.3978
   84MOL    H6315169   4.499   6.908   2.195  0.4709 -0.0140  0.5174
   84MOL    H6415170   4.552   7.005   2.055  0.4946  1.6646 -0.1353
   84MOL    C6515171   4.369   7.154   2.218 -0.0115  0.2491 -0.1753
   84MOL    C6615172   4.318   7.147   2.071 -0.1135  0.4523  0.2325
   84MOL    C6715173   4.176   7.201   2.084  0.2609 -0.1473 -0.4470
   84MOL    H6815174   4.313   7.095   2.291  1.0117 -0.3106  0.1550
   84MOL    H6915175   4.350   7.258   2.247  0.7332  0.3904 -0.1995
   84MOL    H7015176   4.312   7.042   2.044  1.7045  0.5726 -0.7649
   84MOL    H7115177   4.173   7.310   2.076  0.5465  0.0093  1.3495
   84MOL    H7215178   4.106   7.159   2.012 -0.2883  0.4098 -0.2469
   84MOL    H7315179   4.133   7.186   2.183 -1.3348  0.3874 -1.0521
   84MOL    C7415180   4.391   7.239   1.974  0.0510 -0.8957 -0.1007
   84MOL    C7515181   4.341   7.230   1.827  0.0608 -0.2512  0.3954
   84MOL    C7615182   4.343   7.372   1.764  0.0045 -0.2018 -0.2920
   84MOL    H7715183   4.370   7.338   2.015  1.9903 -1.1046  1.4531
   84MOL    H7815184   4.499   7.227   1.980  0.4574  3.1796  2.5731
   84MOL    H7915185   4.234   7.215   1.818  0.4475 -1.4576 -3.1411
   84MOL    H8015186   4.276   7.383   1.679  0.4642  2.3557 -0.3566
   84MOL    H8115187   4.291   7.439   1.833 -0.6031 -1.5534  0.5771
   84MOL    H8215188   4.445   7.405   1.744  0.0339  0.0059  0.1707
   84MOL    C8315189   4.426   7.120   1.749  0.2378 -0.1053 -0.1601
   84MOL    C8415190   4.350   7.046   1.633 -0.3591  0.5717  0.3126
   84MOL    C8515191   4.297   7.140   1.525 -0.5081 -0.1170  0.0756
   84MOL    H8615192   4.518   7.165   1.712  0.1990  1.2918  1.4190
   84MOL    H8715193   4.461   7.051   1.826 -1.5276  0.6695  1.3832
   84MOL    H8815194   4.257   7.007   1.675 -0.6520  0.8447 -0.0857
   84MOL    H8915195   4.249   7.091   1.441 -0.4199 -0.5277  0.2618
   84MOL    H9015196   4.220   7.210   1.559 -0.9319 -0.4665 -0.1604
   84MOL    H9115197   4.378   7.196   1.479 -0.9702  0.2426 -0.3002
   84MOL    C9215198   4.434   6.919   1.591 -0.2430 -0.3624  0.0306
   84MOL    C9315199   4.369   6.830   1.476  0.5675  0.4366  0.0592
   84MOL    C9415200   4.475   6.752   1.404 -0.5212  0.0602 -0.5615
   84MOL    H9515201   4.524   6.972   1.560 -1.0456  2.1980  1.8592
   84MOL    H9615202   4.464   6.858   1.676 -0.1547 -0.4435 -0.0594
   84MOL    H9715203   4.327   6.897   1.401  1.3855 -0.6258 -1.3557
   84MOL    H9815204   4.507   6.666   1.464 -0.0142  1.0456  0.5995
   84MOL    H9915205   4.441   6.722   1.305  0.8968 -1.2563 -0.6824
   84MOL   H10015206   4.566   6.808   1.381 -0.8996  0.5301 -0.9123
   84MOL   C10115207   4.253   6.750   1.532  0.4051  0.5156  0.8442
   84MOL   C10215208   4.189   6.651   1.431 -0.1629  0.0583  0.2460
   84MOL   C10315209   4.092   6.557   1.499 -0.0229 -0.4424 -0.3020
   84MOL   H10415210   4.294   6.697   1.617  0.5877 -0.0416  0.4107
   84MOL   H10515211   4.171   6.809   1.572 -0.8670  1.1429 -2.4894
   84MOL   H10615212   4.264   6.577   1.405  1.6914  1.3751  1.7206
   84MOL   H10715213   3.991   6.596   1.508  0.1683  0.2849 -1.2819
   84MOL   H10815214   4.075   6.464   1.444  1.6305 -0.9804  0.0846
   84MOL   H10915215   4.127   6.528   1.598  0.3297 -0.7930 -0.5254
   84MOL   C11015216   4.137   6.721   1.299  0.6620  0.2382  0.3480
   84MOL   C11115217   4.055   6.637   1.205  0.5350  0.2791  0.1908
   84MOL   C11215218   3.971   6.728   1.111 -0.4641  0.6029  0.0599
   84MOL   H11315219   4.070   6.801   1.332  0.9041  0.4118  0.4142
   84MOL   H11415220   4.223   6.755   1.243  1.4169 -0.5267  1.0327
   84MOL   H11515221   3.976   6.587   1.261 -0.3021  0.1776 -1.0682
   84MOL   H11615222   3.907   6.674   1.041  0.9176 -0.5227 -0.3663
   84MOL   H11715223   3.904   6.795   1.165 -2.6231 -3.2538  2.4424
   84MOL   H11815224   4.032   6.798   1.054  1.6266 -0.2191  1.2517
   84MOL   C11915225   4.138   6.535   1.125  0.2572 -0.5794 -0.1473
   84MOL   C12015226   4.049   6.431   1.054  0.2190 -0.3559 -0.2990
   84MOL   C12115227   4.138   6.364   0.941 -0.7925  0.1528 -0.0549
   84MOL   H12215228   4.195   6.602   1.061 -0.4865 -0.7821 -1.0490
   84MOL   H12315229   4.199   6.483   1.199  0.5561  0.3074  0.2368
   84MOL   H12415230   3.969   6.484   1.002 -0.5963 -0.6856  0.5927
   84MOL   H12515231   4.221   6.307   0.984  0.0701  0.1223 -1.7094
   84MOL   H12615232   4.081   6.281   0.899 -0.1664 -0.6562  0.6424
   84MOL   H12715233   4.168   6.425   0.856 -0.8315  0.7120  0.3279
   84MOL   C12815234   3.978   6.330   1.146 -0.3439 -0.0900 -0.0449
   84MOL   C12915235   3.883   6.234   1.073  0.7509  0.4917  0.1723
   84MOL   C13015236   3.820   6.144   1.186  0.3377  0.1643 -0.5699
   84MOL   H13115237   4.053   6.268   1.196 -0.5474 -0.0064  0.3612
   84MOL   H13215238   3.921   6.387   1.219 -0.2462 -0.0954  0.0360
   84MOL   H13315239   3.947   6.171   1.011  0.4211 -0.2829  0.6140
   84MOL   H13415240   3.750   6.069   1.150 -2.5588  2.5111 -0.0061
   84MOL   H13515241   3.905   6.104   1.242  0.8133  1.0209 -0.6611
   84MOL   H13615242   3.763   6.212   1.250  1.4068  0.6791 -0.1450
   84MOL   C13715243   3.764   6.302   0.999 -0.4550  0.3298  0.2720
   84MOL   C13815244   3.774   6.318   0.838  0.3861 -0.3173 -0.2696
   84MOL   C13915245   3.755   6.192   0.749 -0.7592 -0.6303  0.6457
   84MOL   H14015246   3.671   6.258   1.035 -0.6824  1.8958  1.6549
   84MOL   H14115247   3.774   6.403   1.040  1.3388 -0.1973  1.1660
   84MOL   H14215248   3.869   6.369   0.823 -0.0724  1.8930  3.6908
   84MOL   H14315249   3.769   6.098   0.802 -0.0446 -2.2312 -2.2399
   84MOL   H14415250   3.656   6.188   0.704 -0.8369 -0.7427  0.8287
   84MOL   H14515251   3.827   6.202   0.668  0.9761  1.7478  2.4299
   84MOL   C14615252   3.668   6.419   0.790  0.4168  0.2546 -0.2672
   84MOL   C14715253   3.724   6.481   0.651 -0.9766 -0.2646 -0.1790
   84MOL   C14815254   3.598   6.553   0.593  0.3934  0.0353  0.1418
   84MOL   H14915255   3.570   6.372   0.778  1.6614 -2.3988 -0.3900
   84MOL   H15015256   3.654   6.491   0.871 -0.3915 -1.2607  0.9626
   84MOL   H15115257   3.748   6.391   0.594  2.1470 -0.1741  0.8889
   84MOL   H15215258   3.507   6.495   0.576 -1.3166  2.6086  0.3634
   84MOL   H15315259   3.567   6.641   0.650 -3.7300 -2.5044  2.0745
   84MOL   H15415260   3.620   6.605   0.501 -1.2958 -1.1278 -0.9489
   84MOL   C15515261   3.840   6.586   0.663 -0.4661 -0.4594  0.0768
   84MOL   C15615262   3.932   6.606   0.542  0.8450 -0.5214 -0.0945
   84MOL   C15715263   4.013   6.740   0.562  0.2106  0.3419 -0.8280
   84MOL   H15815264   3.789   6.682   0.672 -0.0803 -0.2440 -0.0349
   84MOL   H15915265   3.905   6.578   0.750  0.8188 -0.9843 -0.9147
   84MOL   H16015266   3.862   6.607   0.458  2.0790 -3.4078 -1.2319
   84MOL   H16115267   4.060   6.777   0.653  3.0966 -0.2371 -2.0162
   84MOL   H16215268   4.092   6.758   0.489  1.0444  1.2405  0.2718
   84MOL   H16315269   3.948   6.823   0.534  1.1160  1.1242 -0.6648
   84MOL   C16415270   4.016   6.483   0.521 -0.1426 -0.3244  0.0678
   84MOL   C16515271   4.081   6.474   0.381 -0.0155 -0.1738 -0.2647
   84MOL   C16615272   4.201   6.376   0.376  0.1487 -0.1202 -0.3472
   84MOL   H16715273   4.092   6.472   0.597 -0.2315  0.6652  0.3044
   84MOL   H16815274   3.952   6.399   0.550 -0.7976  0.4513  0.9299
   84MOL   H16915275   4.124   6.567   0.344  1.7893 -0.3063  1.4129
   84MOL   H17015276   4.158   6.276   0.377  0.1208 -0.1131 -0.7954
   84MOL   H17115277   4.260   6.370   0.285  1.6522 -1.8588  0.7042
   84MOL   H17215278   4.264   6.380   0.466 -1.0568 -2.7355  0.6419
   84MOL   C17315279   3.979   6.427   0.279 -0.2204  0.2348 -0.4423
   84MOL   C17415280   4.019   6.427   0.129 -0.2833 -0.5527 -0.2743
   84MOL   C17515281   3.910   6.407   0.033  0.4503 -0.4025  1.1039
   84MOL   H17615282   3.943   6.328   0.309  0.5633  0.2450  0.5614
   84MOL   H17715283   3.893   6.494   0.286  0.4703  0.9365  1.7608
   84MOL   H17815284   4.107   6.365   0.112  0.0110 -1.0412  2.6582
   84MOL   H17915285   3.859   6.312   0.045 -3.0099  1.0479 -1.2735
   84MOL   H18015286   3.833   6.480   0.055  0.0972 -0.3883 -0.1257
   84MOL   H18115287   3.952   6.415   7.630 -0.4643 -1.4927  0.6204
   84MOL   H18215288   4.063   6.526   0.114 -1.2103  0.5111  3.3529
   85MOL     C115289   4.815   6.484   3.134  0.2820  0.2521  0.2761
   85MOL     C215290   4.763   6.629   3.099  0.7391  0.6701  0.8608
   85MOL     C315291   4.884   6.721   3.077 -0.4602 -0.1731  0.8056
   85MOL     H415292   4.901   6.508   3.198  1.1703 -0.1964 -0.7291
   85MOL     H515293   4.849   6.430   3.046 -0.8588  1.3936 -0.8825
   85MOL     H615294   4.716   6.679   3.184 -0.2123  0.4734  0.4555
   85MOL     H715295   4.952   6.716   3.161 -0.5384  0.7132  0.9323
   85MOL     H815296   4.941   6.684   2.992 -1.4242 -0.7540  0.3982
   85MOL     H915297   4.849   6.822   3.055  0.0569 -0.1839 -0.0978
   85MOL    H1015298   4.731   6.431   3.180 -0.5521  0.0648 -1.4354
   85MOL    C1115299   4.670   6.650   2.977  0.5545  0.0642  1.0190
   85MOL    C1215300   4.535   6.581   2.986 -0.1360  0.5251  0.1999
   85MOL    C1315301   4.454   6.640   3.098  0.5727 -0.5455 -0.4631
   85MOL    H1415302   4.641   6.751   2.949  0.3080 -0.0398  0.9029
   85MOL    H1515303   4.724   6.618   2.888  0.7867 -0.4049  1.3239
   85MOL    H1615304   4.562   6.479   3.012 -0.1159  0.3604 -0.4843
   85MOL    H1715305   4.438   6.745   3.072  1.2664  0.1737  1.8564
   85MOL    H1815306   4.356   6.594   3.092  0.1862  0.5911 -3.7206
   85MOL    H1915307   4.504   6.637   3.195 -0.4783  0.5537  0.1155
   85MOL    C2015308   4.444   6.582   2.851 -0.2326  0.1190 -0.0746
   85MOL    C2115309   4.522   6.556   2.720  0.5128 -1.0345 -0.1513
   85MOL    C2215310   4.603   6.424   2.738  0.3689 -0.9091  0.0178
   85MOL    H2315311   4.368   6.505   2.860  2.3493 -2.4421  0.7241
   85MOL    H2415312   4.392   6.678   2.846  0.3860  0.5251  1.1625
   85MOL    H2515313   4.591   6.640   2.716 -1.2284  0.3712 -1.1475
   85MOL    H2615314   4.533   6.347   2.771  0.7996 -0.9668  0.7964
   85MOL    H2715315   4.649   6.383   2.648  0.7345 -0.1179 -0.1654
   85MOL    H2815316   4.680   6.429   2.814 -0.5672 -0.8324  0.9752
   85MOL    C2915317   4.417   6.559   2.600  0.2862 -0.3792 -0.0691
   85MOL    C3015318   4.441   6.680   2.506 -0.4623 -0.2067  0.2946
   85MOL    C3115319   4.372   6.803   2.564 -1.1591 -0.1017  0.6380
   85MOL    H3215320   4.424   6.466   2.543  0.5849  0.1676 -0.9312
   85MOL    H3315321   4.311   6.558   2.625 -0.1200  2.0097 -1.5470
   85MOL    H3415322   4.377   6.659   2.420  2.9447  1.3754 -2.7397
   85MOL    H3515323   4.429   6.839   2.649  1.1698 -2.5995  0.1919
   85MOL    H3615324   4.375   6.888   2.496  1.0131  1.1263  2.2195
   85MOL    H3715325   4.269   6.780   2.590 -0.9894  0.5205  1.8992
   85MOL    C3815326   4.579   6.706   2.448 -0.0213  0.0058 -0.5750
   85MOL    C3915327   4.653   6.578   2.395  0.4301  0.3117 -0.4147
   85MOL    C4015328   4.608   6.547   2.252 -0.3482  0.6109 -0.1437
   85MOL    H4115329   4.565   6.772   2.362  0.0495 -0.2991 -0.8172
   85MOL    H4215330   4.637   6.757   2.525 -0.3761 -1.1259  0.4476
   85MOL    H4315331   4.629   6.487   2.450  0.6465  0.4717 -0.0613
   85MOL    H4415332   4.637   6.447   2.219 -0.8798 -0.0393  1.3024
   85MOL    H4515333   4.499   6.551   2.248 -0.4282  0.4888  1.4644
   85MOL    H4615334   4.645   6.624   2.185 -1.6326  0.2748 -1.2557
   85MOL    C4715335   4.804   6.590   2.408  0.2786 -0.5348 -0.3856
   85MOL    C4815336   4.888   6.463   2.428 -0.6667  0.7793  0.0349
   85MOL    C4915337   4.883   6.358   2.317  0.3240 -0.6218 -0.6533
   85MOL    H5015338   4.847   6.641   2.322  2.0153  2.0202  1.8807
   85MOL    H5115339   4.832   6.642   2.501  0.8090  0.2758 -0.9857
   85MOL    H5215340   4.847   6.403   2.509 -0.6250  0.2080 -0.3616
   85MOL    H5315341   4.790   6.301   2.311  0.2688 -0.4720 -1.2489
   85MOL    H5415342   4.882   6.418   2.226  1.6933 -0.1505 -0.3687
   85MOL    H5515343   4.968   6.289   2.319  0.6152 -0.2448  0.1795
   85MOL    C5615344   5.031   6.499   2.465  0.6884  0.6983  0.1296
   85MOL    C5715345   5.060   6.563   2.603  0.3218  0.0373  0.4058
   85MOL    C5815346   5.014   6.479   2.717  0.6721  0.5423 -0.5129
   85MOL    H5915347   5.094   6.410   2.470  0.5708  0.5624 -0.8401
   85MOL    H6015348   5.082   6.546   2.381  2.1099 -1.2033 -0.1037
   85MOL    H6115349   5.010   6.660   2.604  1.7407  0.7862  0.0173
   85MOL    H6215350   4.907   6.457   2.727  0.8612 -0.6432 -1.0130
   85MOL    H6315351   5.052   6.378   2.703 -0.7574 -0.6312  3.2438
   85MOL    H6415352   5.055   6.502   2.816 -1.4451 -2.0564  1.0630
   85MOL    C6515353   5.205   6.615   2.610 -0.3526  0.0355 -0.8932
   85MOL    C6615354   5.250   6.696   2.741  0.1507  0.0089 -0.4109
   85MOL    C6715355   5.404   6.698   2.743  0.3811 -0.1458  0.6709
   85MOL    H6815356   5.274   6.531   2.608  1.5180  1.4696  1.0364
   85MOL    H6915357   5.237   6.666   2.520  2.3633  1.9217  1.0616
   85MOL    H7015358   5.222   6.652   2.837 -0.6072 -0.7073 -0.9538
   85MOL    H7115359   5.435   6.595   2.724 -2.5754 -1.0291  0.2411
   85MOL    H7215360   5.436   6.758   2.657 -2.2376  1.2828  0.6356
   85MOL    H7315361   5.451   6.725   2.837  1.5880 -2.9830  0.9272
   85MOL    C7415362   5.217   6.846   2.725 -0.7776 -0.0928 -0.1608
   85MOL    C7515363   5.084   6.901   2.773 -0.4359  0.9013  0.3117
   85MOL    C7615364   5.080   6.952   2.917 -0.0518 -0.4465  0.4533
   85MOL    H7715365   5.290   6.899   2.787  0.9996 -0.6910 -1.6895
   85MOL    H7815366   5.250   6.879   2.626 -0.8484 -1.7017 -0.7394
   85MOL    H7915367   5.018   6.815   2.784  0.9825 -0.2037  0.3276
   85MOL    H8015368   4.977   6.978   2.945 -0.0432 -0.5558  0.5867
   85MOL    H8115369   5.112   6.880   2.993  1.3569 -0.0899  0.2122
   85MOL    H8215370   5.139   7.041   2.939  1.5418 -1.8213  1.8249
   85MOL    C8315371   5.019   7.006   2.687  0.3769  0.2001 -0.4333
   85MOL    C8415372   4.990   6.976   2.541  0.0374  0.4626  0.1586
   85MOL    C8515373   4.845   6.928   2.521  0.1589  0.2263 -0.3981
   85MOL    H8615374   4.930   7.038   2.742  1.1315 -1.5484  1.8588
   85MOL    H8715375   5.093   7.087   2.695  0.2182  0.2930  0.1098
   85MOL    H8815376   5.046   6.887   2.512 -1.5809 -1.3544  2.3465
   85MOL    H8915377   4.844   6.899   2.416  2.7820 -0.1295 -0.3639
   85MOL    H9015378   4.820   6.850   2.593  2.2388 -0.4310 -0.3404
   85MOL    H9115379   4.781   7.015   2.538 -2.4590 -1.9814  1.5420
   85MOL    C9215380   5.020   7.093   2.441  0.6261  0.9368  0.2111
   85MOL    C9315381   5.174   7.112   2.415  0.6981 -0.4751 -0.4696
   85MOL    C9415382   5.223   7.018   2.312 -0.3548  0.6242  0.1709
   85MOL    H9515383   4.960   7.068   2.354 -0.4798 -2.1179  1.7705
   85MOL    H9615384   4.987   7.185   2.487  0.0304 -0.3531  2.4466
   85MOL    H9715385   5.229   7.089   2.506  0.8831  1.5633 -0.0511
   85MOL    H9815386   5.226   6.916   2.349  0.0184  1.0421  1.3002
   85MOL    H9915387   5.157   7.015   2.225 -2.2471  1.8425  1.5267
   85MOL   H10015388   5.327   7.036   2.285  0.1563 -2.6662 -0.2887
   85MOL   C10115389   5.215   7.259   2.381 -0.7682  0.6252  0.0619
   85MOL   C10215390   5.143   7.330   2.265 -0.5640 -0.1821 -0.2171
   85MOL   C10315391   5.112   7.475   2.312  0.2736 -0.2619 -0.3708
   85MOL   H10415392   5.194   7.326   2.465 -0.2569  0.2505  0.4923
   85MOL   H10515393   5.324   7.260   2.376 -0.7848 -0.6569 -0.7979
   85MOL   H10615394   5.041   7.295   2.252 -0.2696 -1.2988  0.4657
   85MOL   H10715395   5.203   7.519   2.354  0.4382 -2.7740  2.1105
   85MOL   H10815396   5.092   7.536   2.224  0.6374 -2.0759 -1.7449
   85MOL   H10915397   5.029   7.491   2.380 -0.4849  0.5847 -1.4784
   85MOL   C11015398   5.228   7.309   2.130 -0.6275 -0.1285  0.2565
   85MOL   C11115399   5.157   7.352   2.007  0.2221  0.1980 -0.1129
   85MOL   C11215400   5.257   7.341   1.892  0.1623 -0.3002  0.0093
   85MOL   H11315401   5.317   7.371   2.131  0.6192 -1.8883 -0.2670
   85MOL   H11415402   5.258   7.205   2.123  1.9562  0.7572 -3.0613
   85MOL   H11515403   5.133   7.458   2.017  1.1256  0.5739 -1.6781
   85MOL   H11615404   5.217   7.389   1.803 -1.2429  1.2992  1.5005
   85MOL   H11715405   5.348   7.400   1.906 -0.7108  1.1626 -0.4314
   85MOL   H11815406   5.279   7.236   1.869  1.6587  0.1958 -0.8721
   85MOL   C11915407   5.037   7.259   1.974  0.2685  0.3431 -0.3119
   85MOL   C12015408   4.961   7.277   1.843 -0.1988 -0.1155 -0.3844
   85MOL   C12115409   4.863   7.161   1.830  0.5341  0.1031 -0.3128
   85MOL   H12215410   5.073   7.156   1.981 -1.7757 -0.5038 -1.9201
   85MOL   H12315411   4.959   7.267   2.050 -0.0652 -0.1017 -0.6090
   85MOL   H12415412   5.033   7.270   1.760 -1.4621  0.0945 -1.5142
   85MOL   H12515413   4.817   7.155   1.732 -1.7717  1.1893  0.6488
   85MOL   H12615414   4.914   7.065   1.840  0.7067  0.0723 -1.4306
   85MOL   H12715415   4.776   7.169   1.896 -0.6840 -2.3942 -1.5317
   85MOL   C12815416   4.887   7.418   1.851 -0.5280  0.1235  0.0277
   85MOL   C12915417   4.790   7.456   1.738  0.2353  0.6938 -1.0207
   85MOL   C13015418   4.703   7.567   1.791 -0.2787 -0.1652 -0.0247
   85MOL   H13115419   4.846   7.427   1.951 -1.5791 -2.2716 -0.1603
   85MOL   H13215420   4.968   7.489   1.864 -0.6595  0.1298  0.8372
   85MOL   H13315421   4.718   7.375   1.726  1.0009 -0.5575  2.4107
   85MOL   H13415422   4.638   7.528   1.869 -1.2408  2.5510  0.5969
   85MOL   H13515423   4.757   7.656   1.824  0.1622 -0.7541  0.8739
   85MOL   H13615424   4.630   7.591   1.713 -0.5283  1.2363  0.6214
   85MOL   C13715425   4.852   7.492   1.597 -0.0656  0.1636 -0.2777
   85MOL   C13815426   4.899   7.381   1.505 -0.0224 -0.5503  0.7654
   85MOL   C13915427   4.772   7.317   1.446  0.0876  0.0970 -0.1208
   85MOL   H14015428   4.780   7.554   1.543  0.2717  0.0602 -0.8515
   85MOL   H14115429   4.931   7.564   1.616  2.2166 -1.2492 -3.8143
   85MOL   H14215430   4.952   7.306   1.564 -0.6542 -0.4030  1.5351
   85MOL   H14315431   4.716   7.264   1.523 -0.6991 -0.7971 -1.2978
   85MOL   H14415432   4.706   7.390   1.400 -0.6834 -0.6707 -0.2503
   85MOL   H14515433   4.783   7.240   1.369 -0.2479  1.1209 -1.1975
   85MOL   C14615434   4.992   7.434   1.390 -0.7984 -0.3706 -1.6089
   85MOL   C14715435   5.139   7.472   1.435 -0.4334  0.1510 -0.0266
   85MOL   C14815436   5.208   7.366   1.508 -0.2668 -0.9577 -0.5332
   85MOL   H14915437   5.006   7.353   1.318  1.2611 -0.0143 -1.6496
   85MOL   H15015438   4.933   7.511   1.339 -2.4208  1.3070  2.5870
   85MOL   H15115439   5.146   7.553   1.508 -3.4580 -1.9623  2.7374
   85MOL   H15215440   5.308   7.408   1.525 -0.0698 -0.7293 -2.0971
   85MOL   H15315441   5.158   7.357   1.603  1.9048  0.4748  0.7983
   85MOL   H15415442   5.200   7.279   1.443 -0.2947  0.2907 -2.2449
   85MOL   C15515443   5.211   7.514   1.302  0.3948 -0.4336 -0.2189
   85MOL   C15615444   5.149   7.639   1.230  0.1044 -0.2434  0.3024
   85MOL   C15715445   5.191   0.069   1.301  0.7978  0.0839  0.1748
   85MOL   H15815446   5.311   7.525   1.342  0.0599 -1.9002  1.0523
   85MOL   H15915447   5.222   7.429   1.235  0.3688 -2.1222  1.8884
   85MOL   H16015448   5.040   7.637   1.229  0.1103 -4.8834  0.6837
   85MOL   H16115449   5.132   0.157   1.274 -0.9909 -1.4436 -0.9659
   85MOL   H16215450   5.180   0.048   1.407  1.8830  1.2476  0.5402
   85MOL   H16315451   5.298   0.092   1.298  1.5587 -2.9145  2.5481
   85MOL   C16415452   5.201   7.647   1.082 -0.1889 -0.7064 -0.1948
   85MOL   C16515453   5.149   7.543   0.986 -0.3252  0.2840  0.1019
   85MOL   C16615454   4.997   7.546   0.968  0.0055  0.0574 -0.0208
   85MOL   H16715455   5.175   0.050   1.047 -0.3209 -0.5731  0.2754
   85MOL   H16815456   5.309   7.642   1.077  0.0871  2.5375  1.2539
   85MOL   H16915457   5.172   7.442   1.019 -0.4676  0.2716  0.1603
   85MOL   H17015458   4.976   7.476   0.886  1.3273  1.1185 -1.3041
   85MOL   H17115459   4.949   7.505   1.057  0.8347  1.3101  1.0240
   85MOL   H17215460   4.954   7.645   0.951 -0.3942 -0.0685  0.2551
   85MOL   C17315461   5.220   7.565   0.844  0.5811 -0.0186  0.3743
   85MOL   C17415462   5.373   7.600   0.831  0.3848 -0.2849 -0.8094
   85MOL   C17515463   5.462   7.483   0.874  0.1648 -0.1496 -0.8480
   85MOL   H17615464   5.206   7.472   0.789 -2.6865  0.1496  0.8305
   85MOL   H17715465   5.171   7.645   0.789 -0.3935 -1.7164 -1.2891
   85MOL   H17815466   5.400   7.683   0.896  0.4262 -0.8072 -0.1563
   85MOL   H17915467   5.455   7.447   0.977 -1.2085  0.4886 -0.7132
   85MOL   H18015468   5.420   7.396   0.824  1.0229 -1.1458  0.1297
   85MOL   H18115469   5.565   7.505   0.848  0.7662 -1.3069  0.4829
   85MOL   H18215470   5.398   7.628   0.729  0.4177  2.2145 -0.1399
   86MOL     C115471   4.066   2.586   0.899 -0.3147 -0.2524  0.6440
   86MOL     C215472   3.940   2.631   0.965 -0.4936  0.2712  0.5318
   86MOL     C315473   3.915   2.563   1.110 -0.2333 -0.3254 -0.0622
   86MOL     H415474   4.070   2.634   0.801 -0.5385  1.7147  1.5874
   86MOL     H515475   4.071   2.481   0.870 -2.7331 -0.2837  0.2418
   86MOL     H615476   3.865   2.586   0.899 -1.6150  0.1484  1.8517
   86MOL     H715477   3.898   2.456   1.097 -3.0085 -0.2286  2.2532
   86MOL     H815478   3.991   2.583   1.186 -2.0720  0.4162  1.6211
   86MOL     H915479   3.828   2.602   1.163  0.4144  1.8124 -0.5577
   86MOL    H1015480   4.155   2.607   0.957  0.1069  0.5831 -0.2892
   86MOL    C1115481   3.911   2.780   0.963 -0.1888 -0.3555 -0.2917
   86MOL    C1215482   4.006   2.868   1.046 -0.0560  0.0321 -0.2777
   86MOL    C1315483   4.107   2.953   0.962 -0.3930  0.7107 -1.2263
   86MOL    H1415484   3.916   2.821   0.863  1.1190 -0.4800 -0.2888
   86MOL    H1515485   3.813   2.796   1.008  0.9092  1.0450  1.6908
   86MOL    H1615486   4.059   2.796   1.109 -0.4969 -0.0980 -0.0560
   86MOL    H1715487   4.055   3.043   0.929 -1.2680  0.2516 -1.1264
   86MOL    H1815488   4.185   2.988   1.029 -2.9739  1.0003  1.7148
   86MOL    H1915489   4.152   2.900   0.878  1.1105  0.9372 -0.5848
   86MOL    C2015490   3.936   2.965   1.145  0.2026 -0.7624  0.6167
   86MOL    C2115491   3.873   2.908   1.269 -0.4675 -0.0904  0.2048
   86MOL    C2215492   3.979   2.899   1.380  0.6300  0.2177 -0.3852
   86MOL    H2315493   4.004   3.044   1.176 -1.9512  0.0901  3.3423
   86MOL    H2415494   3.866   3.018   1.080  1.4495 -0.6330 -0.6533
   86MOL    H2515495   3.828   2.812   1.245 -0.8855  0.2031 -0.2015
   86MOL    H2615496   4.022   2.992   1.417 -0.5281  0.1849  1.0552
   86MOL    H2715497   3.940   2.832   1.456 -0.2867  0.2955 -0.7757
   86MOL    H2815498   4.059   2.846   1.328  0.0287  0.1146 -1.2168
   86MOL    C2915499   3.768   3.004   1.330 -0.2816  0.1237 -0.5001
   86MOL    C3015500   3.627   2.998   1.266  0.0574 -0.0588  0.2593
   86MOL    C3115501   3.555   2.866   1.301 -0.0172 -0.1172 -0.5079
   86MOL    H3215502   3.753   2.964   1.430 -0.3145 -1.9818 -1.3245
   86MOL    H3315503   3.816   3.102   1.337 -0.5757  0.2490 -0.2077
   86MOL    H3415504   3.627   3.008   1.157 -3.0114 -0.1216  0.2087
   86MOL    H3515505   3.621   2.785   1.272 -0.1123 -0.3195 -0.1712
   86MOL    H3615506   3.535   2.867   1.409  1.2790  1.8267 -0.2635
   86MOL    H3715507   3.460   2.847   1.251  0.4605  0.3079 -1.5946
   86MOL    C3815508   3.540   3.124   1.314 -0.2792  0.4199 -0.1168
   86MOL    C3915509   3.594   3.269   1.276 -0.0795  0.1343  0.4426
   86MOL    C4015510   3.663   3.274   1.135 -0.5390 -0.0041 -0.5437
   86MOL    H4115511   3.441   3.117   1.271 -1.2974  1.9860  1.8760
   86MOL    H4215512   3.517   3.111   1.420  0.4373 -2.2048 -0.2299
   86MOL    H4315513   3.672   3.290   1.350  0.7706 -0.4131 -0.2977
   86MOL    H4415514   3.682   3.374   1.098  0.8190 -0.1660 -0.3389
   86MOL    H4515515   3.763   3.230   1.139 -0.2786  0.6380  0.2652
   86MOL    H4615516   3.611   3.219   1.056  1.7877 -1.4952 -1.1193
   86MOL    C4715517   3.482   3.375   1.305  0.7080  0.4234  0.3277
   86MOL    C4815518   3.431   3.403   1.443 -0.8856 -0.4955 -0.7070
   86MOL    C4915519   3.547   3.474   1.522  0.4845  0.0112  0.5631
   86MOL    H5015520   3.520   3.462   1.252 -0.5059  0.0321 -1.2119
   86MOL    H5115521   3.405   3.339   1.237  1.2878 -1.2230  0.5194
   86MOL    H5215522   3.414   3.305   1.487 -0.7233  0.0809  0.6710
   86MOL    H5315523   3.515   3.462   1.625  3.8783  0.1319  1.7176
   86MOL    H5415524   3.640   3.417   1.530  1.0395  0.5265 -1.6990
   86MOL    H5515525   3.565   3.573   1.481  1.2876 -0.6675 -0.7698
   86MOL    C5615526   3.303   3.479   1.479  0.1653  0.8157 -0.5296
   86MOL    C5715527   3.178   3.451   1.388 -0.4636  0.3472  0.1448
   86MOL    C5815528   3.051   3.493   1.472  0.8811  0.5630 -0.0042
   86MOL    H5915529   3.287   3.459   1.585 -1.4706  1.6994 -0.5966
   86MOL    H6015530   3.311   3.588   1.471 -2.1533  0.8888 -2.3356
   86MOL    H6115531   3.179   3.345   1.362  0.4376  0.2357  0.6137
   86MOL    H6215532   2.954   3.462   1.433 -0.2579  3.1261  0.6852
   86MOL    H6315533   3.057   3.432   1.562  0.6630  0.8408  0.2011
   86MOL    H6415534   3.040   3.600   1.491 -1.2177  0.4680 -0.5446
   86MOL    C6515535   3.182   3.527   1.251 -0.7359 -0.2598 -0.1451
   86MOL    C6615536   3.114   3.475   1.119 -0.3573  0.1941  0.8263
   86MOL    C6715537   2.962   3.446   1.124 -0.2194 -0.1719  0.3009
   86MOL    H6815538   3.158   3.633   1.258  0.7797  0.1300 -0.7619
   86MOL    H6915539   3.287   3.531   1.223 -0.3524  2.5863  1.4772
   86MOL    H7015540   3.160   3.380   1.089 -3.3600 -0.9098 -0.4520
   86MOL    H7115541   2.924   3.419   1.222 -0.1365 -0.8455  0.1475
   86MOL    H7215542   2.905   3.536   1.101 -0.4144  0.0399  1.5927
   86MOL    H7315543   2.936   3.373   1.048  0.1369 -0.0617  0.0664
   86MOL    C7415544   3.140   3.565   0.999 -0.3729 -0.2731  0.2918
   86MOL    C7515545   3.276   3.542   0.936  0.1984  0.4470 -0.8786
   86MOL    C7615546   3.278   3.412   0.854 -0.5032 -0.7222  0.1795
   86MOL    H7715547   3.063   3.549   0.923  0.0091 -2.2460  0.2937
   86MOL    H7815548   3.121   3.668   1.029 -1.3201 -0.6507  1.0169
   86MOL    H7915549   3.347   3.546   1.019  0.0502 -0.9397 -0.6668
   86MOL    H8015550   3.250   3.328   0.918  1.2910  0.3903  2.4836
   86MOL    H8115551   3.207   3.409   0.771 -0.7877  1.9507  0.2760
   86MOL    H8215552   3.371   3.387   0.805 -1.2423 -2.4915 -0.3502
   86MOL    C8315553   3.321   3.666   0.852  0.0425  0.4296  0.4125
   86MOL    C8415554   3.388   3.785   0.924  0.7117 -0.1929  0.5228
   86MOL    C8515555   3.526   3.762   0.989 -0.0657  0.3519 -0.3810
   86MOL    H8615556   3.385   3.637   0.769 -1.4550  2.2982 -1.4431
   86MOL    H8715557   3.238   3.700   0.791 -0.3153 -0.6985  0.2612
   86MOL    H8815558   3.324   3.816   1.006  0.8722  0.7409  0.2960
   86MOL    H8915559   3.596   3.728   0.913  2.0963  1.0231  1.2894
   86MOL    H9015560   3.559   3.846   1.050  0.6665 -0.8882  0.9352
   86MOL    H9115561   3.519   3.687   1.068 -0.6078  2.0140  1.1951
   86MOL    C9215562   3.398   3.902   0.820  0.5354 -1.1712  0.3475
   86MOL    C9315563   3.414   4.037   0.898  0.6958 -0.1329 -0.3271
   86MOL    C9415564   3.505   4.132   0.827 -0.3125  0.2970  0.5609
   86MOL    H9515565   3.487   3.882   0.760 -0.0960  0.0621 -1.0278
   86MOL    H9615566   3.308   3.916   0.760  0.3160  0.9328  1.1407
   86MOL    H9715567   3.475   4.025   0.987 -0.0036  0.1784  0.2024
   86MOL    H9815568   3.469   4.168   0.731 -0.5023  3.4949  1.7646
   86MOL    H9915569   3.520   4.222   0.887  2.4099 -0.4743  1.0969
   86MOL   H10015570   3.602   4.089   0.806 -0.3110  0.0590  1.0392
   86MOL   C10115571   3.275   4.106   0.938 -0.0315 -0.5176  0.9607
   86MOL   C10215572   3.283   4.168   1.076  0.2159  0.1666  0.3620
   86MOL   C10315573   3.183   4.287   1.086  0.3158  0.1172 -0.1192
   86MOL   H10415574   3.256   4.181   0.862  1.4679  1.2597  2.2786
   86MOL   H10515575   3.189   4.047   0.906 -2.2699  2.9840  0.1870
   86MOL   H10615576   3.380   4.203   1.109  0.9617 -1.5667  0.0605
   86MOL   H10715577   3.119   4.285   1.173 -2.4808  1.0847 -2.0903
   86MOL   H10815578   3.244   4.377   1.083  2.7110 -1.4547 -0.8601
   86MOL   H10915579   3.117   4.297   1.000  1.1633  0.4557 -0.7388
   86MOL   C11015580   3.240   4.060   1.176  0.0736  0.9430  0.2472
   86MOL   C11115581   3.235   4.101   1.325 -0.5051  0.5728  0.0722
   86MOL   C11215582   3.086   4.078   1.373  0.0875  0.0212 -0.1935
   86MOL   H11315583   3.141   4.031   1.141 -0.0505 -0.9870  2.1061
   86MOL   H11415584   3.284   3.962   1.160 -1.8192  0.0272  0.5055
   86MOL   H11515585   3.254   4.208   1.327  1.3356  0.3477 -2.9271
   86MOL   H11615586   3.008   4.117   1.308 -0.1175  1.2159  0.7521
   86MOL   H11715587   3.062   3.978   1.409 -0.3983  0.1287 -0.2122
   86MOL   H11815588   3.067   4.142   1.460  1.4874  2.3968 -1.5852
   86MOL   C11915589   3.325   4.017   1.410 -0.0736 -0.1538 -0.4894
   86MOL   C12015590   3.480   4.032   1.393  0.5063  0.8687 -0.5260
   86MOL   C12115591   3.518   4.181   1.409 -0.1978  0.4167  0.8982
   86MOL   H12215592   3.300   4.020   1.516 -1.0222  1.3044 -0.7476
   86MOL   H12315593   3.306   3.914   1.380  2.0343 -0.8015  0.2954
   86MOL   H12415594   3.501   3.996   1.293  4.4184 -2.7719  1.4544
   86MOL   H12515595   3.464   4.244   1.339 -0.3537 -2.8702 -2.1119
   86MOL   H12615596   3.512   4.229   1.507 -3.5750 -0.0670  0.9758
   86MOL   H12715597   3.623   4.194   1.382 -0.0005 -2.1864  0.1900
   86MOL   C12815598   3.557   3.947   1.495 -0.4031  0.4628  0.5575
   86MOL   C12915599   3.709   3.970   1.511  0.5487  0.1298  0.6778
   86MOL   C13015600   3.760   3.869   1.619 -0.6965  0.4681 -0.6701
   86MOL   H13115601   3.513   3.961   1.594 -3.9135  0.9047 -0.9768
   86MOL   H13215602   3.544   3.841   1.473  0.0101  0.2506  1.3276
   86MOL   H13315603   3.737   4.069   1.547  1.3051 -0.4889  1.8349
   86MOL   H13415604   3.791   3.779   1.567 -2.4714 -0.7608  0.3464
   86MOL   H13515605   3.857   3.898   1.661 -0.1459 -0.6491 -1.1482
   86MOL   H13615606   3.695   3.854   1.705 -0.4678 -1.5039 -0.8262
   86MOL   C13715607   3.779   3.948   1.380 -0.4839  0.0266 -0.1268
   86MOL   C13815608   3.933   3.971   1.376  0.6873  0.7244  0.2397
   86MOL   C13915609   3.978   3.908   1.249 -0.5341  0.6403  0.1773
   86MOL   H14015610   3.757   3.852   1.333 -0.9043 -0.0428  0.2140
   86MOL   H14115611   3.739   4.019   1.307 -1.8781 -1.3516 -0.7485
   86MOL   H14215612   3.980   3.913   1.455 -2.6999 -3.6663 -0.7296
   86MOL   H14315613   3.926   3.939   1.158 -1.2736 -2.1902 -0.4170
   86MOL   H14415614   4.082   3.934   1.229 -0.9447  0.2397 -2.6828
   86MOL   H14515615   3.969   3.799   1.245 -4.1967  0.8700  0.7888
   86MOL   C14615616   3.972   4.116   1.380  0.8081  0.4164  0.7492
   86MOL   C14715617   4.017   4.178   1.516 -0.2141 -0.5003  0.3451
   86MOL   C14815618   4.150   4.135   1.572 -0.3697  0.1305  0.3439
   86MOL   H14915619   4.054   4.141   1.313 -0.2026  1.4572 -0.1210
   86MOL   H15015620   3.890   4.178   1.345  0.2793 -0.4805  0.4027
   86MOL   H15115621   3.938   4.150   1.585 -0.4352  1.2995  0.8428
   86MOL   H15215622   4.172   4.173   1.671  0.6151 -1.4169  0.7329
   86MOL   H15315623   4.152   4.026   1.576 -0.4632  0.1356  0.4887
   86MOL   H15415624   4.236   4.168   1.514  1.1771 -1.8559  1.4402
   86MOL   C15515625   4.014   4.335   1.513  0.3690 -0.0602 -0.2711
   86MOL   C15615626   3.870   4.395   1.514 -0.4213  0.7759  0.7507
   86MOL   C15715627   3.805   4.387   1.655  0.1144 -0.6011  0.1305
   86MOL   H15815628   4.067   4.382   1.596  0.4522 -3.3603  1.6263
   86MOL   H15915629   4.063   4.366   1.421  1.1688 -0.5418 -0.0103
   86MOL   H16015630   3.811   4.333   1.446  1.8848 -1.4207  0.6550
   86MOL   H16115631   3.697   4.396   1.643  0.4709  1.1624 -2.1381
   86MOL   H16215632   3.810   4.292   1.708 -0.8041  0.5302  2.2988
   86MOL   H16315633   3.846   4.463   1.721 -1.3037 -1.4227  1.9972
   86MOL   C16415634   3.860   4.535   1.459 -0.3602 -0.1501  0.1874
   86MOL   C16515635   3.726   4.581   1.394  0.8899 -0.2410  0.3058
   86MOL   C16615636   3.705   4.737   1.394 -0.2229  0.2704  0.1980
   86MOL   H16715637   3.884   4.609   1.535  1.4051  2.1063 -2.4503
   86MOL   H16815638   3.932   4.533   1.377  0.2546  1.6234  0.6584
   86MOL   H16915639   3.644   4.537   1.451 -1.2905 -1.7269 -3.7460
   86MOL   H17015640   3.789   4.793   1.352  0.2680 -1.3682 -1.0652
   86MOL   H17115641   3.613   4.767   1.343 -0.4237 -0.5594  0.0619
   86MOL   H17215642   3.701   4.784   1.492  0.7370  1.1073 -0.1602
   86MOL   C17315643   3.720   4.520   1.250 -0.2698  0.1071  0.0154
   86MOL   C17415644   3.580   4.509   1.183  0.3103  0.9346  0.8790
   86MOL   C17515645   3.587   4.492   1.027  0.1776 -0.4189 -1.2574
   86MOL   H17615646   3.775   4.576   1.175  2.6425 -0.4402  1.6812
   86MOL   H17715647   3.767   4.423   1.230  1.7244  0.9129  0.7339
   86MOL   H17815648   3.524   4.600   1.205  1.6462  2.4619 -1.8049
   86MOL   H17915649   3.650   4.410   0.994  0.0658 -0.7843 -0.5670
   86MOL   H18015650   3.484   4.470   0.997 -0.6310 -0.2442  1.2601
   86MOL   H18115651   3.628   4.586   0.990 -2.5446  1.7407  0.9739
   86MOL   H18215652   3.520   4.429   1.225  4.2304 -1.8954  1.4163
   87MOL     C115653   3.245   7.234   6.238 -0.0351 -0.0298  0.1969
   87MOL     C215654   3.311   7.113   6.176 -0.4793 -0.0771 -0.0530
   87MOL     C315655   3.352   7.160   6.033 -0.3246 -0.0779 -0.0615
   87MOL     H415656   3.300   7.324   6.211 -2.2767  0.4319 -3.1093
   87MOL     H515657   3.242   7.209   6.344 -2.7767 -1.7601 -0.2553
   87MOL     H615658   3.232   7.038   6.167  0.5031 -1.2050  0.5431
   87MOL     H715659   3.265   7.188   5.974 -0.9007 -1.9073 -0.1138
   87MOL     H815660   3.424   7.242   6.032 -1.0385  0.5452 -0.6802
   87MOL     H915661   3.396   7.082   5.971 -0.2940 -0.6465  0.6663
   87MOL    H1015662   3.142   7.237   6.203  0.4458 -1.0773 -1.3581
   87MOL    C1115663   3.433   7.062   6.256  0.5318  0.1076  0.2797
   87MOL    C1215664   3.497   6.939   6.195  0.0631  0.3815  0.2610
   87MOL    C1315665   3.642   6.919   6.248  0.6988 -0.2501  0.4295
   87MOL    H1415666   3.499   7.148   6.262  0.4218  0.0962  1.8145
   87MOL    H1515667   3.409   7.035   6.359 -1.4634  0.1193 -0.1538
   87MOL    H1615668   3.504   6.949   6.086  2.5358 -0.9209  0.2622
   87MOL    H1715669   3.669   6.819   6.212  0.0184 -0.7414  1.2642
   87MOL    H1815670   3.702   7.000   6.207  1.3341  0.3832  2.5393
   87MOL    H1915671   3.638   6.905   6.356  5.3389 -1.8984  0.5049
   87MOL    C2015672   3.408   6.809   6.218 -0.8727  0.2406  0.6062
   87MOL    C2115673   3.470   6.673   6.172 -1.0605  0.0741 -0.2089
   87MOL    C2215674   3.541   6.589   6.290 -0.1715  0.2615 -0.5819
   87MOL    H2315675   3.386   6.796   6.324 -0.4256 -0.2062  0.6395
   87MOL    H2415676   3.315   6.829   6.163  0.7811  1.5455 -1.8019
   87MOL    H2515677   3.554   6.689   6.104  0.4849 -2.0373  1.1423
   87MOL    H2615678   3.584   6.497   6.250 -0.2617 -0.6947  1.4770
   87MOL    H2715679   3.628   6.646   6.325 -1.5003  2.2916 -0.4624
   87MOL    H2815680   3.472   6.566   6.371  1.0168 -2.9024 -0.4208
   87MOL    C2915681   3.362   6.592   6.107  0.3248  0.4469 -0.2737
   87MOL    C3015682   3.318   6.639   5.964  0.4015 -0.1178  0.3589
   87MOL    C3115683   3.414   6.592   5.853 -0.4058  0.2546  0.7231
   87MOL    H3215684   3.391   6.487   6.102  1.6577  0.8527 -1.8024
   87MOL    H3315685   3.275   6.587   6.171 -0.4397  0.3010 -1.3111
   87MOL    H3415686   3.314   6.748   5.960  0.4692  0.0723  4.0944
   87MOL    H3515687   3.520   6.612   5.864 -0.4071  0.4457  0.4012
   87MOL    H3615688   3.400   6.485   5.839  0.5421  0.2599 -0.3184
   87MOL    H3715689   3.389   6.633   5.755  2.5230  0.8436  0.1823
   87MOL    C3815690   3.170   6.585   5.937  0.3782 -0.1593  0.8036
   87MOL    C3915691   3.060   6.659   6.024  0.7123 -0.2235 -0.9119
   87MOL    C4015692   3.021   6.795   5.969  0.0548 -0.3517 -0.2309
   87MOL    H4115693   3.154   6.610   5.833 -1.9244  1.7010  1.5785
   87MOL    H4215694   3.164   6.478   5.960 -1.5537  0.0555  1.3288
   87MOL    H4315695   3.094   6.669   6.127  0.2365 -2.5790 -0.4894
   87MOL    H4415696   3.081   6.874   6.015 -0.7316  0.3250 -0.3731
   87MOL    H4515697   3.028   6.800   5.860 -0.4183  2.3198 -0.1805
   87MOL    H4615698   2.917   6.817   5.991 -0.0276  1.0497 -1.8391
   87MOL    C4715699   2.939   6.568   6.053  0.1706 -0.6915  0.0513
   87MOL    C4815700   2.834   6.552   5.946 -0.0394 -0.1005  0.3041
   87MOL    C4915701   2.890   6.493   5.808 -0.1052 -0.4179 -0.0199
   87MOL    H5015702   2.969   6.470   6.089 -0.4236 -0.7594  0.3734
   87MOL    H5115703   2.897   6.606   6.147  0.0514  2.2004 -1.1130
   87MOL    H5215704   2.781   6.641   5.912 -0.2651 -0.9492 -1.6139
   87MOL    H5315705   2.955   6.405   5.813  2.1762  1.1549 -1.3241
   87MOL    H5415706   2.804   6.464   5.748  0.3369 -1.3382 -0.2142
   87MOL    H5515707   2.944   6.570   5.753  0.3456  1.2446  2.6829
   87MOL    C5615708   2.730   6.448   5.993  0.1981  0.7188  0.0738
   87MOL    C5715709   2.580   6.487   5.988 -0.0745  0.5870  0.2735
   87MOL    C5815710   2.522   6.425   5.851 -1.0309 -0.1517 -0.5103
   87MOL    H5915711   2.734   6.358   5.932 -1.0509  1.0374 -0.4909
   87MOL    H6015712   2.751   6.417   6.096 -0.0182 -1.6115 -0.5552
   87MOL    H6115713   2.571   6.596   5.979 -0.1925  0.4441 -1.6989
   87MOL    H6215714   2.497   6.320   5.839 -1.1818 -0.1489 -0.2235
   87MOL    H6315715   2.426   6.474   5.831 -1.6708 -2.1909 -2.6452
   87MOL    H6415716   2.584   6.449   5.765  1.5118 -1.0522  1.0119
   87MOL    C6515717   2.497   6.440   6.107 -0.4348  0.3228 -0.5503
   87MOL    C6615718   2.527   6.503   6.250 -0.8781 -0.4395  0.7991
   87MOL    C6715719   2.533   6.656   6.246 -0.0463  0.1054  0.0860
   87MOL    H6815720   2.394   6.447   6.072 -0.1347 -1.1308 -1.7932
   87MOL    H6915721   2.515   6.333   6.117  0.5831  0.8306  4.3682
   87MOL    H7015722   2.630   6.477   6.275  0.2118  2.4359 -0.5728
   87MOL    H7115723   2.564   6.695   6.343 -0.8701 -0.1428  0.4636
   87MOL    H7215724   2.604   6.698   6.175  0.1008  0.9648  0.7367
   87MOL    H7315725   2.440   6.707   6.219 -1.2876 -1.4301  1.3004
   87MOL    C7415726   2.432   6.448   6.362  0.3770 -0.4742 -0.4748
   87MOL    C7515727   2.436   6.298   6.379  0.7381 -0.0701  0.2431
   87MOL    C7615728   2.574   6.251   6.436  0.3631  0.1542 -0.2171
   87MOL    H7715729   2.457   6.489   6.460  1.4117  0.8353 -1.2650
   87MOL    H7815730   2.330   6.485   6.349  0.2945  0.3242  2.2080
   87MOL    H7915731   2.431   6.235   6.290  1.0792  2.1907 -1.4408
   87MOL    H8015732   2.659   6.268   6.370  0.0886 -3.0038 -1.5079
   87MOL    H8115733   2.580   6.287   6.539 -1.9303  1.8643 -0.6568
   87MOL    H8215734   2.585   6.143   6.447 -1.6254 -0.1598 -1.1353
   87MOL    C8315735   2.323   6.249   6.475  1.0211  0.2381 -0.5350
   87MOL    C8415736   2.188   6.221   6.405  0.2539  0.0105  0.3547
   87MOL    C8515737   2.202   6.094   6.321 -0.4101  0.0751 -0.2062
   87MOL    H8615738   2.358   6.152   6.510 -1.0516 -0.7408 -1.0686
   87MOL    H8715739   2.311   6.304   6.567 -0.5297 -0.5280 -0.2590
   87MOL    H8815740   2.158   6.304   6.341  2.5920 -0.3243 -1.2273
   87MOL    H8915741   2.103   6.077   6.280  0.5053 -1.4646 -1.8959
   87MOL    H9015742   2.276   6.099   6.241  0.1647 -0.7852  0.2599
   87MOL    H9115743   2.218   6.005   6.382  0.9436  0.1422 -0.4459
   87MOL    C9215744   2.077   6.191   6.511  0.0658 -0.9164  0.2894
   87MOL    C9315745   1.996   6.316   6.569 -0.0550 -0.6044  0.2712
   87MOL    C9415746   2.080   6.420   6.643 -0.1849 -0.3219 -0.3454
   87MOL    H9515747   2.000   6.137   6.457 -1.1699  0.3644  0.7312
   87MOL    H9615748   2.107   6.135   6.600 -0.1730  0.5851  1.3480
   87MOL    H9715749   1.934   6.294   6.656  1.4037 -0.0150  1.4613
   87MOL    H9815750   2.131   6.371   6.726 -0.7924 -0.9026 -0.3102
   87MOL    H9915751   2.148   6.470   6.573  0.2377  0.9584  0.9634
   87MOL   H10015752   2.024   6.498   6.695 -0.9596 -1.2258  0.1833
   87MOL   C10115753   1.918   6.372   6.449 -0.5243  0.0621  0.4290
   87MOL   C10215754   1.791   6.450   6.480 -0.2878 -0.1270  0.6220
   87MOL   C10315755   1.765   6.551   6.370  0.1632  0.2762 -0.6938
   87MOL   H10415756   1.995   6.428   6.396  0.8690 -1.1736  1.0958
   87MOL   H10515757   1.886   6.296   6.378 -2.1256  1.3910 -0.2836
   87MOL   H10615758   1.811   6.510   6.569  0.9749  1.9997 -1.0627
   87MOL   H10715759   1.831   6.637   6.382  1.3152 -0.9060  1.9794
   87MOL   H10815760   1.754   6.514   6.269  0.8657 -0.2634 -0.5749
   87MOL   H10915761   1.670   6.601   6.388 -0.3299 -0.3743 -1.4652
   87MOL   C11015762   1.670   6.358   6.513  0.2591 -0.0810 -0.0885
   87MOL   C11115763   1.583   6.377   6.647  1.0573 -0.0087 -0.4854
   87MOL   C11215764   1.669   6.361   6.773 -0.2183  0.3844  0.7027
   87MOL   H11315765   1.595   6.366   6.434  1.4002 -0.2365 -1.1939
   87MOL   H11415766   1.700   6.253   6.505 -0.6772 -0.8051  4.2767
   87MOL   H11515767   1.514   6.292   6.644  2.8624 -1.5961  0.9099
   87MOL   H11615768   1.734   6.445   6.800 -1.1397  0.8257  1.6059
   87MOL   H11715769   1.604   6.347   6.859 -0.2586 -2.6601  0.2257
   87MOL   H11815770   1.723   6.266   6.766  1.4260  1.4304 -1.3212
   87MOL   C11915771   1.498   6.509   6.643 -0.5222  0.3426  0.7119
   87MOL   C12015772   1.401   6.522   6.757  0.2388  0.0848  0.4881
   87MOL   C12115773   1.375   6.671   6.777  0.1284 -0.8803  0.4114
   87MOL   H12215774   1.574   6.587   6.646  0.3305 -0.4928  1.0032
   87MOL   H12315775   1.436   6.511   6.553  0.8483  0.5469 -0.2305
   87MOL   H12415776   1.456   6.487   6.844  3.5796  3.2824 -0.1975
   87MOL   H12515777   1.464   6.734   6.771 -0.7189  0.4432  1.3074
   87MOL   H12615778   1.313   6.719   6.702  1.7483  1.4523  0.5050
   87MOL   H12715779   1.329   6.695   6.873  1.4181 -0.2470  0.8916
   87MOL   C12815780   1.272   6.440   6.744  0.2381  0.1388 -0.4128
   87MOL   C12915781   1.193   6.431   6.878  0.0325  0.1365 -0.1080
   87MOL   C13015782   1.048   6.396   6.846 -0.4900  0.0210  0.5754
   87MOL   H13115783   1.206   6.486   6.671  2.8619  1.6996 -1.8424
   87MOL   H13215784   1.298   6.340   6.709 -0.5791 -0.4547  0.6363
   87MOL   H13315785   1.183   6.535   6.909 -0.7326  0.1565 -0.4064
   87MOL   H13415786   1.021   6.290   6.835 -2.2498  0.6523 -1.4758
   87MOL   H13515787   0.998   6.430   6.937  0.8097  3.5054  0.0552
   87MOL   H13615788   1.016   6.465   6.769  0.9622  0.2490  0.1576
   87MOL   C13715789   1.267   6.354   6.987 -0.2375  0.7523 -0.0702
   87MOL   C13815790   1.190   6.324   7.118 -0.4302  0.1642 -0.0438
   87MOL   C13915791   1.275   6.239   7.207  0.0777 -0.4626  0.2116
   87MOL   H14015792   1.318   6.267   6.946  0.2867  1.0613 -0.0781
   87MOL   H14115793   1.343   6.426   7.020  1.5642 -0.7093 -0.9487
   87MOL   H14215794   1.104   6.264   7.089  0.3992  0.0806 -2.4947
   87MOL   H14315795   1.308   6.155   7.146 -0.6974 -0.8875  0.3693
   87MOL   H14415796   1.359   6.296   7.247 -1.3938  0.4590  2.0458
   87MOL   H14515797   1.211   6.203   7.288  1.6749  2.3347  2.8523
   87MOL   C14615798   1.150   6.464   7.186  0.3242  1.0872  0.2063
   87MOL   C14715799   1.100   6.467   7.335  0.6160  0.6089  0.2473
   87MOL   C14815800   1.073   6.613   7.375 -0.2855 -0.2913 -0.0514
   87MOL   H14915801   1.230   6.537   7.182  1.6408 -0.3484  0.0516
   87MOL   H15015802   1.066   6.503   7.129  0.9438  1.4491 -0.4635
   87MOL   H15115803   1.182   6.427   7.394 -2.2182 -1.0646  3.2070
   87MOL   H15215804   1.065   6.684   7.293 -0.8819 -1.8355 -1.3723
   87MOL   H15315805   0.988   6.631   7.441 -0.9943  0.6782 -1.2213
   87MOL   H15415806   1.157   6.655   7.431  0.0088  0.4412 -1.0333
   87MOL   C15515807   0.979   6.376   7.345  0.5033 -0.3484 -0.3634
   87MOL   C15615808   0.956   6.298   7.484  0.1813  0.3511  0.0444
   87MOL   C15715809   0.981   6.386   7.610 -0.4568 -0.0707 -0.5533
   87MOL   H15815810   0.885   6.430   7.332  1.4312  0.9663 -1.6838
   87MOL   H15915811   0.977   6.304   7.264  0.1320  1.7325 -2.2487
   87MOL   H16015812   1.025   6.214   7.486  1.0891  0.8681 -4.5296
   87MOL   H16115813   0.921   6.476   7.609  0.9860  0.9484  1.4267
   87MOL   H16215814   0.952   6.338   0.006 -0.1912 -1.8078 -1.3397
   87MOL   H16315815   1.085   6.418   7.614 -0.3271 -0.6949  1.7090
   87MOL   C16415816   0.814   6.244   7.496 -0.3085 -0.3129  0.4205
   87MOL   C16515817   0.773   6.128   7.408  0.2267 -0.4705  0.0399
   87MOL   C16615818   0.827   5.990   7.443 -0.1527 -0.1085 -0.0147
   87MOL   H16715819   0.798   6.207   7.597 -0.8060  0.8892  0.7926
   87MOL   H16815820   0.763   6.340   7.495  0.3588  0.0467 -0.2473
   87MOL   H16915821   0.817   6.155   7.312 -1.6871 -1.3310 -1.0904
   87MOL   H17015822   0.788   5.962   7.541 -0.1731  1.6125  0.4796
   87MOL   H17115823   0.809   5.916   7.366 -1.2935 -0.0184  0.1614
   87MOL   H17215824   0.934   5.984   7.462 -0.1658 -1.4278 -0.3023
   87MOL   C17315825   0.620   6.135   7.386 -0.0889  0.7067  0.1370
   87MOL   C17415826   0.567   6.026   7.290  0.3153  0.0339 -0.2027
   87MOL   C17515827   0.426   6.072   7.242  0.1799  0.6013  0.4796
   87MOL   H17615828   0.566   6.132   7.480 -0.4371  0.1406 -0.0793
   87MOL   H17715829   0.604   6.238   7.355 -0.4510  0.6097  0.0010
   87MOL   H17815830   0.571   5.928   7.339  1.3055  0.1289 -0.0866
   87MOL   H17915831   0.435   6.157   7.174  0.0518  0.1282 -0.1403
   87MOL   H18015832   0.375   5.991   7.190 -0.5840  0.2290  1.7967
   87MOL   H18115833   0.373   6.110   7.329  0.3464  1.5781  0.1555
   87MOL   H18215834   0.625   6.022   7.198  1.5038 -0.3300  0.5533
   88MOL     C115835   2.651   4.212   7.214  0.3313 -0.1379 -0.1314
   88MOL     C215836   2.702   4.192   7.354  0.1762 -0.2269 -0.7494
   88MOL     C315837   2.581   4.159   7.443  0.2167 -0.3615 -0.3457
   88MOL     H415838   2.563   4.276   7.207 -0.5002 -1.0833  1.3533
   88MOL     H515839   2.623   4.119   7.164  2.0111 -1.1797  0.8214
   88MOL     H615840   2.744   4.288   7.381  2.7290 -1.8025  1.0562
   88MOL     H715841   2.493   4.218   7.418  0.4899  0.2918  0.2113
   88MOL     H815842   2.546   4.056   7.440 -1.9715  0.3419  0.4965
   88MOL     H915843   2.602   4.171   7.549 -0.1560  1.8805 -0.4899
   88MOL    H1015844   2.721   4.265   7.149  0.4048  0.4094  0.3913
   88MOL    C1115845   2.810   4.082   7.376 -0.5563 -0.1739 -0.4277
   88MOL    C1215846   2.943   4.092   7.302  1.0615  0.8371  0.7800
   88MOL    C1315847   3.041   4.191   7.362  0.3045  0.5320  0.2818
   88MOL    H1415848   2.840   4.066   7.480 -1.2256  0.9684 -0.0500
   88MOL    H1515849   2.762   3.986   7.360  0.1190 -0.4907 -0.5688
   88MOL    H1615850   2.928   4.120   7.198  0.2225  0.4696  0.7990
   88MOL    H1715851   3.005   4.293   7.348 -1.3273 -0.3573 -2.3546
   88MOL    H1815852   3.077   4.170   7.463  1.8784  1.3165 -0.0990
   88MOL    H1915853   3.129   4.202   7.299  2.0858  0.7388  2.7652
   88MOL    C2015854   3.003   3.952   7.310 -0.0147 -0.5340 -0.9660
   88MOL    C2115855   2.955   3.865   7.193 -0.4039 -0.0246 -0.2800
   88MOL    C2215856   3.037   3.897   7.065 -0.0947  0.0653 -0.3353
   88MOL    H2315857   3.111   3.958   7.302  0.1031 -0.5904  0.4232
   88MOL    H2415858   3.000   3.902   7.407  0.4059  3.9452  1.4779
   88MOL    H2515859   2.851   3.891   7.176 -1.0784 -0.9354  2.1986
   88MOL    H2615860   2.984   3.869   6.973  1.0410  1.9538 -1.6113
   88MOL    H2715861   3.082   3.996   7.056 -0.3560  0.1165 -1.1104
   88MOL    H2815862   3.120   3.827   7.063  0.0720  0.1278  2.5988
   88MOL    C2915863   2.971   3.714   7.214 -0.9032 -0.1701 -0.9651
   88MOL    C3015864   2.899   3.622   7.106  0.1261  0.8481 -0.1631
   88MOL    C3115865   2.927   3.477   7.156 -0.3845 -0.0749  0.2520
   88MOL    H3215866   3.076   3.685   7.215 -0.1019  2.5654  3.2512
   88MOL    H3315867   2.935   3.705   7.316  0.5763  0.8576 -0.3425
   88MOL    H3415868   2.942   3.632   7.006 -2.8348 -1.5035 -1.7528
   88MOL    H3515869   2.893   3.398   7.088 -0.5033 -0.0047  0.2301
   88MOL    H3615870   3.034   3.468   7.170 -0.2126  1.3742 -0.1156
   88MOL    H3715871   2.879   3.462   7.253 -0.5349  0.8768  0.3231
   88MOL    C3815872   2.745   3.648   7.095 -0.4272 -0.6211  0.1726
   88MOL    C3915873   2.689   3.654   6.946  0.6102  0.4338 -0.0866
   88MOL    C4015874   2.745   3.537   6.856  0.3591  0.2562  0.0344
   88MOL    H4115875   2.677   3.587   7.154 -1.0540 -0.0797  0.0251
   88MOL    H4215876   2.722   3.738   7.152  0.1541 -0.1211 -0.3709
   88MOL    H4315877   2.725   3.738   6.887 -1.2244  0.8216 -0.6900
   88MOL    H4415878   2.678   3.514   6.774  1.3213 -0.7853 -0.4679
   88MOL    H4515879   2.850   3.546   6.828  0.4644 -0.2768  0.2481
   88MOL    H4615880   2.754   3.442   6.909  1.5829 -0.4173 -1.3603
   88MOL    C4715881   2.532   3.653   6.940 -0.1575 -0.1000  0.7539
   88MOL    C4815882   2.456   3.773   6.990 -0.2079  0.4355 -0.4522
   88MOL    C4915883   2.449   3.894   6.894  0.8276 -0.2399 -0.2665
   88MOL    H5015884   2.496   3.628   6.840  3.3036 -1.4855 -0.2141
   88MOL    H5115885   2.501   3.568   7.001  0.5870  1.4688  3.4194
   88MOL    H5215886   2.507   3.811   7.078 -0.4224 -2.1585  0.8453
   88MOL    H5315887   2.538   3.912   6.834  2.4228  1.0087  2.3921
   88MOL    H5415888   2.376   3.870   6.817 -1.7163  0.0161  1.9762
   88MOL    H5515889   2.421   3.993   6.932 -0.3996 -0.9601  0.7709
   88MOL    C5615890   2.320   3.723   7.050 -0.6156  0.2056  0.2309
   88MOL    C5715891   2.226   3.833   7.104 -0.0215  1.0343 -0.6950
   88MOL    C5815892   2.081   3.786   7.113  0.6001 -0.4130  0.1446
   88MOL    H5915893   2.274   3.668   6.968  0.4338 -1.2089  0.5571
   88MOL    H6015894   2.330   3.644   7.125 -2.6212 -1.0350 -0.7572
   88MOL    H6115895   2.204   3.913   7.033 -1.4432  1.5826  0.3596
   88MOL    H6215896   2.062   3.718   7.196  0.4836  1.5841  1.8140
   88MOL    H6315897   2.014   3.872   7.113 -0.0692 -0.9149 -1.9367
   88MOL    H6415898   2.051   3.731   7.025 -0.1480 -2.6766  1.7653
   88MOL    C6515899   2.267   3.888   7.244 -0.1425 -0.0629 -0.5245
   88MOL    C6615900   2.202   4.031   7.274  0.0193 -0.3146 -0.7392
   88MOL    C6715901   2.215   4.062   7.422  0.5267  0.3797 -0.0366
   88MOL    H6815902   2.239   3.816   7.321  0.1219 -0.9071 -1.2091
   88MOL    H6915903   2.374   3.898   7.255 -0.1270 -1.3383  0.5956
   88MOL    H7015904   2.095   4.026   7.256 -0.1419  1.7917 -0.4848
   88MOL    H7115905   2.163   3.989   7.485 -2.5319  0.5737 -2.2207
   88MOL    H7215906   2.317   4.073   7.457  0.5493 -0.3206  0.1311
   88MOL    H7315907   2.164   4.155   7.445 -0.0341 -0.3707  1.8580
   88MOL    C7415908   2.266   4.145   7.191  0.0929 -0.0337  0.0652
   88MOL    C7515909   2.209   4.290   7.200 -0.7145 -0.5034  0.2478
   88MOL    C7615910   2.303   4.384   7.129  0.6275  0.3352 -0.4910
   88MOL    H7715911   2.366   4.152   7.235  0.0812  1.6077 -0.1330
   88MOL    H7815912   2.276   4.118   7.086  0.5681 -0.9431  0.3393
   88MOL    H7915913   2.204   4.323   7.303  2.6586  0.9251  0.0269
   88MOL    H8015914   2.250   4.479   7.117  0.8068  0.3955 -0.8092
   88MOL    H8115915   2.403   4.410   7.163  1.4736 -0.0704 -2.6401
   88MOL    H8215916   2.315   4.339   7.031 -1.2257  1.3778 -1.2256
   88MOL    C8315917   2.064   4.303   7.151 -0.3720  0.6226 -0.5820
   88MOL    C8415918   1.950   4.285   7.256  0.5267 -0.7140 -0.4995
   88MOL    C8515919   1.909   4.404   7.346 -0.0371 -0.0853 -0.2707
   88MOL    H8615920   2.040   4.400   7.106 -0.4022  0.2374 -1.3881
   88MOL    H8715921   2.050   4.234   7.068  0.0102  0.1728 -0.2701
   88MOL    H8815922   1.970   4.209   7.332 -0.6923 -0.2212  0.3215
   88MOL    H8915923   1.996   4.439   7.403 -0.5694  0.8744 -0.0505
   88MOL    H9015924   1.873   4.490   7.291  3.5500  1.0356 -1.0376
   88MOL    H9115925   1.819   4.384   7.404 -0.3256  1.1849 -0.2707
   88MOL    C9215926   1.817   4.247   7.180  0.0697  0.5069 -0.6026
   88MOL    C9315927   1.791   4.097   7.148  0.2651  0.1849 -0.6651
   88MOL    C9415928   1.782   4.003   7.275  0.4225  0.7321 -0.0913
   88MOL    H9515929   1.732   4.281   7.240 -0.2720  1.6307 -1.6973
   88MOL    H9615930   1.811   4.304   7.087 -0.1240  1.7991  0.1858
   88MOL    H9715931   1.876   4.062   7.090  0.5968  1.0514 -0.7162
   88MOL    H9815932   1.864   4.022   7.345  0.0811  0.6198  0.3442
   88MOL    H9915933   1.682   4.005   7.318 -0.7966 -3.4877 -2.4183
   88MOL   H10015934   1.795   3.898   7.250  0.6901 -0.0564  3.1653
   88MOL   C10115935   1.671   4.082   7.054  0.1211  0.1972 -0.1323
   88MOL   C10215936   1.678   4.135   6.911 -0.2827  0.0427  0.3242
   88MOL   C10315937   1.800   4.091   6.833 -0.6102 -0.3480  0.0220
   88MOL   H10415938   1.642   3.977   7.049 -0.8523  0.4702 -0.1705
   88MOL   H10515939   1.592   4.141   7.100  1.1598  2.2041 -0.8388
   88MOL   H10615940   1.670   4.244   6.909  1.0751  0.1422 -0.8222
   88MOL   H10715941   1.817   3.989   6.866 -0.3170 -0.1939  0.3515
   88MOL   H10815942   1.784   4.092   6.725 -1.0627 -2.2956  0.0594
   88MOL   H10915943   1.883   4.152   6.868 -2.0467  2.7844 -1.8619
   88MOL   C11015944   1.560   4.078   6.834  0.3913  0.0468 -0.2875
   88MOL   C11115945   1.423   4.135   6.876 -0.2785 -0.0064 -1.1061
   88MOL   C11215946   1.406   4.281   6.846 -0.4872 -0.0818  0.1881
   88MOL   H11315947   1.575   4.096   6.728 -0.9700  0.8353 -0.3590
   88MOL   H11415948   1.570   3.970   6.846  0.5276 -0.0414 -1.1636
   88MOL   H11515949   1.421   4.125   6.985 -1.8254 -1.8501 -1.2678
   88MOL   H11615950   1.307   4.320   6.870 -0.6811  0.3682 -1.2765
   88MOL   H11715951   1.481   4.339   6.900 -0.8765 -0.1856  0.8464
   88MOL   H11815952   1.424   4.294   6.739  0.6139  1.2435  0.5280
   88MOL   C11915953   1.313   4.047   6.810  0.4431  0.5238  0.7276
   88MOL   C12015954   1.159   4.080   6.829  0.3928 -0.1811  0.1856
   88MOL   C12115955   1.081   4.015   6.722  0.0347  0.3227 -0.2829
   88MOL   H12215956   1.329   4.049   6.702 -0.9871 -1.3063  0.4559
   88MOL   H12315957   1.336   3.945   6.838  2.0553 -0.3334 -3.3702
   88MOL   H12415958   1.146   4.188   6.819  0.6164  0.0232  1.8890
   88MOL   H12515959   1.119   4.015   6.620  1.4164  0.8629  0.2199
   88MOL   H12615960   1.066   3.911   6.749  1.4967  0.1308 -0.1805
   88MOL   H12715961   0.979   4.054   6.715 -0.5830 -1.2566 -0.1059
   88MOL   C12815962   1.105   4.038   6.974 -0.5731 -0.0137  0.2507
   88MOL   C12915963   0.972   4.116   7.010 -0.9898 -0.3252 -0.5313
   88MOL   C13015964   0.858   4.022   7.045 -0.6480  0.4136 -0.4090
   88MOL   H13115965   1.082   3.932   6.973  0.4370 -0.2615  2.1066
   88MOL   H13215966   1.176   4.036   7.057 -2.2677 -0.6210  1.7225
   88MOL   H13315967   0.914   4.159   6.928 -3.3125  1.1857  1.8245
   88MOL   H13415968   0.773   4.079   7.084 -0.7517 -0.9064  1.3463
   88MOL   H13515969   0.827   3.963   6.958 -2.3338 -1.9301  1.7218
   88MOL   H13615970   0.882   3.944   7.116  0.2585  1.1854  0.1332
   88MOL   C13715971   1.001   4.217   7.117 -0.0312  0.5983 -0.1210
   88MOL   C13815972   1.083   4.335   7.072  0.0202  0.3918 -1.0484
   88MOL   C13915973   1.006   4.423   6.972 -0.2113  0.2453  0.3941
   88MOL   H14015974   0.906   4.256   7.153 -0.9137 -0.5618 -1.1409
   88MOL   H14115975   1.051   4.174   7.204 -1.0773 -0.0453  0.1814
   88MOL   H14215976   1.167   4.292   7.017  0.6601  0.2570  0.0346
   88MOL   H14315977   0.973   4.367   6.884  2.2038  0.1839 -0.5166
   88MOL   H14415978   0.920   4.467   7.022 -0.5391 -0.6238  0.6014
   88MOL   H14515979   1.072   4.499   6.929 -0.1937 -1.3925 -2.5776
   88MOL   C14615980   1.121   4.421   7.206 -0.2221 -0.3414  0.5192
   88MOL   C14715981   1.259   4.398   7.273  0.5225  0.2927 -0.2679
   88MOL   C14815982   1.297   4.250   7.299  0.1559 -0.2152 -0.5006
   88MOL   H14915983   1.100   4.526   7.186 -0.8468 -0.8227 -1.4500
   88MOL   H15015984   1.056   4.401   7.292 -0.0268 -1.3981  0.4328
   88MOL   H15115985   1.246   4.450   7.368  3.5878  1.3276 -0.3730
   88MOL   H15215986   1.303   4.198   7.203  1.4118  0.3096 -0.7187
   88MOL   H15315987   1.396   4.250   7.345 -0.7132  1.7874  1.4619
   88MOL   H15415988   1.230   4.198   7.367  3.0502  1.1198  3.5460
   88MOL   C15515989   1.371   4.457   7.189 -0.0262  0.3113  0.3289
   88MOL   C15615990   1.506   4.513   7.248  0.7923 -0.3348 -0.1880
   88MOL   C15715991   1.595   4.556   7.133  0.1394 -0.5768 -0.4514
   88MOL   H15815992   1.398   4.380   7.117 -1.8905  1.2925 -1.4691
   88MOL   H15915993   1.329   4.528   7.119  1.1017  1.1341  0.4784
   88MOL   H16015994   1.556   4.432   7.302  1.7145 -0.5121 -1.2616
   88MOL   H16115995   1.549   4.625   7.062  2.1636 -0.0362 -1.2859
   88MOL   H16215996   1.692   4.593   7.168 -0.4697  0.6395 -0.0326
   88MOL   H16315997   1.629   4.478   7.064  2.1741 -0.6207  0.5596
   88MOL   C16415998   1.474   4.623   7.348 -0.4036 -0.1735  0.9041
   88MOL   C16515999   1.571   4.705   7.418 -0.4469 -0.3117 -0.0962
   88MOL   C16616000   1.503   4.833   7.457  0.2810 -0.0550  0.0704
   88MOL   H16716001   1.410   4.682   7.283  2.0193 -0.4877 -1.8480
   88MOL   H16816002   1.412   4.579   7.426 -0.4784 -2.7614 -0.5483
   88MOL   H16916003   1.645   4.740   7.346 -0.1197 -0.3207  0.2358
   88MOL   H17016004   1.482   4.901   7.375 -0.3273 -0.6087 -0.2385
   88MOL   H17116005   1.406   4.812   7.504 -0.2196  1.5867 -0.1997
   88MOL   H17216006   1.555   4.893   7.531 -0.8972  0.8455  0.1908
   88MOL   C17316007   1.642   4.633   7.537 -0.8909  0.2195  0.3577
   88MOL   C17416008   1.775   4.708   7.581 -0.6770 -0.0217  0.2370
   88MOL   C17516009   1.872   4.630   7.681  0.5375 -0.6675 -0.2439
   88MOL   H17616010   1.582   4.613   7.626  0.4407  1.3221  1.5255
   88MOL   H17716011   1.661   4.532   7.499 -0.9080 -0.1821  1.3700
   88MOL   H17816012   1.747   4.795   7.641 -0.1366  1.0183 -0.9905
   88MOL   H17916013   1.958   4.688   0.018 -0.0953  0.5203 -0.6335
   88MOL   H18016014   1.823   4.580   0.068 -1.1631 -0.8819 -1.3339
   88MOL   H18116015   1.899   4.541   7.626  1.6975 -0.0243 -0.7185
   88MOL   H18216016   1.823   4.757   7.497 -0.9384 -1.6710 -0.9035
   89MOL     C116017   4.663   4.611   6.346 -0.0201  0.2577  0.5293
   89MOL     C216018   4.650   4.602   6.193  0.7083 -0.6061  0.5200
   89MOL     C316019   4.755   4.699   6.126 -0.2109 -0.2757  0.2151
   89MOL     H416020   4.601   4.534   6.391 -2.7988  0.7764 -2.2846
   89MOL     H516021   4.632   4.712   6.375 -0.0697  0.8988 -1.7264
   89MOL     H616022   4.551   4.645   6.176  0.3541 -0.7720  2.0897
   89MOL     H716023   4.853   4.696   6.174 -0.4767 -0.3366  0.7604
   89MOL     H816024   4.766   4.674   6.021  0.4203 -0.4385  0.3133
   89MOL     H916025   4.725   4.802   6.146 -0.2682 -0.1003 -0.7756
   89MOL    H1016026   4.768   4.616   6.376 -0.2694  1.2952  1.2711
   89MOL    C1116027   4.662   4.457   6.135  0.3385 -0.0967 -0.1676
   89MOL    C1216028   4.555   4.359   6.170  0.1437  0.4074 -0.0898
   89MOL    C1316029   4.411   4.415   6.152  0.1166 -0.1657  0.8878
   89MOL    H1416030   4.663   4.465   6.026 -0.7777 -0.6318 -0.2244
   89MOL    H1516031   4.762   4.424   6.162  0.4233  1.2435  1.1862
   89MOL    H1616032   4.568   4.343   6.277  0.1173 -2.6694 -0.5185
   89MOL    H1716033   4.397   4.516   6.191 -0.7933  1.0262 -2.3694
   89MOL    H1816034   4.398   4.420   6.044 -1.5408  0.8359  1.1063
   89MOL    H1916035   4.343   4.342   6.195 -0.8230 -0.4480 -1.0384
   89MOL    C2016036   4.575   4.220   6.114  0.3125 -0.0263  0.1161
   89MOL    C2116037   4.705   4.145   6.150 -0.9856  0.3655 -0.5579
   89MOL    C2216038   4.703   4.092   6.302 -0.3349 -0.0756  0.6109
   89MOL    H2316039   4.493   4.156   6.147 -0.2672  1.4264  1.5400
   89MOL    H2416040   4.568   4.226   6.005 -2.1061  2.3412  0.3534
   89MOL    H2516041   4.790   4.212   6.141 -0.6515 -0.2003 -1.7067
   89MOL    H2616042   4.673   4.164   6.378 -2.5522 -0.7822  0.4604
   89MOL    H2716043   4.636   4.007   6.314  0.4157 -0.6245  0.9583
   89MOL    H2816044   4.799   4.048   6.328 -0.9089 -0.8285  1.4956
   89MOL    C2916045   4.734   4.027   6.065  0.6154 -0.1156 -0.0646
   89MOL    C3016046   4.795   4.054   5.923 -0.7781 -0.2906 -0.2003
   89MOL    C3116047   4.938   4.108   5.928 -0.1878 -0.3209  0.3373
   89MOL    H3216048   4.798   3.956   6.117 -0.2669 -0.1855  0.9597
   89MOL    H3316049   4.641   3.973   6.047  0.8771 -0.2418 -1.0845
   89MOL    H3416050   4.738   4.138   5.883  3.3059  1.3350 -2.8532
   89MOL    H3516051   5.006   4.032   5.965  1.5410  0.1606 -1.7631
   89MOL    H3616052   4.967   4.152   5.833 -1.5197  0.0112  0.0699
   89MOL    H3716053   4.946   4.191   5.998  0.6898 -1.5526  1.7383
   89MOL    C3816054   4.783   3.923   5.839 -0.6350 -0.7474  0.4023
   89MOL    C3916055   4.826   3.929   5.693  0.4616 -0.0664  0.0780
   89MOL    C4016056   4.833   3.782   5.652  0.4346 -0.3970 -0.3241
   89MOL    H4116057   4.842   3.851   5.898  0.7146  1.0003  1.2269
   89MOL    H4216058   4.677   3.900   5.849 -0.3497 -2.7084 -0.8824
   89MOL    H4316059   4.928   3.967   5.686  0.8091 -0.6168  1.8722
   89MOL    H4416060   4.864   3.716   5.732 -2.8102 -1.2199  0.3200
   89MOL    H4516061   4.733   3.753   5.622 -0.1155  1.5651 -0.4831
   89MOL    H4616062   4.905   3.767   5.571  1.0663 -0.1106  0.1852
   89MOL    C4716063   4.723   4.006   5.599  0.0430  0.5822 -0.4321
   89MOL    C4816064   4.763   4.033   5.453 -0.3709 -0.6212 -0.2151
   89MOL    C4916065   4.668   3.997   5.345  0.5232  0.4923  0.4532
   89MOL    H5016066   4.633   3.944   5.603  1.1526 -1.0279  0.4857
   89MOL    H5116067   4.696   4.092   5.661 -0.3873  1.6189 -2.0343
   89MOL    H5216068   4.852   3.971   5.439 -2.0989 -2.8600 -1.6682
   89MOL    H5316069   4.575   4.052   5.359  0.1436 -0.2770  0.9441
   89MOL    H5416070   4.717   4.009   5.248 -0.4957 -1.4392 -0.3306
   89MOL    H5516071   4.650   3.890   5.359  1.3620  0.3111  0.1811
   89MOL    C5616072   4.797   4.186   5.439  0.7990  0.7944  0.0619
   89MOL    C5716073   4.910   4.242   5.528 -0.4201 -0.1301  0.3362
   89MOL    C5816074   5.049   4.181   5.490 -0.4481  0.0793  0.8354
   89MOL    H5916075   4.825   4.217   5.338  2.1370 -0.1751  0.1211
   89MOL    H6016076   4.706   4.241   5.465  0.1543  0.8093 -2.0825
   89MOL    H6116077   4.880   4.213   5.629 -3.5922  0.2478 -0.4309
   89MOL    H6216078   5.048   4.072   5.483  0.8415  0.0742  0.6080
   89MOL    H6316079   5.088   4.231   5.401  0.1372 -0.3595  0.8446
   89MOL    H6416080   5.126   4.202   5.564  0.5022 -1.0504  0.1772
   89MOL    C6516081   4.909   4.397   5.525 -0.1351 -0.1045 -0.2261
   89MOL    C6616082   4.813   4.473   5.618 -0.6839  0.5472 -0.5867
   89MOL    C6716083   4.843   4.435   5.762  0.3995 -0.4944 -0.4446
   89MOL    H6816084   5.013   4.430   5.531 -1.0383  3.2435 -1.9915
   89MOL    H6916085   4.881   4.420   5.422 -0.4541  1.8791  0.2921
   89MOL    H7016086   4.707   4.453   5.607 -0.6361  0.4826 -0.9361
   89MOL    H7116087   4.798   4.502   5.836 -0.2268 -1.2150 -0.1638
   89MOL    H7216088   4.806   4.334   5.783 -0.4577 -0.4693 -1.7591
   89MOL    H7316089   4.950   4.426   5.778  0.9597  3.5807 -1.3222
   89MOL    C7416090   4.809   4.634   5.603  0.2491 -0.4201 -0.1610
   89MOL    C7516091   4.743   4.679   5.470 -0.5624  0.3707 -0.5552
   89MOL    C7616092   4.589   4.659   5.472 -0.2840 -0.0681 -0.3657
   89MOL    H7716093   4.752   4.668   5.689 -2.5690 -1.3808 -1.6151
   89MOL    H7816094   4.908   4.679   5.614 -0.7871  3.0754 -3.8390
   89MOL    H7916095   4.783   4.624   5.385  0.2429 -1.3773  0.9041
   89MOL    H8016096   4.547   4.669   5.572 -0.2455  0.4926 -0.4049
   89MOL    H8116097   4.548   4.723   5.395  0.2991  0.0379 -0.5914
   89MOL    H8216098   4.568   4.554   5.452  0.1176 -0.7633  2.4998
   89MOL    C8316099   4.780   4.828   5.439  0.1994  0.5002  0.5416
   89MOL    C8416100   4.930   4.854   5.402 -0.0132  0.3488  0.0438
   89MOL    C8516101   4.983   4.763   5.286 -0.3684  0.2356 -0.7472
   89MOL    H8616102   4.723   4.874   5.358 -0.1444 -1.6797 -0.4790
   89MOL    H8716103   4.751   4.890   5.524  0.0586  2.8296 -1.1615
   89MOL    H8816104   4.989   4.833   5.492 -1.1426  0.3608  0.7891
   89MOL    H8916105   5.002   4.660   5.317  0.5100  0.5540 -0.2094
   89MOL    H9016106   4.930   4.790   5.194  1.8595  3.1256 -1.2550
   89MOL    H9116107   5.084   4.792   5.257  0.1720 -0.3628  0.5311
   89MOL    C9216108   4.955   5.000   5.368 -0.0868  0.7420  0.1721
   89MOL    C9316109   4.933   5.106   5.479 -0.3261 -0.2419 -1.2187
   89MOL    C9416110   5.039   5.104   5.591  0.1537 -0.0629 -0.1340
   89MOL    H9516111   5.063   5.010   5.351  0.4701 -1.1156  2.4307
   89MOL    H9616112   4.914   5.020   5.269  0.5265 -2.1753 -0.7114
   89MOL    H9716113   4.837   5.088   5.527  0.3443 -2.1989 -0.5689
   89MOL    H9816114   5.002   5.171   5.669 -0.1235 -1.4723  0.9901
   89MOL    H9916115   5.048   5.006   5.640  1.8604 -0.7479 -1.7876
   89MOL   H10016116   5.133   5.136   5.547 -0.2022 -1.2583 -1.8233
   89MOL   C10116117   4.930   5.250   5.421  0.8102  0.6985 -0.2550
   89MOL   C10216118   4.823   5.290   5.317 -0.0636 -0.4692  0.6878
   89MOL   C10316119   4.682   5.268   5.390 -0.3126 -0.5293 -0.1321
   89MOL   H10416120   4.929   5.319   5.505 -0.4116  1.2945 -0.7514
   89MOL   H10516121   5.028   5.256   5.374  1.3437 -1.5820  0.4707
   89MOL   H10616122   4.831   5.227   5.229  1.7316  0.3632  0.2434
   89MOL   H10716123   4.618   5.343   5.344  0.0208  0.7678  1.4670
   89MOL   H10816124   4.638   5.168   5.383 -1.6997  0.0241  0.5637
   89MOL   H10916125   4.686   5.288   5.497 -1.9868 -3.3819  0.5278
   89MOL   C11016126   4.835   5.432   5.267  0.2304  0.2909 -0.2208
   89MOL   C11116127   4.953   5.454   5.178  0.3562  0.1968 -0.7868
   89MOL   C11216128   4.934   5.381   5.044 -0.0563 -0.4007  0.7696
   89MOL   H11316129   4.744   5.464   5.218 -0.9078 -1.8144  0.4740
   89MOL   H11416130   4.843   5.494   5.357  0.3558  1.2902 -0.9167
   89MOL   H11516131   5.037   5.402   5.224 -0.7325  1.7040  3.1569
   89MOL   H11616132   4.938   5.272   5.045  1.1859 -0.3688  0.2493
   89MOL   H11716133   4.855   5.420   4.980  1.4605  0.9015 -0.3342
   89MOL   H11816134   5.022   5.401   4.983 -0.8726 -1.9628 -0.9545
   89MOL   C11916135   4.977   5.598   5.152 -0.4863 -0.7345 -0.2072
   89MOL   C12016136   5.033   5.701   5.264 -0.7137 -0.4223 -0.0028
   89MOL   C12116137   5.164   5.673   5.341 -0.4087 -0.2994  0.1162
   89MOL   H12216138   5.054   5.598   5.075  0.9045 -0.6121  1.1563
   89MOL   H12316139   4.882   5.635   5.113 -2.0599 -0.5835  3.4940
   89MOL   H12416140   4.964   5.710   5.348  0.2521  1.3663  0.6352
   89MOL   H12516141   5.240   5.697   5.266 -1.9985  1.5713 -0.9420
   89MOL   H12616142   5.174   5.732   5.432  1.9221  1.3927 -1.1649
   89MOL   H12716143   5.177   5.566   5.359 -2.7186 -0.6683 -0.2776
   89MOL   C12816144   5.048   5.844   5.204 -0.0013 -0.4586 -0.5179
   89MOL   C12916145   5.037   5.961   5.313 -0.1932 -0.3451  0.2574
   89MOL   C13016146   5.101   6.096   5.260 -1.1726  0.6123  0.4343
   89MOL   H13116147   5.141   5.854   5.148  1.6729  1.2042  2.3884
   89MOL   H13216148   4.962   5.851   5.139  0.6693  0.4824 -1.3068
   89MOL   H13316149   5.077   5.930   5.410 -1.0026  0.9798  1.0344
   89MOL   H13416150   5.079   6.179   5.327 -0.4610 -0.6943  2.3581
   89MOL   H13516151   5.210   6.102   5.265 -0.8143 -3.1647 -1.0006
   89MOL   H13616152   5.079   6.129   5.159 -1.5729  2.2639  1.0503
   89MOL   C13716153   4.886   5.995   5.327  1.5481  0.4201  0.2478
   89MOL   C13816154   4.834   5.948   5.457  0.4098  0.6132 -0.4775
   89MOL   C13916155   4.883   6.032   5.576 -0.0992  0.3003 -0.7635
   89MOL   H14016156   4.862   6.101   5.312  1.5898  0.1724 -1.6455
   89MOL   H14116157   4.829   5.951   5.245 -1.0108  0.7956  1.7681
   89MOL   H14216158   4.864   5.844   5.470 -0.0834  0.6456  0.9509
   89MOL   H14316159   4.808   6.032   5.655 -0.0347 -0.5142 -0.6985
   89MOL   H14416160   4.980   6.005   5.618 -1.1934 -1.4724  0.6596
   89MOL   H14516161   4.891   6.139   5.557 -1.8623  0.5731 -0.1027
   89MOL   C14616162   4.677   5.940   5.465 -0.0628 -0.5013 -0.4146
   89MOL   C14716163   4.612   5.835   5.373 -0.1138  0.3429 -0.0823
   89MOL   C14816164   4.631   5.695   5.441  0.9187 -0.6402 -0.4037
   89MOL   H14916165   4.640   5.917   5.565  1.3787  0.6312  0.4049
   89MOL   H15016166   4.626   6.036   5.451  0.4487 -0.2910 -0.8641
   89MOL   H15116167   4.648   5.841   5.271 -5.3133 -1.7213 -2.1843
   89MOL   H15216168   4.593   5.621   5.369  3.1140 -1.5657 -0.6523
   89MOL   H15316169   4.732   5.666   5.467  0.4805  0.5946  2.9326
   89MOL   H15416170   4.576   5.676   5.533 -0.0253 -0.9237 -1.0036
   89MOL   C15516171   4.465   5.854   5.335 -0.4188 -0.2981 -0.1049
   89MOL   C15616172   4.416   5.988   5.274 -0.2013  0.2932 -0.3137
   89MOL   C15716173   4.498   6.030   5.150 -0.5754 -0.6811 -0.2938
   89MOL   H15816174   4.434   5.774   5.267 -2.0021 -0.5806  0.9203
   89MOL   H15916175   4.406   5.831   5.423  0.4712  1.5015  0.9958
   89MOL   H16016176   4.429   6.063   5.353  1.3372 -0.1521 -0.1371
   89MOL   H16116177   4.500   5.952   5.073 -1.5994 -1.5597  0.5513
   89MOL   H16216178   4.445   6.117   5.111 -1.5870 -0.9846  0.3782
   89MOL   H16316179   4.600   6.059   5.174 -0.1176 -1.9726 -0.6726
   89MOL   C16416180   4.264   5.967   5.239  0.4303  0.3081  0.2508
   89MOL   C16516181   4.173   6.088   5.203 -0.4434  0.2393 -0.1296
   89MOL   C16616182   4.031   6.041   5.162 -0.5449 -0.3389  0.0207
   89MOL   H16716183   4.255   5.878   5.176 -1.2781  0.1221  0.7502
   89MOL   H16816184   4.221   5.931   5.332  2.0879  0.2893  1.0230
   89MOL   H16916185   4.218   6.146   5.122 -1.8683  0.1962 -0.9782
   89MOL   H17016186   3.966   6.123   5.132  0.2498  0.5129  0.5811
   89MOL   H17116187   4.037   5.980   5.072  1.0933 -0.7898  0.4320
   89MOL   H17216188   3.992   5.974   5.239 -0.9190 -0.9704 -0.7076
   89MOL   C17316189   4.166   6.189   5.318  0.3064 -0.3171  0.2509
   89MOL   C17416190   4.071   6.311   5.272 -0.7561 -0.1449  0.4084
   89MOL   C17516191   4.096   6.445   5.347 -0.0561  0.2709  0.4531
   89MOL   H17616192   4.135   6.154   5.417 -1.2675 -2.4086 -0.9546
   89MOL   H17716193   4.269   6.225   5.321  0.7703 -1.6907  1.8433
   89MOL   H17816194   3.964   6.292   5.287 -0.9897  0.3003 -0.6537
   89MOL   H17916195   4.194   6.486   5.323 -0.0176  1.2386  2.1780
   89MOL   H18016196   4.020   6.522   5.330  1.1510  1.5344  0.6646
   89MOL   H18116197   4.076   6.432   5.453 -2.6840 -0.6589 -0.1165
   89MOL   H18216198   4.080   6.324   5.164 -4.4339 -1.3131 -0.1186
   90MOL     C116199   2.177   2.289   2.461  0.4951 -0.3147 -0.5288
   90MOL     C216200   2.123   2.147   2.481  0.7021  0.7039  0.9789
   90MOL     C316201   2.066   2.128   2.615  0.4863 -0.0702  0.0160
   90MOL     H416202   2.095   2.361   2.459  1.0913  0.3464 -2.2034
   90MOL     H516203   2.231   2.298   2.367  2.7265  1.8773  0.9263
   90MOL     H616204   2.205   2.078   2.463  1.3756  1.4162  1.3045
   90MOL     H716205   2.067   2.023   2.646  1.1201 -0.4222 -1.1434
   90MOL     H816206   2.130   2.184   2.683 -1.3232 -0.8413  2.3955
   90MOL     H916207   1.967   2.169   2.632  0.2267  1.7549 -4.8786
   90MOL    H1016208   2.250   2.325   2.533 -0.4011  1.0640 -0.2821
   90MOL    C1116209   2.019   2.119   2.372 -0.2509  0.2715 -0.2840
   90MOL    C1216210   1.955   1.973   2.357  0.6125 -0.3619 -0.8939
   90MOL    C1316211   1.822   1.984   2.290  0.7537  0.0628 -0.4854
   90MOL    H1416212   1.938   2.191   2.378 -0.0246  0.4732  0.3431
   90MOL    H1516213   2.067   2.153   2.280 -0.1082  2.2220  0.4903
   90MOL    H1616214   1.938   1.942   2.461  2.4670 -1.1278 -0.8139
   90MOL    H1716215   1.830   1.998   2.182 -0.3830 -0.9749 -0.7203
   90MOL    H1816216   1.768   1.890   2.305 -0.0841  0.2349 -2.3055
   90MOL    H1916217   1.751   2.057   2.329  1.0055  0.2779 -0.4285
   90MOL    C2016218   2.046   1.864   2.302 -0.0158  0.6144  0.3855
   90MOL    C2116219   2.135   1.779   2.405 -0.3894 -0.5049  0.3423
   90MOL    C2216220   2.052   1.688   2.493 -0.5352 -0.5581  0.3066
   90MOL    H2316221   1.978   1.792   2.257 -0.4796  1.1980  0.1406
   90MOL    H2416222   2.100   1.900   2.215 -0.5045  1.4378  0.4208
   90MOL    H2516223   2.182   1.853   2.469 -0.8903  0.9124 -0.8977
   90MOL    H2616224   2.038   1.585   2.460  0.6798 -0.5241 -0.3413
   90MOL    H2716225   2.097   1.676   2.591  2.0322 -0.7938 -0.8466
   90MOL    H2816226   1.950   1.724   2.503 -0.1300  0.3225  1.4087
   90MOL    C2916227   2.259   1.708   2.337 -0.2258  0.2267 -0.3217
   90MOL    C3016228   2.383   1.800   2.300  0.1082 -0.4071 -0.5122
   90MOL    C3116229   2.464   1.841   2.428  0.3392  0.5654  0.0335
   90MOL    H3216230   2.300   1.637   2.409 -1.7614  0.1054  0.4419
   90MOL    H3316231   2.217   1.652   2.254 -0.0735  0.6936 -0.7146
   90MOL    H3416232   2.345   1.892   2.254  1.4355 -1.1385 -3.1853
   90MOL    H3516233   2.546   1.910   2.407  1.1279  0.3831  2.3715
   90MOL    H3616234   2.408   1.879   2.513  0.6413 -0.9886  0.9411
   90MOL    H3716235   2.513   1.751   2.465  1.4338  2.0766  2.3863
   90MOL    C3816236   2.470   1.730   2.189 -0.6499 -0.6028  0.1197
   90MOL    C3916237   2.597   1.794   2.140 -0.2584 -0.6872 -0.1489
   90MOL    C4016238   2.569   1.953   2.109  0.1169 -0.2987  0.4952
   90MOL    H4116239   2.502   1.630   2.218  0.0970 -0.1867  0.7504
   90MOL    H4216240   2.411   1.722   2.097 -1.5416  0.8853  0.5491
   90MOL    H4316241   2.614   1.747   2.043  0.9522  0.5792 -0.5620
   90MOL    H4416242   2.584   2.000   2.206 -1.2362  1.0005  0.0846
   90MOL    H4516243   2.634   1.997   2.033  0.5198 -0.3292  0.8176
   90MOL    H4616244   2.468   1.982   2.082  0.5765  0.7808 -0.1002
   90MOL    C4716245   2.720   1.752   2.221 -0.2280 -0.3800 -0.7685
   90MOL    C4816246   2.855   1.766   2.143 -0.3798 -0.7406  0.1175
   90MOL    C4916247   2.960   1.784   2.259 -0.0566 -0.4417  0.2191
   90MOL    H5016248   2.727   1.804   2.317 -0.1898  0.1755 -1.0739
   90MOL    H5116249   2.713   1.650   2.260 -1.7335  0.8218  2.3694
   90MOL    H5216250   2.855   1.858   2.085  1.9639  0.2725  1.6310
   90MOL    H5316251   2.965   1.688   2.310 -0.4830 -0.0185  1.0694
   90MOL    H5416252   3.059   1.807   2.219  1.2434 -1.2741  2.8479
   90MOL    H5516253   2.932   1.860   2.332  0.4473 -1.2105  1.2314
   90MOL    C5616254   2.881   1.644   2.055  0.0445 -0.4163 -0.4627
   90MOL    C5716255   3.029   1.636   2.001 -0.1782 -0.2463 -0.9462
   90MOL    C5816256   3.114   1.539   2.094  0.3919  0.0502  0.4595
   90MOL    H5916257   2.869   1.553   2.113 -0.3585 -1.1038 -1.6021
   90MOL    H6016258   2.811   1.641   1.971  0.6027 -0.9957 -0.9085
   90MOL    H6116259   3.083   1.730   2.004 -1.0345  0.2238  2.0628
   90MOL    H6216260   3.079   1.436   2.093 -0.8713  0.4716 -0.9030
   90MOL    H6316261   3.216   1.535   2.056  0.8096  0.8001  1.4818
   90MOL    H6416262   3.108   1.584   2.193 -1.1495  0.0664  0.3726
   90MOL    C6516263   3.034   1.595   1.857 -0.3921 -0.6812  0.1923
   90MOL    C6616264   3.155   1.637   1.785 -0.4780 -0.4336  0.3563
   90MOL    C6716265   3.163   1.544   1.660 -0.5782 -0.1188 -0.2597
   90MOL    H6816266   3.028   1.486   1.857  0.6794 -0.7531  1.1361
   90MOL    H6916267   2.956   1.644   1.798  0.9157 -0.7435 -1.6199
   90MOL    H7016268   3.240   1.604   1.845 -1.5167 -0.8325  1.6257
   90MOL    H7116269   3.252   1.565   1.599  0.2013  0.7610  1.1568
   90MOL    H7216270   3.163   1.438   1.687 -0.2056  0.2721  1.2741
   90MOL    H7316271   3.079   1.572   1.596 -1.5690  0.6581  1.3699
   90MOL    C7416272   3.161   1.783   1.744  0.1630  1.4927 -0.5850
   90MOL    C7516273   3.290   1.841   1.683  0.3108  0.4411 -0.0046
   90MOL    C7616274   3.236   1.964   1.609 -0.3052  0.3096  0.6938
   90MOL    H7716275   3.070   1.783   1.684  0.2001 -0.7576 -0.6876
   90MOL    H7816276   3.143   1.841   1.834 -2.0038 -1.6256  1.0953
   90MOL    H7916277   3.340   1.774   1.613  0.4470  0.9819 -0.4230
   90MOL    H8016278   3.313   2.012   1.549 -0.8378  0.6323  0.2590
   90MOL    H8116279   3.163   1.939   1.532  0.9973 -0.6182 -0.2435
   90MOL    H8216280   3.187   2.039   1.672  0.1545  0.4995  0.8252
   90MOL    C8316281   3.388   1.877   1.793  0.0081  1.1002 -0.6755
   90MOL    C8416282   3.496   1.979   1.757  0.4126 -0.3324  0.1010
   90MOL    C8516283   3.567   2.020   1.890 -0.2285  0.7632 -0.4542
   90MOL    H8616284   3.327   1.918   1.873 -0.2979 -2.2760  0.9090
   90MOL    H8716285   3.434   1.784   1.828 -1.3177 -0.0061 -1.8250
   90MOL    H8816286   3.451   2.072   1.725  0.2018 -0.9206 -1.3298
   90MOL    H8916287   3.492   2.051   1.962 -0.7291 -1.9856  0.2506
   90MOL    H9016288   3.624   1.941   1.939 -2.3088  0.2533  1.1822
   90MOL    H9116289   3.635   2.103   1.867 -0.5900  0.7516 -1.5979
   90MOL    C9216290   3.606   1.930   1.663 -0.3454 -0.0025  0.2944
   90MOL    C9316291   3.700   2.037   1.605 -0.6216 -0.7086 -0.4281
   90MOL    C9416292   3.817   1.956   1.536  0.0232 -0.2379  0.2011
   90MOL    H9516293   3.671   1.864   1.720  1.0850  1.9478  0.9565
   90MOL    H9616294   3.568   1.874   1.577  0.5825  2.6688 -1.9268
   90MOL    H9716295   3.732   2.104   1.685 -0.6893 -1.3761  0.1609
   90MOL    H9816296   3.874   1.900   1.610  0.7477  3.4535  2.5651
   90MOL    H9916297   3.790   1.880   1.463  1.4077 -1.1641  0.6355
   90MOL   H10016298   3.893   2.020   1.490  1.6771 -1.0251  1.7604
   90MOL   C10116299   3.631   2.126   1.506  0.2937  0.0518  0.7526
   90MOL   C10216300   3.700   2.251   1.453  0.4559  0.7845 -1.3081
   90MOL   C10316301   3.610   2.295   1.342 -0.7418 -0.4775  0.2691
   90MOL   H10416302   3.600   2.066   1.420 -0.1976 -1.1696  1.7676
   90MOL   H10516303   3.544   2.163   1.560  0.4153  2.0202 -0.3581
   90MOL   H10616304   3.796   2.222   1.412  0.9855 -0.3737  0.6461
   90MOL   H10716305   3.638   2.222   1.267  1.9062 -0.9553  1.6498
   90MOL   H10816306   3.504   2.282   1.360 -1.0911  1.7870 -0.1104
   90MOL   H10916307   3.633   2.390   1.295  2.2648 -0.5804  1.3766
   90MOL   C11016308   3.718   2.371   1.562  0.3223  0.6133  0.0775
   90MOL   C11116309   3.798   2.492   1.528 -0.0931 -0.5218  0.7960
   90MOL   C11216310   3.789   2.596   1.637  0.1091  1.2890  0.0182
   90MOL   H11316311   3.621   2.412   1.589  0.1359 -0.1064  0.5230
   90MOL   H11416312   3.755   2.320   1.651  2.1503  0.3830 -0.7884
   90MOL   H11516313   3.744   2.533   1.443  0.3246  0.1001  0.8276
   90MOL   H11616314   3.687   2.628   1.660 -0.4510  0.3320 -1.0539
   90MOL   H11716315   3.818   2.551   1.732  1.0099  0.3277 -0.7031
   90MOL   H11816316   3.849   2.684   1.617  0.3034  0.9236 -1.0363
   90MOL   C11916317   3.941   2.477   1.476 -0.4175  0.4353 -0.3809
   90MOL   C12016318   4.047   2.413   1.562  0.3281  0.4354  0.5246
   90MOL   C12116319   4.018   2.267   1.608 -0.6235  0.1147  0.4059
   90MOL   H12216320   3.938   2.418   1.384 -1.6131  0.4198 -0.3407
   90MOL   H12316321   3.981   2.573   1.444  1.4541 -0.0912  0.3298
   90MOL   H12416322   4.057   2.468   1.655 -1.5039  2.8814 -0.6596
   90MOL   H12516323   4.003   2.202   1.521 -0.3813 -1.1286  1.2815
   90MOL   H12616324   4.112   2.224   1.640  1.9239  3.2083 -2.6083
   90MOL   H12716325   3.949   2.273   1.693  0.2382  2.0771  0.9920
   90MOL   C12816326   4.199   2.425   1.501  0.6597 -0.7047 -0.5408
   90MOL   C12916327   4.249   2.564   1.451  0.0184  0.5426 -0.4408
   90MOL   C13016328   4.224   2.671   1.562 -0.3757  0.5585 -0.6512
   90MOL   H13116329   4.263   2.390   1.581 -3.1638 -1.7238  2.2338
   90MOL   H13216330   4.196   2.355   1.418  1.6159 -0.9856 -0.3344
   90MOL   H13316331   4.188   2.592   1.365 -0.2116  1.1095 -0.0950
   90MOL   H13416332   4.294   2.754   1.549  1.0216 -0.6329 -0.7844
   90MOL   H13516333   4.122   2.704   1.545 -0.1659  0.2026 -2.7223
   90MOL   H13616334   4.236   2.626   1.660  0.9491 -0.4282 -1.2544
   90MOL   C13716335   4.393   2.545   1.413 -0.5542  0.2381  0.3572
   90MOL   C13816336   4.458   2.643   1.317  0.2992 -0.4079  0.4688
   90MOL   C13916337   4.606   2.619   1.324 -0.1261 -0.2179  0.4070
   90MOL   H14016338   4.447   2.541   1.507  2.5366 -1.5010 -1.3887
   90MOL   H14116339   4.403   2.449   1.361  2.1303 -0.6585  2.4127
   90MOL   H14216340   4.440   2.743   1.356  0.2374 -0.1923 -0.1031
   90MOL   H14316341   4.629   2.522   1.280 -0.2124  0.1246 -0.4033
   90MOL   H14416342   4.665   2.693   1.269  0.6242 -0.3792  0.9866
   90MOL   H14516343   4.644   2.613   1.426 -2.0269 -2.3099  1.0502
   90MOL   C14616344   4.407   2.638   1.175  0.3685  0.0747  0.6324
   90MOL   C14716345   4.490   2.723   1.080 -0.7425  0.4258  0.4839
   90MOL   C14816346   4.437   2.700   0.930  0.1984  0.4446 -0.9572
   90MOL   H14916347   4.403   2.533   1.148 -0.5951  0.0449  0.8714
   90MOL   H15016348   4.304   2.671   1.165  0.6788  0.9793  0.3284
   90MOL   H15116349   4.591   2.680   1.080 -2.0044 -2.7309 -0.7044
   90MOL   H15216350   4.450   2.595   0.903  2.1067  0.0102  1.5121
   90MOL   H15316351   4.334   2.729   0.911 -0.3337  0.8646  2.4380
   90MOL   H15416352   4.501   2.750   0.856  0.7556 -1.0647 -1.5099
   90MOL   C15516353   4.482   2.873   1.114  0.1460  0.2051 -0.0085
   90MOL   C15616354   4.557   2.979   1.016  0.1229  0.1271  0.4844
   90MOL   C15716355   4.534   3.113   1.086 -0.2499  0.7765 -0.0626
   90MOL   H15816356   4.378   2.905   1.125  0.0455  0.2341 -0.9749
   90MOL   H15916357   4.511   2.892   1.217 -0.1434 -0.1210  0.1348
   90MOL   H16016358   4.512   2.973   0.917  4.1712 -1.2173 -1.3498
   90MOL   H16116359   4.427   3.126   1.106 -0.2451 -1.1176  1.3572
   90MOL   H16216360   4.579   3.114   1.186  1.2424  0.5088 -0.7218
   90MOL   H16316361   4.574   3.194   1.025 -2.3543  2.8408  1.2095
   90MOL   C16416362   4.712   2.945   1.012  0.1062  0.6387  0.3861
   90MOL   C16516363   4.797   3.040   0.930 -0.0910  0.3719 -0.3090
   90MOL   C16616364   4.930   3.067   1.004  0.0057  0.1505  0.1306
   90MOL   H16716365   4.750   2.948   1.114  0.4113  0.5513  0.2733
   90MOL   H16816366   4.720   2.844   0.972 -0.0276 -0.1080  2.2024
   90MOL   H16916367   4.756   3.141   0.941  0.4604  0.5703 -0.0544
   90MOL   H17016368   4.915   3.131   1.091  2.4320  1.1148 -0.1274
   90MOL   H17116369   4.975   2.971   1.031 -0.1363 -0.3841 -1.4726
   90MOL   H17216370   5.004   3.118   0.943  1.4820  0.0155  1.7583
   90MOL   C17316371   4.820   3.012   0.781  0.4958 -0.3094  0.5386
   90MOL   C17416372   4.690   2.963   0.703  0.7012  0.7588  0.3685
   90MOL   C17516373   4.705   2.939   0.550 -1.1874 -0.1061  0.0340
   90MOL   H17616374   4.855   3.107   0.741  0.9326 -0.7633 -0.1605
   90MOL   H17716375   4.901   2.942   0.766  0.2915 -0.1612 -1.3164
   90MOL   H17816376   4.607   3.031   0.721  1.7001  2.3276 -0.8520
   90MOL   H17916377   4.611   2.909   0.503 -0.5300  1.4898 -2.3618
   90MOL   H18016378   4.729   3.032   0.499  1.5520 -1.2392 -0.8330
   90MOL   H18116379   4.781   2.867   0.519 -0.1765 -0.1811  2.5929
   90MOL   H18216380   4.657   2.864   0.737 -1.5759  0.5784 -2.1649
   91MOL     C116381   6.706   2.660   3.318 -0.0699  0.6681  0.0569
   91MOL     C216382   6.657   2.622   3.465 -0.3448 -0.3760 -0.1889
   91MOL     C316383   6.534   2.709   3.508  0.4549  0.4287 -0.1241
   91MOL     H416384   6.629   2.634   3.245  0.1725 -2.7694  0.9382
   91MOL     H516385   6.804   2.618   3.299  0.4965  1.4460  1.2180
   91MOL     H616386   6.740   2.649   3.531 -1.9174  1.1392  1.2125
   91MOL     H716387   6.446   2.679   3.450  0.2214 -1.1551  1.0241
   91MOL     H816388   6.504   2.695   3.612 -1.9544 -0.6634 -0.9281
   91MOL     H916389   6.550   2.816   3.494 -3.0260  1.0756  0.2821
   91MOL    H1016390   6.728   2.766   3.318  3.2587  0.0432 -1.5802
   91MOL    C1116391   6.644   2.467   3.503 -0.2235  0.3349  0.2740
   91MOL    C1216392   6.753   2.379   3.440  0.3176  0.2173  0.3856
   91MOL    C1316393   6.890   2.419   3.493  0.0144 -0.1636 -0.4679
   91MOL    H1416394   6.639   2.462   3.612 -1.7037  0.6064  0.2405
   91MOL    H1516395   6.547   2.430   3.468 -0.3003  1.8691 -1.2126
   91MOL    H1616396   6.759   2.404   3.334  2.2811 -2.5868 -0.2205
   91MOL    H1716397   6.905   2.526   3.480  2.3390 -0.5246 -0.8821
   91MOL    H1816398   6.889   2.411   3.602  0.0662  1.0487 -0.3749
   91MOL    H1916399   6.971   2.353   3.463  0.0507 -0.8361  1.0536
   91MOL    C2016400   6.735   2.229   3.474  0.2746 -0.5501  0.2460
   91MOL    C2116401   6.621   2.162   3.390 -0.1788 -0.1669 -0.7642
   91MOL    C2216402   6.685   2.107   3.256  0.1702 -0.1952  0.3172
   91MOL    H2316403   6.822   2.177   3.433 -0.4261  0.7854 -3.1750
   91MOL    H2416404   6.735   2.215   3.582 -0.3009 -2.6785  0.0084
   91MOL    H2516405   6.553   2.242   3.362 -2.2570 -2.0175 -1.1326
   91MOL    H2616406   6.761   2.029   3.260  0.0699 -0.2849  0.4676
   91MOL    H2716407   6.612   2.085   3.178 -0.2246 -0.4955  0.7704
   91MOL    H2816408   6.739   2.193   3.217 -1.2463  0.7932  0.5018
   91MOL    C2916409   6.544   2.055   3.470 -0.0283 -0.1232 -0.1260
   91MOL    C3016410   6.425   1.989   3.389 -0.1592  0.6793  0.0046
   91MOL    C3116411   6.403   1.846   3.449  0.2264 -0.3733 -0.3725
   91MOL    H3216412   6.612   1.974   3.495  2.3812  0.4382 -4.2887
   91MOL    H3316413   6.495   2.091   3.561 -1.1051 -0.4848 -0.5563
   91MOL    H3416414   6.454   1.964   3.287  1.2446  0.6192  0.4131
   91MOL    H3516415   6.500   1.797   3.458  1.3020  1.2496 -2.4602
   91MOL    H3616416   6.352   1.855   3.545 -0.1264 -0.1380 -0.5791
   91MOL    H3716417   6.339   1.793   3.378  0.0051 -0.3057 -0.2212
   91MOL    C3816418   6.289   2.066   3.367 -0.2203 -0.1630  0.1509
   91MOL    C3916419   6.236   2.073   3.226 -0.0006 -0.1457  0.1400
   91MOL    C4016420   6.089   2.097   3.229 -0.2240  0.0271  0.1771
   91MOL    H4116421   6.218   2.042   3.446  0.2466  3.4577  1.7851
   91MOL    H4216422   6.306   2.167   3.405  1.6163 -0.1832 -0.5535
   91MOL    H4316423   6.246   1.976   3.178 -1.8573 -1.4422  2.3011
   91MOL    H4416424   6.055   2.136   3.133 -0.1763  0.6839  0.4238
   91MOL    H4516425   6.031   2.007   3.248 -0.0570  0.4339  2.8182
   91MOL    H4616426   6.072   2.177   3.301  2.2810  1.4143 -0.7034
   91MOL    C4716427   6.305   2.184   3.156 -0.2333  0.5602  0.0668
   91MOL    C4816428   6.297   2.184   3.007  0.0058  0.0939 -0.8005
   91MOL    C4916429   6.284   2.330   2.964  0.1428  0.6793  0.2424
   91MOL    H5016430   6.271   2.280   3.196  0.3496  1.7232 -2.1432
   91MOL    H5116431   6.409   2.178   3.186 -0.0939 -1.3272 -0.7615
   91MOL    H5216432   6.202   2.134   2.986  0.6752 -1.3530 -0.4209
   91MOL    H5316433   6.275   2.347   2.857  1.5605  1.2497  0.2021
   91MOL    H5416434   6.188   2.375   2.993 -0.8997 -2.6669  2.2759
   91MOL    H5516435   6.366   2.392   3.000  0.0015  0.8586  0.2561
   91MOL    C5616436   6.415   2.117   2.941 -1.0063  0.2622 -0.0847
   91MOL    C5716437   6.439   1.967   2.958 -0.5082 -0.2463  0.6784
   91MOL    C5816438   6.316   1.882   2.919  0.0291 -0.4314  0.2948
   91MOL    H5916439   6.410   2.121   2.832 -3.0416  1.8822  0.0466
   91MOL    H6016440   6.503   2.167   2.982 -0.8436 -1.6688  2.0054
   91MOL    H6116441   6.449   1.958   3.066 -0.6321 -0.0145  0.7097
   91MOL    H6216442   6.332   1.775   2.916 -0.6091 -0.5267  0.1664
   91MOL    H6316443   6.235   1.899   2.990 -2.2794 -0.9289 -2.1083
   91MOL    H6416444   6.294   1.911   2.816  0.2046 -0.1549  0.3319
   91MOL    C6516445   6.571   1.936   2.889  0.3687 -0.1364  0.1860
   91MOL    C6616446   6.629   1.797   2.921  0.8752  0.8449 -1.0045
   91MOL    C6716447   6.737   1.762   2.825  0.2044  0.7172 -0.4274
   91MOL    H6816448   6.561   1.939   2.780  1.2282 -0.4017  0.0948
   91MOL    H6916449   6.644   2.009   2.926  1.5778 -1.0772 -0.3027
   91MOL    H7016450   6.550   1.724   2.904  2.3253 -0.3663 -2.6851
   91MOL    H7116451   6.838   1.795   2.847  0.9876  1.0931 -4.2349
   91MOL    H7216452   6.738   1.653   2.830 -0.0170  0.8037  1.7467
   91MOL    H7316453   6.721   1.793   2.721 -0.5508 -0.1179 -0.5679
   91MOL    C7416454   6.674   1.791   3.067  0.6211  1.3939 -0.5270
   91MOL    C7516455   6.670   1.652   3.129  0.0185  0.9138  1.0230
   91MOL    C7616456   6.762   1.626   3.248 -0.6541  0.3958 -0.2514
   91MOL    H7716457   6.770   1.840   3.085  1.5848 -0.3505 -0.8160
   91MOL    H7816458   6.609   1.852   3.129  1.6516  0.8769  1.1032
   91MOL    H7916459   6.703   1.592   3.044 -0.1854  1.0548  0.8434
   91MOL    H8016460   6.716   1.656   3.343 -0.2187  0.1301  0.0451
   91MOL    H8116461   6.774   1.519   3.257  0.6215  0.4278 -1.5950
   91MOL    H8216462   6.858   1.674   3.234  0.3964 -1.9598 -1.2914
   91MOL    C8316463   6.525   1.608   3.166 -0.3188  0.4418 -0.3985
   91MOL    C8416464   6.506   1.452   3.192 -0.3459  0.2082  0.0856
   91MOL    C8516465   6.468   1.411   3.339 -0.0165  0.1874 -0.0339
   91MOL    H8616466   6.488   1.661   3.254 -0.5860 -1.8928  0.9426
   91MOL    H8716467   6.458   1.632   3.084 -0.6146 -2.9653 -1.2288
   91MOL    H8816468   6.601   1.402   3.176 -0.9715 -1.4596  1.4218
   91MOL    H8916469   6.537   1.463   3.406  0.5611 -1.7551  0.9154
   91MOL    H9016470   6.361   1.427   3.357  0.3804 -0.6950  3.5365
   91MOL    H9116471   6.492   1.305   3.347 -0.9961 -0.0300  0.1958
   91MOL    C9216472   6.408   1.387   3.097 -0.0300 -0.4374  0.1017
   91MOL    C9316473   6.429   1.411   2.948 -0.3212  0.2083 -0.0321
   91MOL    C9416474   6.565   1.360   2.894  0.3955  0.1988  0.0473
   91MOL    H9516475   6.399   1.283   3.128 -1.4589 -0.9664 -1.9548
   91MOL    H9616476   6.312   1.424   3.131  0.3273 -1.3242  2.1208
   91MOL    H9716477   6.429   1.516   2.920  0.8564  0.3668  0.5162
   91MOL    H9816478   6.589   1.414   2.802  5.2846 -1.1151  0.4339
   91MOL    H9916479   6.648   1.367   2.965  0.9138  0.4470 -0.5813
   91MOL   H10016480   6.555   1.255   2.869  1.2323  0.1392 -0.0405
   91MOL   C10116481   6.313   1.351   2.870 -0.6503 -0.0787 -0.2647
   91MOL   C10216482   6.307   1.396   2.718  0.0784  0.2925 -0.1497
   91MOL   C10316483   6.210   1.304   2.642  0.5183 -0.2874  0.2447
   91MOL   H10416484   6.318   1.244   2.888  2.9905 -0.1851 -1.6057
   91MOL   H10516485   6.219   1.390   2.910 -0.4369  0.2617 -0.0940
   91MOL   H10616486   6.406   1.382   2.675  1.2695  2.7953  1.6357
   91MOL   H10716487   6.203   1.336   2.538 -0.5313 -0.4504  0.2652
   91MOL   H10816488   6.246   1.201   2.637 -0.7439 -0.7131 -0.1559
   91MOL   H10916489   6.112   1.303   2.688 -1.1926  0.7255 -3.1728
   91MOL   C11016490   6.267   1.552   2.710  0.3236  0.1770 -0.2703
   91MOL   C11116491   6.328   1.620   2.579 -0.6923  0.4680 -0.1291
   91MOL   C11216492   6.222   1.722   2.519 -0.0427 -0.1486 -0.1836
   91MOL   H11316493   6.159   1.547   2.728  0.2588 -0.1811 -0.7354
   91MOL   H11416494   6.296   1.606   2.800 -0.4440 -0.1282  0.1685
   91MOL   H11516495   6.342   1.542   2.504  0.3169  0.4914  0.0220
   91MOL   H11616496   6.241   1.812   2.578  0.0624 -0.3079  0.0256
   91MOL   H11716497   6.231   1.747   2.413 -4.5006  0.3152 -0.5462
   91MOL   H11816498   6.125   1.680   2.547  0.3237 -0.2443  0.9496
   91MOL   C11916499   6.477   1.682   2.602  0.0309  0.3497  0.9363
   91MOL   C12016500   6.530   1.727   2.469 -0.1388  0.1816  0.2457
   91MOL   C12116501   6.538   1.881   2.464  0.1732 -0.0801  0.7539
   91MOL   H12216502   6.484   1.765   2.671 -0.0234  1.6837 -0.6357
   91MOL   H12316503   6.539   1.602   2.644 -0.1035 -1.3023 -1.8612
   91MOL   H12416504   6.461   1.691   2.392  0.2713 -1.0677  0.4448
   91MOL   H12516505   6.597   1.928   2.543  0.9791  0.2227 -0.0318
   91MOL   H12616506   6.582   1.920   2.373 -0.3689 -1.2592 -0.0256
   91MOL   H12716507   6.437   1.920   2.478 -0.4806 -2.1128  2.0866
   91MOL   C12816508   6.667   1.667   2.432  0.4718  0.6655  0.4496
   91MOL   C12916509   6.666   1.522   2.373  0.7497 -0.3513  0.0656
   91MOL   C13016510   6.779   1.504   2.276  0.1922  0.1298  0.7683
   91MOL   H13116511   6.703   1.734   2.354  2.1457 -1.5982 -0.7613
   91MOL   H13216512   6.735   1.669   2.518 -0.3971  2.1044  1.1238
   91MOL   H13316513   6.577   1.499   2.314  0.1900 -2.1662  1.5697
   91MOL   H13416514   6.780   1.424   2.203  0.9707  1.0867 -0.2817
   91MOL   H13516515   6.773   1.589   2.208 -0.3288  0.0615  0.7247
   91MOL   H13616516   6.878   1.505   2.320  0.0484  0.3978  1.0960
   91MOL   C13716517   6.673   1.416   2.483 -0.6709  0.6326 -0.2208
   91MOL   C13816518   6.667   1.265   2.449  0.2604 -0.8791 -0.1773
   91MOL   C13916519   6.666   1.190   2.583  0.6479  0.5691  0.4435
   91MOL   H14016520   6.759   1.432   2.547 -1.2586  2.5058  0.1128
   91MOL   H14116521   6.582   1.419   2.543  0.4390 -1.1358  1.6352
   91MOL   H14216522   6.754   1.231   2.393  0.4122 -0.4717 -0.1953
   91MOL   H14316523   6.693   1.086   2.565  3.1462  1.3360 -0.5275
   91MOL   H14416524   6.735   1.230   2.657 -0.9757  1.4927  1.4594
   91MOL   H14516525   6.568   1.198   2.628 -0.3742  1.5651 -1.8917
   91MOL   C14616526   6.551   1.235   2.347  0.6907  1.2832 -0.3784
   91MOL   C14716527   6.541   1.088   2.295 -0.1981 -0.0144 -0.3758
   91MOL   C14816528   6.681   1.044   2.237  0.1779  0.4561  0.0689
   91MOL   H14916529   6.453   1.270   2.380 -0.2588 -0.0590 -1.6966
   91MOL   H15016530   6.564   1.287   2.252  0.0580  1.0003 -0.6232
   91MOL   H15116531   6.478   1.086   2.206  1.3382 -0.9369 -1.4651
   91MOL   H15216532   6.759   1.026   2.311  2.0216 -1.4307 -2.2263
   91MOL   H15316533   6.686   0.950   2.181 -1.6673 -0.4960  1.4834
   91MOL   H15416534   6.729   1.119   2.174 -0.0633  0.4405 -0.1324
   91MOL   C15516535   6.483   0.962   2.369  0.2296  0.6526  0.5653
   91MOL   C15616536   6.361   0.992   2.447 -0.1019  0.7167 -0.1916
   91MOL   C15716537   6.240   1.034   2.359  0.5442  0.1579  0.0559
   91MOL   H15816538   6.453   0.890   2.293 -2.6371 -0.2008  2.4346
   91MOL   H15916539   6.565   0.922   2.430 -0.4291 -0.2704  0.8486
   91MOL   H16016540   6.369   1.084   2.506 -1.2462 -0.0558  1.2203
   91MOL   H16116541   6.260   1.125   2.302  0.0478 -0.2461 -0.7706
   91MOL   H16216542   6.213   0.964   2.280  0.9859 -1.8844  1.6574
   91MOL   H16316543   6.154   1.061   2.421 -0.2340  0.3205 -1.0737
   91MOL   C16416544   6.325   0.876   2.542 -0.4947 -0.2637  1.0561
   91MOL   C16516545   6.435   0.861   2.654  0.6009  0.0054 -0.4064
   91MOL   C16616546   6.389   0.953   2.772  0.5709  0.2924  0.1018
   91MOL   H16716547   6.227   0.885   2.589 -2.1814 -1.3810 -2.1321
   91MOL   H16816548   6.327   0.785   2.482 -0.6583  1.1957 -1.2038
   91MOL   H16916549   6.540   0.879   2.636  0.7338 -1.6258 -1.3825
   91MOL   H17016550   6.419   1.056   2.757  0.2237 -0.0200 -2.9035
   91MOL   H17116551   6.281   0.950   2.781  0.5332  3.6527  1.4694
   91MOL   H17216552   6.429   0.935   2.872  1.9399  0.9735 -0.3184
   91MOL   C17316553   6.425   0.712   2.696  0.3041 -0.2138 -0.0087
   91MOL   C17416554   6.522   0.631   2.613 -0.0736 -0.0454  0.2736
   91MOL   C17516555   6.669   0.628   2.667 -0.1546 -0.3052 -0.1908
   91MOL   H17616556   6.452   0.713   2.801 -1.3012 -2.0618  0.4543
   91MOL   H17716557   6.325   0.670   2.684  0.1725  0.2978 -0.7236
   91MOL   H17816558   6.510   0.661   2.509 -1.4453 -2.2102 -0.2414
   91MOL   H17916559   6.668   0.569   2.758  2.2118 -0.9074 -0.5229
   91MOL   H18016560   6.726   0.570   2.595  1.4188 -2.1175  2.4434
   91MOL   H18116561   6.709   0.727   2.689  0.1566 -0.4465 -0.1244
   91MOL   H18216562   6.482   0.529   2.613  0.8623 -0.4406 -1.8440
   92MOL     C116563   3.929   3.025   2.978 -0.0073 -0.2160 -0.3876
   92MOL     C216564   3.813   3.115   2.925  0.1154  0.1607  0.8949
   92MOL     C316565   3.699   3.035   2.853 -0.6318 -0.3122 -0.3978
   92MOL     H416566   4.019   3.085   2.991  0.4650 -1.2026  1.0594
   92MOL     H516567   3.953   2.948   2.905  1.5881 -1.0945  0.9930
   92MOL     H616568   3.865   3.174   2.849 -0.3268 -1.4374 -0.6940
   92MOL     H716569   3.733   2.946   2.800 -2.5691 -0.7193 -0.9983
   92MOL     H816570   3.631   2.990   2.926  1.3969  0.7053  2.1968
   92MOL     H916571   3.631   3.093   2.791  0.6406  1.2163 -0.3778
   92MOL    H1016572   3.906   2.973   3.071 -1.6396  0.3077 -0.4953
   92MOL    C1116573   3.758   3.212   3.025  0.4023  0.3526 -0.5398
   92MOL    C1216574   3.862   3.308   3.087 -0.2855  0.1522  0.1852
   92MOL    C1316575   3.929   3.415   2.989 -0.6228  0.5326 -0.0453
   92MOL    H1416576   3.684   3.274   2.976 -1.5107 -0.4023  1.2828
   92MOL    H1516577   3.697   3.157   3.097 -0.6192  3.5629  1.1266
   92MOL    H1616578   3.952   3.255   3.120 -1.0665 -0.7512  0.8869
   92MOL    H1716579   4.000   3.363   2.925 -0.4997  1.9346 -1.0872
   92MOL    H1816580   3.856   3.479   2.938 -1.3020 -0.1724  0.0362
   92MOL    H1916581   3.997   3.477   3.047 -1.3059  1.5670 -0.3280
   92MOL    C2016582   3.803   3.378   3.209 -0.0325  0.5867  0.5541
   92MOL    C2116583   3.797   3.289   3.336  0.4463  0.0309 -0.2625
   92MOL    C2216584   3.936   3.290   3.407  0.0818 -0.0195  0.0756
   92MOL    H2316585   3.866   3.461   3.241  1.4414 -0.1349 -0.4107
   92MOL    H2416586   3.705   3.421   3.190 -0.3212  0.8056  2.4494
   92MOL    H2516587   3.762   3.193   3.298 -0.4616  0.3294 -0.1884
   92MOL    H2616588   3.952   3.388   3.452 -0.6535  1.2290 -2.2728
   92MOL    H2716589   3.953   3.220   3.488 -0.5784 -0.9903 -0.6099
   92MOL    H2816590   4.027   3.276   3.348  0.6172  0.2344  0.8399
   92MOL    C2916591   3.685   3.331   3.437 -0.2544  0.2374  0.0934
   92MOL    C3016592   3.648   3.247   3.565 -0.2946  0.7293  0.7173
   92MOL    C3116593   3.579   3.333   3.670 -0.2686 -0.1391 -1.3684
   92MOL    H3216594   3.698   3.435   3.468 -1.7252 -0.2497  2.4770
   92MOL    H3316595   3.589   3.342   3.387 -1.7287 -0.9152  2.6127
   92MOL    H3416596   3.748   3.231   3.605 -0.6726  0.9139  1.7407
   92MOL    H3516597   3.624   3.432   3.668  1.8688 -1.0243  0.4897
   92MOL    H3616598   3.477   3.363   3.648 -0.6741 -0.3991  0.1069
   92MOL    H3716599   3.573   3.293   3.771  0.8695  3.6212  0.2679
   92MOL    C3816600   3.576   3.120   3.517 -0.4483  0.0373 -0.3215
   92MOL    C3916601   3.667   2.990   3.529 -0.4129  0.0760  0.5085
   92MOL    C4016602   3.707   2.973   3.668 -0.2076 -0.1736  1.0051
   92MOL    H4116603   3.499   3.103   3.592  1.2837 -0.2055  1.4616
   92MOL    H4216604   3.522   3.123   3.423  0.3770 -1.7407 -0.8670
   92MOL    H4316605   3.762   3.017   3.482  0.9176  1.6923  3.9351
   92MOL    H4416606   3.640   2.920   3.736 -0.6636 -0.8156  0.0512
   92MOL    H4516607   3.806   2.927   3.674  1.0986  2.0187 -2.1890
   92MOL    H4616608   3.715   3.069   3.719  0.4011  0.7702 -0.8483
   92MOL    C4716609   3.610   2.853   3.480  0.1830  0.6098  0.0838
   92MOL    C4816610   3.590   2.841   3.333  0.7661 -0.4373  0.0840
   92MOL    C4916611   3.706   2.880   3.246 -0.6494 -0.1037 -0.2122
   92MOL    H5016612   3.681   2.775   3.506 -1.3049 -1.4919 -2.0213
   92MOL    H5116613   3.517   2.828   3.531  0.9767 -2.4990  0.1027
   92MOL    H5216614   3.512   2.913   3.308  0.4778  0.0451  2.2620
   92MOL    H5316615   3.690   2.890   3.139  1.5443  0.0884 -0.5421
   92MOL    H5416616   3.743   2.983   3.256  1.1087 -0.7007 -0.4332
   92MOL    H5516617   3.800   2.826   3.257  0.3361  1.4863 -0.6424
   92MOL    C5616618   3.546   2.698   3.296 -0.3569 -0.6200 -0.2881
   92MOL    C5716619   3.403   2.666   3.337 -0.2307 -0.8718 -0.6897
   92MOL    C5816620   3.301   2.745   3.254  0.3522 -0.1234  0.0678
   92MOL    H5916621   3.548   2.674   3.189  2.3256  1.0841 -0.6536
   92MOL    H6016622   3.616   2.632   3.347 -0.7623  0.2862  1.4712
   92MOL    H6116623   3.392   2.688   3.443  1.7154  0.9705 -0.8259
   92MOL    H6216624   3.323   2.852   3.258  0.4275 -0.0065 -2.4331
   92MOL    H6316625   3.296   2.724   3.147 -1.3000  0.8731 -0.0751
   92MOL    H6416626   3.203   2.733   3.299 -0.4751  0.3549 -1.5865
   92MOL    C6516627   3.368   2.507   3.321  0.1811  0.2528  0.1196
   92MOL    C6616628   3.452   2.402   3.407  1.1177  0.7547  0.3502
   92MOL    C6716629   3.427   2.434   3.556 -0.4045 -0.0664 -0.1971
   92MOL    H6816630   3.260   2.503   3.338  0.2228  2.6145  1.0291
   92MOL    H6916631   3.382   2.486   3.215  0.3309  0.3988  0.1114
   92MOL    H7016632   3.559   2.403   3.387  0.6215 -0.2287 -2.5762
   92MOL    H7116633   3.461   2.367   3.635  0.7172  1.0347  0.2671
   92MOL    H7216634   3.480   2.524   3.586 -2.2837  0.6906  0.9564
   92MOL    H7316635   3.321   2.458   3.565 -0.3159 -0.5507  2.4645
   92MOL    C7416636   3.387   2.264   3.383 -0.2209 -0.2547 -0.1743
   92MOL    C7516637   3.462   2.145   3.445 -1.0811  0.0059  1.3197
   92MOL    C7616638   3.391   2.015   3.430 -0.1893  0.5969 -0.1647
   92MOL    H7716639   3.286   2.269   3.423 -0.1489 -2.3684  0.3420
   92MOL    H7816640   3.385   2.246   3.275 -1.9316 -0.5161 -0.1182
   92MOL    H7916641   3.471   2.159   3.553  2.6608 -2.9288  1.4686
   92MOL    H8016642   3.391   1.990   3.324 -0.7040 -1.7100  0.3521
   92MOL    H8116643   3.450   1.945   3.490 -0.1076  0.8417  0.0365
   92MOL    H8216644   3.292   2.013   3.475 -0.7522  1.7837 -1.3334
   92MOL    C8316645   3.597   2.131   3.378  0.2430 -0.4102  0.6602
   92MOL    C8416646   3.710   2.074   3.470 -0.5572  0.3316  0.0456
   92MOL    C8516647   3.826   2.035   3.378 -0.4225  0.6397  0.2394
   92MOL    H8616648   3.582   2.065   3.292 -1.7301  2.0979 -1.0042
   92MOL    H8716649   3.626   2.223   3.327 -0.9109 -1.7187 -2.4632
   92MOL    H8816650   3.668   1.983   3.514  0.2570  0.0361  0.2193
   92MOL    H8916651   3.876   2.116   3.325  1.1113 -0.1020  0.5458
   92MOL    H9016652   3.900   1.982   3.436  1.8064  1.2354 -1.9783
   92MOL    H9116653   3.789   1.961   3.307  1.9065 -0.0937 -0.2212
   92MOL    C9216654   3.755   2.169   3.577 -0.2981 -0.1938  0.2143
   92MOL    C9316655   3.810   2.104   3.709  0.0382  0.6847 -0.0123
   92MOL    C9416656   3.945   2.049   3.678 -0.0273 -0.0506 -0.4762
   92MOL    H9516657   3.832   2.241   3.549 -0.6210  1.0064  2.3072
   92MOL    H9616658   3.664   2.222   3.605 -1.3170 -0.0274 -3.1923
   92MOL    H9716659   3.754   2.013   3.732  0.6176  0.4236  0.3799
   92MOL    H9816660   4.015   2.045   3.762 -1.9622 -1.2784  1.1155
   92MOL    H9916661   3.947   1.949   3.633 -0.1876  0.3463 -1.3687
   92MOL   H10016662   3.998   2.116   3.611  0.0347  0.8577  0.4759
   92MOL   C10116663   3.825   2.208   3.823  0.2689 -0.1596 -0.0362
   92MOL   C10216664   3.702   2.285   3.873 -0.4623  0.4086 -0.3292
   92MOL   C10316665   3.617   2.190   3.952 -0.8820  0.3853 -0.7392
   92MOL   H10416666   3.866   2.156   3.909 -1.2280 -2.1204 -0.4692
   92MOL   H10516667   3.900   2.283   3.797 -1.0532  0.7692 -1.2701
   92MOL   H10616668   3.642   2.311   3.786 -1.7098 -1.2196  0.0194
   92MOL   H10716669   3.518   2.225   3.981 -0.3757 -0.2282  1.8976
   92MOL   H10816670   3.600   2.098   3.895 -0.4443  0.5511 -1.1349
   92MOL   H10916671   3.666   2.165   4.046  0.0623  3.3133 -0.4272
   92MOL   C11016672   3.738   2.408   3.964 -0.0375  0.3026  0.0737
   92MOL   C11116673   3.798   2.528   3.893 -0.3422 -0.0605 -0.1427
   92MOL   C11216674   3.743   2.560   3.751  0.5115 -0.2497  0.7436
   92MOL   H11316675   3.642   2.441   4.004  0.2384  1.8614 -0.5287
   92MOL   H11416676   3.791   2.378   4.054  1.7149 -0.0744 -1.0681
   92MOL   H11516677   3.901   2.500   3.873 -0.0370  0.4486  0.6493
   92MOL   H11616678   3.825   2.619   3.707 -0.1322 -0.7630 -1.1939
   92MOL   H11716679   3.739   2.474   3.685 -1.0898  1.1750 -1.0665
   92MOL   H11816680   3.662   2.633   3.759 -0.3991 -1.0673 -0.8105
   92MOL   C11916681   3.803   2.655   3.986 -0.1822 -0.2659  0.6583
   92MOL   C12016682   3.916   2.654   4.094 -0.0957  1.1532 -0.0577
   92MOL   C12116683   4.056   2.684   4.031 -0.3871  0.4293  0.0236
   92MOL   H12216684   3.812   2.739   3.918 -2.5289 -0.2037  0.3801
   92MOL   H12316685   3.707   2.667   4.038 -1.3829 -1.6124 -1.1716
   92MOL   H12416686   3.930   2.557   4.141 -2.0345  1.1653  0.5768
   92MOL   H12516687   4.131   2.678   4.109 -1.5194  1.8565  1.2257
   92MOL   H12616688   4.084   2.607   3.958 -2.5080  0.3551 -0.7724
   92MOL   H12716689   4.074   2.781   3.986  0.5678  0.5122  0.5768
   92MOL   C12816690   3.889   2.748   4.205 -0.5936  0.3104  0.1358
   92MOL   C12916691   3.752   2.750   4.268 -0.0891  0.7342  0.0537
   92MOL   C13016692   3.710   2.623   4.346 -0.5627  0.4381  0.5931
   92MOL   H13116693   3.941   2.713   4.294 -0.9942 -1.2326 -0.2152
   92MOL   H13216694   3.920   2.851   4.184 -2.4209  0.8400 -0.0189
   92MOL   H13316695   3.670   2.776   4.202 -1.3002 -0.7933  0.9077
   92MOL   H13416696   3.787   2.590   4.416 -0.4555 -0.8140 -0.0856
   92MOL   H13516697   3.620   2.651   4.399 -0.9731  0.7251 -0.2439
   92MOL   H13616698   3.690   2.533   4.287  1.4224  0.4526 -0.1826
   92MOL   C13716699   3.747   2.864   4.379  0.0947 -0.3016  0.0553
   92MOL   C13816700   3.740   3.016   4.337  0.0032 -0.3392 -0.4090
   92MOL   C13916701   3.599   3.053   4.275 -0.7545 -0.5276 -0.3368
   92MOL   H14016702   3.673   2.838   4.455  0.9662 -0.1818  0.9511
   92MOL   H14116703   3.839   2.843   4.432 -0.5489 -1.9326  0.5405
   92MOL   H14216704   3.803   3.042   4.251 -1.6092  3.8420 -0.4555
   92MOL   H14316705   3.589   3.162   4.275  1.0343 -0.3487 -1.0489
   92MOL   H14416706   3.590   3.030   4.169 -0.7261 -0.0392 -0.4461
   92MOL   H14516707   3.514   3.007   4.325 -0.1051 -0.5931  0.7151
   92MOL   C14616708   3.784   3.100   4.461  0.5435  0.1901 -0.2878
   92MOL   C14716709   3.815   3.249   4.434  0.1390  0.1987  0.1188
   92MOL   C14816710   3.699   3.337   4.488 -0.2808 -0.0140  0.0474
   92MOL   H14916711   3.720   3.090   4.549 -1.0374 -2.9499 -1.7058
   92MOL   H15016712   3.875   3.056   4.502  1.7142  3.1665  0.4013
   92MOL   H15116713   3.809   3.265   4.327  1.0299  0.6745  0.1327
   92MOL   H15216714   3.693   3.351   4.596 -0.2926  4.6221 -0.4736
   92MOL   H15316715   3.702   3.434   4.439 -0.5553  0.2711  0.6008
   92MOL   H15416716   3.597   3.305   4.464 -0.3543  0.1013  0.2070
   92MOL   C15516717   3.952   3.297   4.487 -0.7934 -0.3614 -0.6217
   92MOL   C15616718   4.071   3.239   4.401 -0.0147 -0.5946  1.0926
   92MOL   C15716719   4.071   3.293   4.260  0.7485 -0.2795  0.2624
   92MOL   H15816720   3.958   3.404   4.508 -1.2918 -0.3587 -0.4985
   92MOL   H15916721   3.961   3.266   4.592  1.0593 -1.1702 -0.9930
   92MOL   H16016722   4.054   3.133   4.386 -1.7188 -0.1630 -0.1612
   92MOL   H16116723   4.152   3.253   4.199 -1.0606  0.9922 -3.1355
   92MOL   H16216724   3.974   3.279   4.213  0.8239 -1.0924  0.3503
   92MOL   H16316725   4.082   3.402   4.261 -2.3538  0.0977  1.2152
   92MOL   C16416726   4.204   3.249   4.477  0.6357  0.1875 -0.4775
   92MOL   C16516727   4.328   3.167   4.428 -0.0047  0.1228  0.2362
   92MOL   C16616728   4.460   3.235   4.457 -0.3869  0.5079 -0.3834
   92MOL   H16716729   4.239   3.350   4.459  0.8797  0.2317  0.2369
   92MOL   H16816730   4.190   3.240   4.584 -0.7594  1.0477 -0.5758
   92MOL   H16916731   4.325   3.158   4.319  3.0856  3.4629 -0.2454
   92MOL   H17016732   4.469   3.334   4.413  2.1442  0.8876  0.9063
   92MOL   H17116733   4.463   3.267   4.560 -0.7311 -1.2141  0.1836
   92MOL   H17216734   4.550   3.175   4.442 -0.2050  0.3723  1.1827
   92MOL   C17316735   4.335   3.027   4.481 -0.3506  0.2132  0.1100
   92MOL   C17416736   4.217   2.938   4.440  0.0405  0.1674 -0.0408
   92MOL   C17516737   4.244   2.787   4.433 -0.1414  0.4407  0.7076
   92MOL   H17616738   4.422   2.981   4.435 -0.0322 -0.0501  0.9792
   92MOL   H17716739   4.348   3.014   4.588 -3.2013  1.4403  0.6491
   92MOL   H17816740   4.177   2.977   4.347 -0.2351  1.4800  0.6164
   92MOL   H17916741   4.322   2.760   4.361 -0.3507 -1.5710  1.2108
   92MOL   H18016742   4.268   2.760   4.536 -1.1127  1.0454  1.0956
   92MOL   H18116743   4.155   2.740   4.394  0.4571 -1.7780  1.9280
   92MOL   H18216744   4.132   2.961   4.505 -1.5618 -2.0753 -1.2674
   93MOL     C116745   1.347   4.817   1.050 -0.1324  0.0037  0.7277
   93MOL     C216746   1.387   4.937   1.129 -0.6139 -0.0707 -0.7609
   93MOL     C316747   1.274   5.031   1.132  0.2791  0.0361 -0.2051
   93MOL     H416748   1.299   4.851   0.958  0.7546  1.2436  0.7140
   93MOL     H516749   1.272   4.753   1.096  0.1555  0.2732  1.5794
   93MOL     H616750   1.459   4.999   1.077 -0.3177  0.3921  0.1880
   93MOL     H716751   1.299   5.114   1.198 -2.1070  1.5904 -1.1732
   93MOL     H816752   1.242   5.074   1.036 -0.4914 -1.7527 -0.7739
   93MOL     H916753   1.179   4.993   1.171 -0.6525  0.2241 -2.2127
   93MOL    H1016754   1.437   4.758   1.034 -0.8879 -1.1009  0.4467
   93MOL    C1116755   1.445   4.909   1.273  0.3128  0.2439 -0.0721
   93MOL    C1216756   1.580   4.829   1.288 -0.1738  0.6252  0.1918
   93MOL    C1316757   1.694   4.898   1.213 -0.9011  0.0154 -0.5229
   93MOL    H1416758   1.454   5.009   1.317  0.1125  0.4772 -0.5557
   93MOL    H1516759   1.363   4.856   1.322  0.0399 -0.2017 -0.9887
   93MOL    H1616760   1.567   4.725   1.257 -0.8004  0.8144 -0.1872
   93MOL    H1716761   1.713   5.001   1.246 -0.1718 -0.2627 -0.0617
   93MOL    H1816762   1.793   4.859   1.237  0.0243  0.9481 -2.6466
   93MOL    H1916763   1.683   4.894   1.105 -0.4987 -0.2274 -0.5570
   93MOL    C2016764   1.619   4.810   1.439 -0.7336  1.1175  0.5392
   93MOL    C2116765   1.520   4.734   1.532 -0.4996 -0.1649 -0.3899
   93MOL    C2216766   1.564   4.584   1.551 -0.5757  0.1667 -0.3287
   93MOL    H2316767   1.723   4.779   1.447 -1.3596 -1.0934  0.3095
   93MOL    H2416768   1.624   4.911   1.482 -0.8070 -0.0302  3.3949
   93MOL    H2516769   1.422   4.731   1.484 -0.5843  1.7491 -0.3921
   93MOL    H2616770   1.503   4.519   1.613  0.2248 -0.1396  0.1446
   93MOL    H2716771   1.561   4.535   1.454 -0.3617 -0.2021 -0.1516
   93MOL    H2816772   1.669   4.576   1.580 -0.1704 -1.4652 -2.0907
   93MOL    C2916773   1.506   4.792   1.681  0.2757  0.2999 -0.0118
   93MOL    C3016774   1.439   4.937   1.694 -0.2742  0.6919  1.0534
   93MOL    C3116775   1.287   4.931   1.658 -0.4460  0.1812 -0.0588
   93MOL    H3216776   1.448   4.720   1.739  0.9451  0.7419  1.2224
   93MOL    H3316777   1.606   4.769   1.716 -0.0927  0.9430  1.5010
   93MOL    H3416778   1.492   5.008   1.630 -0.8920 -1.8289 -2.4088
   93MOL    H3516779   1.248   5.032   1.668  0.0988  0.5291 -1.4121
   93MOL    H3616780   1.253   4.899   1.560 -2.9290 -0.8961  1.1167
   93MOL    H3716781   1.235   4.859   1.722 -0.2076  0.0460 -0.0128
   93MOL    C3816782   1.445   4.983   1.839  0.6674 -0.3116  0.0138
   93MOL    C3916783   1.571   4.947   1.927 -0.1299  0.2380 -0.4016
   93MOL    C4016784   1.695   5.000   1.852  0.2934 -0.2210  0.4678
   93MOL    H4116785   1.427   5.090   1.846  0.7498 -0.2415 -0.8620
   93MOL    H4216786   1.362   4.931   1.887  1.1461  0.1889  1.4183
   93MOL    H4316787   1.585   4.840   1.942 -1.1179  0.4218  2.1180
   93MOL    H4416788   1.725   4.928   1.776  1.3928 -0.3591  1.0058
   93MOL    H4516789   1.682   5.098   1.806 -0.0480  0.7424  2.5133
   93MOL    H4616790   1.780   5.018   1.918 -0.5610 -0.6524  1.7024
   93MOL    C4716791   1.560   5.009   2.071 -0.0277  0.8925 -0.0331
   93MOL    C4816792   1.444   4.973   2.168 -0.0131  0.1174  0.3399
   93MOL    C4916793   1.429   4.814   2.174  0.2097  0.1712 -0.1013
   93MOL    H5016794   1.657   4.989   2.115  0.0182  1.7186  0.2591
   93MOL    H5116795   1.557   5.118   2.065  0.1430  0.9776  1.4596
   93MOL    H5216796   1.348   5.005   2.128  0.3711  1.2274  0.2752
   93MOL    H5316797   1.353   4.792   2.249 -2.0521 -2.3058 -2.9832
   93MOL    H5416798   1.386   4.778   2.080 -0.6216  0.1496  0.2829
   93MOL    H5516799   1.517   4.758   2.204  0.6405  1.6621  1.5133
   93MOL    C5616800   1.463   5.039   2.301  0.2247  0.8228 -0.0893
   93MOL    C5716801   1.469   5.195   2.306 -0.0596  0.0754  0.8300
   93MOL    C5816802   1.345   5.273   2.245 -0.4927  0.2193  0.2003
   93MOL    H5916803   1.374   4.999   2.350  0.9101 -0.2677  0.2951
   93MOL    H6016804   1.554   4.996   2.344 -0.9304 -0.1627  1.4174
   93MOL    H6116805   1.554   5.229   2.247 -0.1979 -1.7496 -0.4455
   93MOL    H6216806   1.253   5.237   2.291 -1.2467  1.1643 -0.5370
   93MOL    H6316807   1.356   5.381   2.260  0.3478 -0.0299  1.4361
   93MOL    H6416808   1.326   5.264   2.138 -0.5683 -2.0161  0.3959
   93MOL    C6516809   1.496   5.245   2.448  0.2519  0.3349  0.6321
   93MOL    C6616810   1.635   5.302   2.471 -0.3497 -0.0170  0.0034
   93MOL    C6716811   1.642   5.450   2.422 -0.2216 -0.3632  0.4020
   93MOL    H6816812   1.420   5.321   2.466 -0.5994 -1.1645  3.7960
   93MOL    H6916813   1.469   5.167   2.519  2.2320 -1.4948 -0.5785
   93MOL    H7016814   1.705   5.237   2.419 -0.9354 -2.0224  1.6490
   93MOL    H7116815   1.613   5.450   2.317 -0.0955  0.8294  0.3588
   93MOL    H7216816   1.584   5.527   2.471 -0.6707 -2.4902  3.3777
   93MOL    H7316817   1.747   5.480   2.430 -0.3069 -0.1631  0.7876
   93MOL    C7416818   1.665   5.301   2.625  0.4671  0.4879  0.4170
   93MOL    C7516819   1.820   5.330   2.659  0.3495 -0.2447  0.1522
   93MOL    C7616820   1.841   5.355   2.814 -0.5323  0.7799 -0.1120
   93MOL    H7716821   1.607   5.376   2.677  2.8088  0.9077  2.5100
   93MOL    H7816822   1.638   5.205   2.668 -2.1863  1.2770  0.6027
   93MOL    H7916823   1.844   5.426   2.612  3.8702 -0.9925  0.2952
   93MOL    H8016824   1.823   5.258   2.861 -0.9245  0.7601 -0.3005
   93MOL    H8116825   1.944   5.374   2.844  0.5638 -2.9999 -1.2407
   93MOL    H8216826   1.778   5.428   2.866  0.7771  0.5259  1.9039
   93MOL    C8316827   1.916   5.228   2.610 -0.0881  0.4130  0.2003
   93MOL    C8416828   2.061   5.265   2.627  0.1165  0.2570  0.0255
   93MOL    C8516829   2.145   5.144   2.600 -0.4030  0.3403 -0.0932
   93MOL    H8616830   1.898   5.139   2.672  1.8577  0.0482  0.2610
   93MOL    H8716831   1.900   5.203   2.505 -2.0667 -1.1057  0.8263
   93MOL    H8816832   2.085   5.287   2.731  1.3156 -0.8122 -0.0059
   93MOL    H8916833   2.114   5.051   2.647  0.0923  0.3240  0.1945
   93MOL    H9016834   2.150   5.121   2.493  0.0418  2.5774 -0.5761
   93MOL    H9116835   2.249   5.159   2.628 -1.2278  2.7746  1.8073
   93MOL    C9216836   2.108   5.388   2.538 -0.5733 -0.4224  0.3545
   93MOL    C9316837   2.208   5.489   2.610 -0.1091 -0.6870 -0.3150
   93MOL    C9416838   2.273   5.577   2.499  0.1376  0.1878  0.2259
   93MOL    H9516839   2.160   5.348   2.451 -0.5940 -1.5265  0.8417
   93MOL    H9616840   2.029   5.451   2.497 -0.8081  1.1508  3.0937
   93MOL    H9716841   2.271   5.407   2.645 -0.9057 -0.1645  2.4391
   93MOL    H9816842   2.299   5.536   2.402  0.6586  1.5140 -0.2089
   93MOL    H9916843   2.221   5.666   2.463  0.9988  0.0143 -1.5113
   93MOL   H10016844   2.370   5.620   2.524  0.6790  0.1689 -1.7441
   93MOL   C10116845   2.158   5.563   2.728 -1.0131 -0.6301 -0.2158
   93MOL   C10216846   2.252   5.663   2.801 -0.7745  0.0995  0.1209
   93MOL   C10316847   2.175   5.756   2.887 -0.6622 -0.8299 -0.4737
   93MOL   H10416848   2.075   5.628   2.701 -0.7581 -0.0879  0.3108
   93MOL   H10516849   2.110   5.499   2.802 -0.6834 -2.0512 -1.1952
   93MOL   H10616850   2.301   5.724   2.726  1.7346 -1.4408  0.4538
   93MOL   H10716851   2.081   5.787   2.840 -1.1924  0.7366  1.5333
   93MOL   H10816852   2.144   5.699   2.974  2.3446 -3.5443 -1.0877
   93MOL   H10916853   2.222   5.843   2.932 -0.1228 -2.6412  2.5650
   93MOL   C11016854   2.362   5.591   2.887  0.2077  0.0349 -0.2949
   93MOL   C11116855   2.502   5.567   2.825  0.4135 -0.4709 -0.1674
   93MOL   C11216856   2.578   5.699   2.804 -0.5860 -0.0173  0.5368
   93MOL   H11316857   2.378   5.655   2.974 -2.2214 -0.1216  0.3005
   93MOL   H11416858   2.318   5.497   2.920  0.1525  0.5407  1.0866
   93MOL   H11516859   2.483   5.514   2.732  0.0403 -1.4402  0.4517
   93MOL   H11616860   2.668   5.696   2.742 -0.8927  1.1129  0.0162
   93MOL   H11716861   2.510   5.769   2.755 -1.1286 -0.4588  0.6491
   93MOL   H11816862   2.618   5.751   2.890  0.2274 -0.6787  0.5673
   93MOL   C11916863   2.577   5.477   2.919 -0.3509 -0.3006 -0.0986
   93MOL   C12016864   2.699   5.404   2.853  0.0381 -0.2761 -0.2210
   93MOL   C12116865   2.828   5.457   2.916  0.3424  0.2588 -0.6789
   93MOL   H12216866   2.619   5.536   3.001  2.7976 -0.3721 -1.5638
   93MOL   H12316867   2.521   5.397   2.968  0.9449 -0.7224  0.7494
   93MOL   H12416868   2.714   5.433   2.748  1.8752  1.5473  0.5088
   93MOL   H12516869   2.826   5.433   3.023 -1.2551  1.1106 -0.5074
   93MOL   H12616870   2.916   5.403   2.880 -0.3644 -1.3870 -0.0187
   93MOL   H12716871   2.841   5.564   2.906 -0.2280  0.3132 -0.8597
   93MOL   C12816872   2.696   5.249   2.865 -0.1150 -0.5884  0.3031
   93MOL   C12916873   2.569   5.200   2.790  0.2683 -0.1336 -0.4344
   93MOL   C13016874   2.594   5.184   2.640 -0.0978 -0.1025 -0.1029
   93MOL   H13116875   2.781   5.191   2.829 -0.1782 -1.7912  2.0315
   93MOL   H13216876   2.691   5.222   2.971  1.7604 -1.2088  0.2459
   93MOL   H13316877   2.486   5.270   2.795 -0.9891 -1.6804  0.9982
   93MOL   H13416878   2.508   5.178   2.573 -0.0668 -1.8749  0.0046
   93MOL   H13516879   2.653   5.255   2.582 -0.6719  1.1757  0.8536
   93MOL   H13616880   2.643   5.087   2.635  0.5931  0.1378  1.6216
   93MOL   C13716881   2.516   5.057   2.850 -0.9645  0.1339  0.6894
   93MOL   C13816882   2.429   5.081   2.974  1.1189  0.1507 -0.3315
   93MOL   C13916883   2.283   5.123   2.922 -0.4397 -0.1734  0.0979
   93MOL   H14016884   2.463   5.006   2.769 -1.6303 -0.8681  1.7363
   93MOL   H14116885   2.601   4.995   2.878 -0.5710 -0.2848 -1.3152
   93MOL   H14216886   2.472   5.158   3.038  1.9719 -0.4226 -0.2080
   93MOL   H14316887   2.275   5.226   2.889  1.1114  0.0718  0.4411
   93MOL   H14416888   2.232   5.064   2.846 -1.3184  0.1650  0.4233
   93MOL   H14516889   2.218   5.114   3.008  3.4906 -0.1114  3.2423
   93MOL   C14616890   2.408   4.958   3.061 -0.2299  0.9142 -0.3191
   93MOL   C14716891   2.538   4.915   3.133 -0.2840 -1.1872  0.2558
   93MOL   C14816892   2.575   5.028   3.237  0.4256  0.2957  0.6095
   93MOL   H14916893   2.331   4.971   3.137 -0.8047  1.8343 -1.0373
   93MOL   H15016894   2.367   4.875   3.003 -3.4227  0.9756  1.7084
   93MOL   H15116895   2.619   4.900   3.061 -0.4341  0.7151 -0.3374
   93MOL   H15216896   2.501   5.063   3.309  1.3667 -0.4497  1.9720
   93MOL   H15316897   2.656   4.980   3.293 -0.4321 -1.6177  0.2418
   93MOL   H15416898   2.620   5.116   3.190 -2.7320  1.7147  0.1302
   93MOL   C15516899   2.520   4.780   3.206  0.5012 -0.2837 -0.3482
   93MOL   C15616900   2.497   4.649   3.123  0.6032 -0.2867  0.7623
   93MOL   C15716901   2.574   4.651   2.991  0.3176  0.5386 -1.0336
   93MOL   H15816902   2.619   4.766   3.252  0.5967  4.7941  1.3141
   93MOL   H15916903   2.453   4.799   3.290  1.8745  0.6279  0.5721
   93MOL   H16016904   2.395   4.644   3.086  0.8778 -2.0583  0.1901
   93MOL   H16116905   2.556   4.563   2.928 -0.1998  0.1760 -0.3862
   93MOL   H16216906   2.552   4.739   2.931  0.3817 -0.4486 -2.5339
   93MOL   H16316907   2.682   4.638   2.999 -0.0102 -1.4221  0.4807
   93MOL   C16416908   2.541   4.532   3.205 -0.0529 -0.4677 -0.5279
   93MOL   C16516909   2.450   4.491   3.316  0.0580  0.4053 -0.0447
   93MOL   C16616910   2.306   4.462   3.277  0.2617  0.2796  0.1476
   93MOL   H16716911   2.521   4.449   3.137 -1.8216  0.7603 -1.5575
   93MOL   H16816912   2.647   4.542   3.227 -0.7637  1.5800  2.2898
   93MOL   H16916913   2.435   4.569   3.391 -2.5686  0.6565 -0.7754
   93MOL   H17016914   2.226   4.448   3.350  0.9622 -3.5147  0.3230
   93MOL   H17116915   2.264   4.536   3.209 -0.5335  2.3451  2.7898
   93MOL   H17216916   2.311   4.380   3.205  0.3195 -1.1591  1.7548
   93MOL   C17316917   2.517   4.372   3.383  0.0599 -0.1585  0.5605
   93MOL   C17416918   2.449   4.323   3.511  0.0804  0.1160  0.5902
   93MOL   C17516919   2.499   4.183   3.561 -1.0631 -1.0199 -0.2659
   93MOL   H17616920   2.535   4.286   3.318 -1.2267  0.4815 -0.6822
   93MOL   H17716921   2.620   4.403   3.398  0.1671  0.3368 -1.0645
   93MOL   H17816922   2.342   4.307   3.496  0.6536 -2.9788 -0.6445
   93MOL   H17916923   2.595   4.189   3.612 -1.7800 -1.5767  1.1685
   93MOL   H18016924   2.434   4.159   3.645  0.1127 -0.2793  0.8781
   93MOL   H18116925   2.506   4.107   3.483  0.9610  0.1362 -1.2732
   93MOL   H18216926   2.468   4.394   3.592 -1.1903  0.6311  0.4389
   94MOL     C116927   2.636   2.906   3.789 -0.1738  0.9565 -0.8569
   94MOL     C216928   2.613   2.864   3.648 -0.1201 -0.2009 -0.9458
   94MOL     C316929   2.679   2.734   3.628  0.2543 -0.4635  0.5102
   94MOL     H416930   2.734   2.947   3.812  0.8618 -1.8564  0.0670
   94MOL     H516931   2.605   2.827   3.858  0.5209  2.1217  0.7965
   94MOL     H616932   2.656   2.948   3.594 -1.6814  1.6218  0.5838
   94MOL     H716933   2.683   2.701   3.524  1.8192 -2.0109  1.0421
   94MOL     H816934   2.782   2.734   3.665 -0.0392 -1.8151  1.3636
   94MOL     H916935   2.622   2.656   3.677  0.5339 -1.3971 -0.6252
   94MOL    H1016936   2.573   2.989   3.819 -0.9792  0.1706 -0.3523
   94MOL    C1116937   2.462   2.864   3.622 -0.7062  0.3315 -0.0074
   94MOL    C1216938   2.415   2.824   3.473 -0.3286 -0.4799  0.3314
   94MOL    C1316939   2.262   2.821   3.469  0.4785  0.3143 -0.0919
   94MOL    H1416940   2.413   2.799   3.695  1.2348 -2.1887 -0.8964
   94MOL    H1516941   2.414   2.962   3.626 -0.5180  0.4165  0.1251
   94MOL    H1616942   2.443   2.720   3.455  0.5748 -0.3904  1.1478
   94MOL    H1716943   2.232   2.759   3.553 -1.0452  0.8531 -0.2296
   94MOL    H1816944   2.226   2.924   3.470 -1.4698 -0.2989 -2.0994
   94MOL    H1916945   2.218   2.788   3.375  2.2935 -0.7232 -0.6043
   94MOL    C2016946   2.472   2.915   3.360 -0.0107 -0.2567  0.3701
   94MOL    C2116947   2.473   2.845   3.221 -0.1593  0.5380 -0.5501
   94MOL    C2216948   2.351   2.899   3.134  0.1788 -0.7957 -0.6078
   94MOL    H2316949   2.421   3.011   3.353 -0.2111 -0.1834  2.4724
   94MOL    H2416950   2.574   2.944   3.382  0.9571 -2.8573 -0.4611
   94MOL    H2516951   2.467   2.736   3.229  3.5238  0.0453 -3.3716
   94MOL    H2616952   2.358   3.007   3.122  0.9119 -0.6640  0.8882
   94MOL    H2716953   2.352   2.856   3.033 -0.7907 -1.6902 -0.2498
   94MOL    H2816954   2.255   2.870   3.178  0.9783 -2.0309  0.3506
   94MOL    C2916955   2.605   2.872   3.154 -1.1820 -0.6648  0.3480
   94MOL    C3016956   2.663   2.752   3.072 -0.4314 -0.0909 -0.2204
   94MOL    C3116957   2.576   2.720   2.946 -0.0280  0.1723 -0.2150
   94MOL    H3216958   2.601   2.965   3.097 -1.3448 -1.9566 -1.8009
   94MOL    H3316959   2.683   2.894   3.227  0.3067 -1.8626 -0.8489
   94MOL    H3416960   2.674   2.671   3.144  0.1244  0.4165  0.2616
   94MOL    H3516961   2.568   2.815   2.893  0.1872  0.9407  1.0886
   94MOL    H3616962   2.620   2.653   2.873  0.9011 -0.6630  1.0784
   94MOL    H3716963   2.483   2.682   2.988  0.2674 -1.2053 -0.8204
   94MOL    C3816964   2.804   2.791   3.012  0.0160 -0.1110  0.5953
   94MOL    C3916965   2.913   2.842   3.100 -0.2026  0.1959  0.0653
   94MOL    C4016966   2.958   2.754   3.214 -0.3924  0.2318 -0.1258
   94MOL    H4116967   2.834   2.700   2.960 -4.1332 -1.3947  0.2546
   94MOL    H4216968   2.789   2.871   2.938  2.3003  2.0446  2.3788
   94MOL    H4316969   2.889   2.938   3.145  2.2782  0.4503  0.9161
   94MOL    H4416970   3.011   2.815   3.287  1.3896  0.0759 -1.2384
   94MOL    H4516971   2.876   2.707   3.267 -0.2781 -0.3766 -0.4818
   94MOL    H4616972   3.018   2.672   3.174 -0.3753 -0.1888  0.7693
   94MOL    C4716973   3.036   2.866   3.008  0.1513 -0.5127  0.2414
   94MOL    C4816974   3.040   2.984   2.908 -0.4497 -0.5520 -0.1697
   94MOL    C4916975   2.999   3.122   2.976 -0.3386  0.0245 -0.6329
   94MOL    H5016976   3.124   2.867   3.073 -1.4473  0.5275  2.4538
   94MOL    H5116977   3.061   2.773   2.956  1.4458 -1.9619  3.2655
   94MOL    H5216978   2.967   2.963   2.831  1.5936 -0.3504 -2.2089
   94MOL    H5316979   2.964   3.189   2.897  0.4061  1.0828 -0.0758
   94MOL    H5416980   2.913   3.121   3.043 -0.7159 -0.9478 -1.1180
   94MOL    H5516981   3.082   3.168   3.030  1.0815 -0.4973 -2.3150
   94MOL    C5616982   3.185   2.985   2.851  0.0093  0.4769  0.5127
   94MOL    C5716983   3.204   3.058   2.716 -0.8349 -0.9652  0.1599
   94MOL    C5816984   3.116   3.002   2.597  0.2589 -0.5954 -0.6847
   94MOL    H5916985   3.260   3.022   2.920  0.8493  2.3102 -1.3352
   94MOL    H6016986   3.215   2.883   2.827  1.2800  0.7556  0.9261
   94MOL    H6116987   3.305   3.030   2.686 -0.0634  0.5111  1.3410
   94MOL    H6216988   3.118   2.895   2.576 -0.8571 -0.3558 -2.0828
   94MOL    H6316989   3.014   3.039   2.599  0.2650 -0.6441  0.9616
   94MOL    H6416990   3.157   3.051   2.508  1.8837  0.6531  0.7116
   94MOL    C6516991   3.196   3.209   2.737 -0.2146  0.4860  0.0104
   94MOL    C6616992   3.284   3.294   2.642 -0.6083  0.0218  0.0587
   94MOL    C6716993   3.233   3.437   2.616 -0.4068 -0.2284 -0.2070
   94MOL    H6816994   3.093   3.246   2.730 -0.4725 -0.3096 -0.4560
   94MOL    H6916995   3.216   3.232   2.841 -2.4305  1.9102  0.1615
   94MOL    H7016996   3.288   3.238   2.548 -1.7508  0.9399 -0.5480
   94MOL    H7116997   3.286   3.492   2.539  0.0818  0.0655  0.3387
   94MOL    H7216998   3.130   3.420   2.586 -0.6833  2.2081 -0.7085
   94MOL    H7316999   3.240   3.501   2.704 -0.4565  0.8035 -0.9537
   94MOL    C7417000   3.429   3.298   2.691  0.9373  0.7857  0.2631
   94MOL    C7517001   3.545   3.330   2.590 -0.3345  0.3963 -0.2281
   94MOL    C7617002   3.660   3.400   2.663 -0.3837  0.1840  0.2488
   94MOL    H7717003   3.435   3.365   2.776  0.3446  0.8665  0.2451
   94MOL    H7817004   3.443   3.204   2.744  0.0111 -0.4192 -1.5719
   94MOL    H7917005   3.503   3.402   2.520 -0.7829  1.7791  1.4179
   94MOL    H8017006   3.725   3.324   2.707  0.0618  0.8805  0.7914
   94MOL    H8117007   3.741   3.442   2.602 -1.8091 -0.1396 -1.9351
   94MOL    H8217008   3.634   3.471   2.741 -0.9881  0.3192 -0.0726
   94MOL    C8317009   3.599   3.215   2.499 -0.0959  0.3326 -0.4686
   94MOL    C8417010   3.489   3.136   2.417  0.1221 -0.0198  0.4235
   94MOL    C8517011   3.422   3.221   2.311  0.0628  0.0484 -0.3306
   94MOL    H8617012   3.659   3.266   2.423  0.5010  1.2386  0.5970
   94MOL    H8717013   3.661   3.153   2.563 -0.8212  0.4810  0.3821
   94MOL    H8817014   3.412   3.092   2.481 -2.0160 -0.2973 -2.2141
   94MOL    H8917015   3.491   3.270   2.241 -1.5046  1.9880 -0.5320
   94MOL    H9017016   3.365   3.167   2.235  1.6313  0.0875 -1.5803
   94MOL    H9117017   3.367   3.301   2.360 -0.5770  0.4829 -1.7285
   94MOL    C9217018   3.561   3.017   2.351 -0.2009 -0.3079  0.3077
   94MOL    C9317019   3.587   2.890   2.438 -0.4489  0.0782  0.0646
   94MOL    C9417020   3.457   2.805   2.470 -0.5214  0.5366  0.1731
   94MOL    H9517021   3.495   2.982   2.272 -0.7625 -0.3966  0.8079
   94MOL    H9617022   3.651   3.049   2.299 -1.1799  0.3370 -0.9943
   94MOL    H9717023   3.633   2.926   2.531  2.2642 -1.4073 -0.6473
   94MOL    H9817024   3.383   2.787   2.393 -2.0436  0.5077  1.6360
   94MOL    H9917025   3.485   2.711   2.517 -1.1648 -1.0391 -2.5088
   94MOL   H10017026   3.400   2.851   2.550 -0.8576 -1.0733  0.8754
   94MOL   C10117027   3.694   2.795   2.373 -0.4064  0.3355  0.4337
   94MOL   C10217028   3.834   2.823   2.425 -0.2273  0.4926 -0.4550
   94MOL   C10317029   3.845   2.763   2.563 -0.2398 -0.5000 -0.3383
   94MOL   H10417030   3.674   2.689   2.385  0.1138  0.1866  0.0190
   94MOL   H10517031   3.696   2.813   2.266 -2.1930  2.0990  0.6764
   94MOL   H10617032   3.862   2.928   2.433  3.4593 -0.2558 -2.3129
   94MOL   H10717033   3.946   2.761   2.605 -0.3071 -0.2168 -0.1666
   94MOL   H10817034   3.776   2.811   2.632  1.2922 -2.8229  2.9241
   94MOL   H10917035   3.805   2.661   2.561 -0.9212 -0.2636  0.7890
   94MOL   C11017036   3.931   2.758   2.320  0.2628 -0.5562  0.7977
   94MOL   C11117037   3.973   2.848   2.194 -0.6723  0.0323  0.6287
   94MOL   C11217038   3.996   2.993   2.227  0.3822  0.1354  0.2201
   94MOL   H11317039   4.019   2.726   2.376  2.1794  1.6331 -0.8536
   94MOL   H11417040   3.901   2.658   2.288 -1.1514 -0.3936  1.5935
   94MOL   H11517041   3.900   2.846   2.113 -1.8012 -3.1283  1.6319
   94MOL   H11617042   4.051   3.052   2.154  0.3925  0.2102  0.2877
   94MOL   H11717043   3.904   3.050   2.241 -0.4813 -1.2827  0.3891
   94MOL   H11817044   4.042   3.001   2.326 -0.4939  0.5844  0.5928
   94MOL   C11917045   4.104   2.789   2.131  1.0183  0.6834  0.9385
   94MOL   C12017046   4.082   2.648   2.067  0.2026 -0.5147 -0.1254
   94MOL   C12117047   3.984   2.642   1.946  0.3345 -0.4838 -0.3008
   94MOL   H12217048   4.152   2.845   2.050  0.6306 -1.5062 -0.8636
   94MOL   H12317049   4.183   2.793   2.206  0.0717  3.0560  1.8179
   94MOL   H12417050   4.038   2.577   2.137  1.5104 -0.8258  0.3921
   94MOL   H12517051   3.884   2.653   1.988 -0.5416 -1.7037 -2.0004
   94MOL   H12617052   3.988   2.729   1.881 -1.9133  0.3015  0.5450
   94MOL   H12717053   3.994   2.553   1.885 -0.3563 -2.1906  1.9957
   94MOL   C12817054   4.217   2.588   2.018 -0.0065 -0.2066 -0.6328
   94MOL   C12917055   4.222   2.434   2.015 -0.1750  0.9440  0.6313
   94MOL   C13017056   4.299   2.379   1.894  0.3086  0.5008  0.5032
   94MOL   H13117057   4.222   2.629   1.917  0.9053 -1.0247 -0.9246
   94MOL   H13217058   4.309   2.627   2.061  0.4011 -1.4499 -0.3669
   94MOL   H13317059   4.118   2.401   2.013 -0.3258  1.4240 -2.2317
   94MOL   H13417060   4.248   2.423   1.809 -4.3393  0.2336  2.9708
   94MOL   H13517061   4.402   2.411   1.876  0.1643  0.5078 -0.3277
   94MOL   H13617062   4.289   2.271   1.897 -2.5476  0.7178 -0.0422
   94MOL   C13717063   4.291   2.373   2.141  0.1600  0.5239 -0.8966
   94MOL   C13817064   4.245   2.412   2.285 -0.0215  0.1610 -0.2692
   94MOL   C13917065   4.116   2.335   2.318  0.1253  0.2399  0.0048
   94MOL   H14017066   4.301   2.265   2.139 -0.0638  0.5012 -0.8067
   94MOL   H14117067   4.394   2.406   2.128 -0.2669  2.7225  0.9873
   94MOL   H14217068   4.214   2.516   2.299 -0.9597 -0.0689 -0.6492
   94MOL   H14317069   4.038   2.354   2.244  0.0025 -0.4871 -0.0550
   94MOL   H14417070   4.129   2.227   2.327  0.6041  0.2094 -1.0539
   94MOL   H14517071   4.078   2.372   2.414  1.1618  1.0721  0.1015
   94MOL   C14617072   4.364   2.401   2.382  0.4086  0.9575  0.0403
   94MOL   C14717073   4.432   2.540   2.393  0.2133  0.3000  0.2490
   94MOL   C14817074   4.359   2.631   2.490 -1.4123  0.2582 -0.0633
   94MOL   H14917075   4.331   2.372   2.482 -1.8307 -1.0230 -1.2228
   94MOL   H15017076   4.429   2.321   2.348 -0.8430  0.0188 -0.1713
   94MOL   H15117077   4.420   2.585   2.295 -0.7638 -1.0079 -0.2435
   94MOL   H15217078   4.422   2.715   2.521  1.8950 -2.0262 -0.3076
   94MOL   H15317079   4.257   2.656   2.461 -1.0655 -0.5588 -2.0904
   94MOL   H15417080   4.347   2.587   2.589  1.4933 -0.5073  0.0053
   94MOL   C15517081   4.583   2.522   2.441  0.1911  0.2446 -0.0994
   94MOL   C15617082   4.673   2.462   2.334 -0.1829 -0.1302 -1.3837
   94MOL   C15717083   4.706   2.576   2.246 -0.0671 -0.6082 -0.0532
   94MOL   H15817084   4.618   2.620   2.471  1.0090 -0.3296  0.8603
   94MOL   H15917085   4.579   2.451   2.524 -0.0555  0.2679 -0.0917
   94MOL   H16017086   4.620   2.390   2.271 -1.8446  0.8299 -1.1099
   94MOL   H16117087   4.762   2.655   2.295  0.4872 -3.0055  3.3558
   94MOL   H16217088   4.774   2.547   2.166  0.2960 -0.1369  0.0855
   94MOL   H16317089   4.621   2.622   2.195  1.2969  1.0184 -0.9398
   94MOL   C16417090   4.806   2.407   2.396  0.4441 -0.0856  0.4758
   94MOL   C16517091   4.776   2.268   2.462 -0.2415  0.1233  0.0085
   94MOL   C16617092   4.739   2.168   2.353 -1.0381 -0.3039  0.1706
   94MOL   H16717093   4.882   2.402   2.318 -0.7510  1.3820 -0.8446
   94MOL   H16817094   4.850   2.481   2.463  0.7472 -0.4346  0.6612
   94MOL   H16917095   4.704   2.265   2.544  0.6350 -0.5818  0.7617
   94MOL   H17017096   4.635   2.170   2.322 -0.7133  0.4896 -0.8788
   94MOL   H17117097   4.786   2.177   2.255 -2.6843  1.2626 -0.4840
   94MOL   H17217098   4.769   2.072   2.395 -0.0581 -0.1485 -0.1613
   94MOL   C17317099   4.897   2.226   2.550 -0.1516  0.1817  0.2266
   94MOL   C17417100   4.923   2.314   2.673 -0.2060  0.1018 -0.9505
   94MOL   C17517101   5.037   2.263   2.763  0.3111  0.1928  0.4506
   94MOL   H17617102   4.881   2.122   2.580  0.8080 -0.2837 -0.8432
   94MOL   H17717103   4.985   2.230   2.485 -0.3454 -2.0313 -0.2243
   94MOL   H17817104   4.839   2.320   2.743 -0.5996  0.0007 -1.4068
   94MOL   H17917105   5.056   2.340   2.837  1.0180 -2.8245  3.5697
   94MOL   H18017106   5.015   2.169   2.815 -1.4355 -0.0971 -0.7441
   94MOL   H18117107   5.128   2.230   2.713 -1.3514 -0.9384 -1.9147
   94MOL   H18217108   4.951   2.416   2.648 -0.2308  0.2884 -0.2075
   95MOL     C117109   0.467   7.036   6.542 -0.3095 -0.6867 -0.2110
   95MOL     C217110   0.369   6.967   6.441 -0.3677 -0.5388 -0.2492
   95MOL     C317111   0.300   6.852   6.508  0.6748  0.1741 -0.2452
   95MOL     H417112   0.542   7.103   6.500 -0.0314 -0.0431  1.2700
   95MOL     H517113   0.536   6.964   6.588 -1.3539 -0.3817  1.8716
   95MOL     H617114   0.428   6.917   6.364 -0.2573 -1.3515  0.3628
   95MOL     H717115   0.255   6.889   6.600 -0.4305 -0.1959 -0.6269
   95MOL     H817116   0.211   6.828   6.448  0.6848  0.7079 -0.4819
   95MOL     H917117   0.363   6.767   6.534  1.3479 -0.1474 -2.7861
   95MOL    H1017118   0.423   7.090   6.626  1.4790  0.2749  0.1511
   95MOL    C1117119   0.275   7.071   6.374 -0.3871  0.5195  0.2521
   95MOL    C1217120   0.346   7.181   6.289 -0.4318  0.9409 -0.1091
   95MOL    C1317121   0.447   7.124   6.189 -0.2642  0.1836  0.4250
   95MOL    H1417122   0.214   7.009   6.308 -0.9595  0.6669  0.6429
   95MOL    H1517123   0.203   7.114   6.444 -1.5801 -2.1939  0.7253
   95MOL    H1617124   0.401   7.233   6.368  0.9867  0.4455 -0.7445
   95MOL    H1717125   0.404   7.042   6.132 -1.3532  0.6444  0.5750
   95MOL    H1817126   0.473   7.209   6.126 -2.3397  0.1466 -0.5282
   95MOL    H1917127   0.543   7.089   6.228  0.3247  0.1890 -0.9912
   95MOL    C2017128   0.237   7.273   6.227  0.0264  0.2670  0.6627
   95MOL    C2117129   0.283   7.420   6.255  0.2719 -0.4912 -0.0254
   95MOL    C2217130   0.372   7.475   6.136  0.0316 -0.2180  0.6372
   95MOL    H2317131   0.215   7.269   6.120  0.5938  0.4128  0.5392
   95MOL    H2417132   0.138   7.266   6.274 -1.1281 -2.2088 -2.0160
   95MOL    H2517133   0.352   7.425   6.339  0.4760  2.0586 -0.3131
   95MOL    H2617134   0.398   7.581   6.137  2.2350 -0.7446  1.6388
   95MOL    H2717135   0.470   7.428   6.135 -0.6801 -1.7637  2.3148
   95MOL    H2817136   0.326   7.463   6.038 -0.0244  1.9740  0.3562
   95MOL    C2917137   0.164   7.511   6.285 -0.6697  0.2875 -0.2896
   95MOL    C3017138   0.085   7.484   6.415 -0.3128 -0.4751  0.2285
   95MOL    C3117139   0.175   7.465   6.536  0.5220 -0.2085  0.2727
   95MOL    H3217140   0.206   7.611   6.295 -0.1800 -0.0561  1.2314
   95MOL    H3317141   0.109   7.517   6.191  0.4248 -1.4337 -1.0601
   95MOL    H3417142   0.035   7.388   6.397 -1.0826 -0.0565  0.1172
   95MOL    H3517143   0.233   7.555   6.555 -0.6005  0.6859 -0.4515
   95MOL    H3617144   0.111   7.445   6.622  1.5656  0.0642  1.1100
   95MOL    H3717145   0.235   7.374   6.530 -1.4308 -1.4796 -0.4963
   95MOL    C3817146   7.682   7.601   6.444 -0.1248 -0.6429 -0.5363
   95MOL    C3917147   7.561   7.609   6.347  0.2527 -0.5810  0.1709
   95MOL    C4017148   7.456   7.496   6.376 -0.3428 -1.3322 -0.6554
   95MOL    H4117149   7.646   7.584   6.545  1.0720  0.6712  0.1159
   95MOL    H4217150   0.046   7.690   6.455 -0.4961 -0.2973 -1.2311
   95MOL    H4317151   7.604   7.600   6.247 -0.9612 -0.8207 -0.3491
   95MOL    H4417152   7.496   7.397   6.397  1.5051 -0.8709 -1.8967
   95MOL    H4517153   7.415   7.522   6.474 -0.6007 -0.0070 -1.1029
   95MOL    H4617154   7.379   7.493   6.299 -0.7623  1.3859 -0.3843
   95MOL    C4717155   7.501   0.056   6.354  0.1279 -0.4936  0.2095
   95MOL    C4817156   7.395   0.094   6.255  0.5311  0.5011 -0.0506
   95MOL    C4917157   7.251   0.061   6.314  0.2607 -0.7252 -0.1525
   95MOL    H5017158   7.455   0.087   6.448 -0.3641  0.9594 -0.4931
   95MOL    H5117159   7.580   0.131   6.349 -1.5446  1.2926 -0.2457
   95MOL    H5217160   7.416   0.031   6.168 -0.5843  0.9573 -0.6700
   95MOL    H5317161   7.211   0.126   6.392 -1.7051 -0.6475 -1.1805
   95MOL    H5417162   7.180   0.064   6.231 -0.3603  0.1571  0.3935
   95MOL    H5517163   7.236   7.653   6.340 -0.1097 -0.3602  1.1575
   95MOL    C5617164   7.413   0.236   6.207 -0.0842 -0.0483  0.4488
   95MOL    C5717165   7.529   0.249   6.096 -0.0208  0.9265 -0.0017
   95MOL    C5817166   7.478   0.205   5.957 -0.2735 -0.7685 -0.6447
   95MOL    H5917167   7.322   0.282   6.168 -1.3954 -3.1128 -0.2848
   95MOL    H6017168   7.443   0.302   6.289  0.5034  1.0126 -0.6152
   95MOL    H6117169   7.609   0.177   6.117 -0.9869 -0.2785 -0.3830
   95MOL    H6217170   7.550   0.206   5.875 -0.3656 -1.2468 -0.7305
   95MOL    H6317171   7.434   0.106   5.951 -4.0657  0.7789 -0.0119
   95MOL    H6417172   7.407   0.281   5.925 -1.1878 -2.1518 -1.9780
   95MOL    C6517173   7.588   0.390   6.086 -0.1701  0.3368 -0.1295
   95MOL    C6617174   0.025   0.407   6.023 -0.2234  0.5079  0.2038
   95MOL    C6717175   0.036   0.547   5.985 -0.8132 -0.5993 -0.9024
   95MOL    H6817176   7.509   0.447   6.038  0.2935  0.8591 -0.2752
   95MOL    H6917177   7.601   0.431   6.186  0.8246 -0.0955 -0.0737
   95MOL    H7017178   0.041   0.335   5.943 -1.1395 -1.5696  1.8640
   95MOL    H7117179   7.664   0.586   5.911 -2.6341  0.7933  1.4372
   95MOL    H7217180   0.022   0.608   6.075 -1.6035 -2.9950  0.6646
   95MOL    H7317181   0.134   0.573   5.945 -1.9363  1.3543 -2.5001
   95MOL    C7417182   0.143   0.379   6.125  0.5358 -0.0274 -0.1037
   95MOL    C7517183   0.270   0.339   6.048 -0.3336 -0.3175 -0.1668
   95MOL    C7617184   0.385   0.385   6.146  0.3289 -0.0662 -0.0357
   95MOL    H7717185   0.153   0.462   6.195 -1.0622  0.1537 -0.0718
   95MOL    H7817186   0.121   0.291   6.185 -1.1149  2.4252  3.0585
   95MOL    H7917187   0.267   0.400   5.958 -1.0170 -1.0581 -0.6509
   95MOL    H8017188   0.487   0.389   6.109  0.2455 -3.4895 -0.8220
   95MOL    H8117189   0.370   0.489   6.175  2.6532 -0.1773  1.7276
   95MOL    H8217190   0.384   0.331   6.241 -1.1445  0.8145  0.4668
   95MOL    C8317191   0.268   0.191   6.011 -0.1910 -0.3366  0.0890
   95MOL    C8417192   0.328   0.145   5.881  0.9194  0.2104 -0.7031
   95MOL    C8517193   0.484   0.153   5.865  0.3684 -0.0374  0.1574
   95MOL    H8617194   0.309   0.127   6.088 -0.7957 -0.2600  0.4776
   95MOL    H8717195   0.165   0.155   6.017 -0.8892  1.3032 -1.3816
   95MOL    H8817196   0.293   0.214   5.804  0.5132  0.2177 -0.5136
   95MOL    H8917197   0.517   0.126   5.765  0.4729  0.2069  0.1255
   95MOL    H9017198   0.508   0.259   5.863 -1.1501  0.3066 -1.4543
   95MOL    H9117199   0.539   0.101   5.943 -0.1759 -0.3283  0.3487
   95MOL    C9217200   0.285   0.002   5.842 -0.0429 -0.2251 -0.0588
   95MOL    C9317201   0.134   7.669   5.813 -0.1725 -0.4930 -0.0850
   95MOL    C9417202   0.090   0.056   5.693  0.2684  0.8866 -0.5413
   95MOL    H9517203   0.338   7.670   5.751  1.3807  0.7050  0.4507
   95MOL    H9617204   0.312   7.633   5.924 -2.4854  1.1031  1.8964
   95MOL    H9717205   0.067   7.695   5.894  0.9030 -1.1942  1.0424
   95MOL    H9817206   7.692   0.019   5.656 -0.2515  0.1655  1.4870
   95MOL    H9917207   0.079   0.160   5.725  0.4179  0.9449 -0.6816
   95MOL   H10017208   0.167   0.044   5.617 -1.4311  2.8031 -2.6277
   95MOL   C10117209   0.118   7.517   5.793  0.5368 -0.4078 -0.0134
   95MOL   C10217210   7.672   7.464   5.760  0.3315 -0.2312 -0.0696
   95MOL   C10317211   7.671   7.311   5.734  0.2177  0.3048  0.4410
   95MOL   H10417212   0.185   7.480   5.716  1.6723 -1.1758  1.3110
   95MOL   H10517213   0.153   7.464   5.882 -0.6662 -1.1488  0.0132
   95MOL   H10617214   7.646   7.509   5.665  0.8436  0.0793 -0.0667
   95MOL   H10717215   7.677   7.262   5.831  1.3786 -2.4490 -0.9367
   95MOL   H10817216   7.580   7.285   5.678  1.5756 -0.9918 -1.2172
   95MOL   H10917217   0.051   7.279   5.664  0.4769  0.4065  0.6860
   95MOL   C11017218   7.562   7.505   5.855  0.7408 -0.4412 -0.0388
   95MOL   C11117219   7.412   7.475   5.813 -0.2463  0.0141  0.1464
   95MOL   C11217220   7.319   7.484   5.924  0.4226  0.1243  0.0131
   95MOL   H11317221   7.590   7.468   5.954  2.1326 -3.3318 -1.4629
   95MOL   H11417222   7.564   7.613   5.871  2.5901  0.0297 -2.9654
   95MOL   H11517223   7.410   7.371   5.779 -1.1181 -0.1771  0.7588
   95MOL   H11617224   7.315   7.583   5.969 -0.0057 -0.3260  0.9746
   95MOL   H11717225   7.219   7.445   5.904  1.1428 -1.4416 -0.6538
   95MOL   H11817226   7.350   7.422   6.007  2.0257  1.5581  0.5034
   95MOL   C11917227   7.359   7.565   5.700  0.8288  0.3079 -0.2834
   95MOL   C12017228   7.227   7.533   5.627 -0.0808  0.5704  0.5615
   95MOL   C12117229   7.147   7.652   5.592 -0.1018 -0.2777 -0.0549
   95MOL   H12217230   7.345   7.666   5.741 -1.4529 -0.5609  1.1754
   95MOL   H12317231   7.441   7.562   5.628  0.9438 -0.2587 -0.1269
   95MOL   H12417232   7.157   7.483   5.694 -1.1246 -1.0002 -1.6068
   95MOL   H12517233   7.208   0.017   5.527 -0.2092 -0.5533 -0.4217
   95MOL   H12617234   7.050   7.626   5.551  0.2977 -0.1870 -1.0587
   95MOL   H12717235   7.130   0.012   5.683  0.1018  1.6897 -1.2394
   95MOL   C12817236   7.241   7.442   5.497  0.7540 -1.1148  0.1584
   95MOL   C12917237   7.283   7.296   5.506 -0.0169  0.4952  0.3309
   95MOL   C13017238   7.188   7.211   5.603  0.0607  0.1459  0.4273
   95MOL   H13117239   7.157   7.442   5.429 -0.1551  0.1210  1.2561
   95MOL   H13217240   7.318   7.500   5.446  0.1241  0.2491  0.7228
   95MOL   H13317241   7.383   7.310   5.548 -0.1001 -1.8014  1.3884
   95MOL   H13417242   7.097   7.266   5.624  1.5334  2.1102  1.9353
   95MOL   H13517243   7.173   7.113   5.558 -2.1836  0.5021  0.3607
   95MOL   H13617244   7.234   7.180   5.697 -2.0558 -0.9836  1.1223
   95MOL   C13717245   7.303   7.242   5.369 -0.7897 -0.0590  0.4141
   95MOL   C13817246   7.385   7.112   5.353  0.0565  0.0000 -0.3479
   95MOL   C13917247   7.389   7.060   5.209  0.8348  0.4477 -0.0596
   95MOL   H14017248   7.205   7.241   5.322 -0.0042  1.1725 -1.2751
   95MOL   H14117249   7.359   7.317   5.314 -1.7184  0.5234  0.2523
   95MOL   H14217250   7.331   7.028   5.398  1.1484  0.3944  1.7367
   95MOL   H14317251   7.439   6.963   5.206  0.4083  0.2071  0.6843
   95MOL   H14417252   7.288   7.050   5.170  0.9272  1.5445 -0.6098
   95MOL   H14517253   7.439   7.132   5.144 -0.5287  1.4736  0.0244
   95MOL   C14617254   7.525   7.131   5.411 -0.5052 -0.7465 -0.6432
   95MOL   C14717255   7.626   7.015   5.386 -0.0751  0.2385 -0.0861
   95MOL   C14817256   0.075   7.053   5.424 -0.7083  0.2645  0.2406
   95MOL   H14917257   7.571   7.214   5.357 -1.8235 -0.0177 -0.6714
   95MOL   H15017258   7.522   7.162   5.515  1.7691 -0.4592 -0.6349
   95MOL   H15117259   7.638   7.003   5.278  0.2233 -2.6177  0.2321
   95MOL   H15217260   0.153   6.988   5.387  0.1711  0.8587  1.0101
   95MOL   H15317261   0.094   7.149   5.375  3.4073 -0.4868  0.1776
   95MOL   H15417262   0.092   7.061   5.532 -0.0506 -1.4372  0.2646
   95MOL   C15517263   7.572   6.883   5.453  0.6555 -0.3106 -0.4828
   95MOL   C15617264   7.660   6.762   5.460  0.1556  0.1734 -0.1360
   95MOL   C15717265   7.596   6.659   5.560  0.4008 -0.5261  0.5580
   95MOL   H15817266   7.560   6.902   5.560  1.0220  1.5783 -0.7589
   95MOL   H15917267   7.469   6.860   5.427 -0.3003  1.2048  1.8246
   95MOL   H16017268   0.058   6.798   5.498 -0.0587  0.5831  0.0166
   95MOL   H16117269   7.490   6.638   5.547  0.6237  0.5144 -3.4674
   95MOL   H16217270   7.650   6.564   5.559  0.3219 -0.5751  0.9354
   95MOL   H16317271   7.612   6.683   5.666  1.6370  1.7984 -0.1113
   95MOL   C16417272   7.691   6.696   5.319 -0.2890 -0.5146  1.1297
   95MOL   C16517273   0.093   6.577   5.308 -0.1782 -0.6255 -0.5958
   95MOL   C16617274   0.097   6.509   5.173  0.5141  0.1396  0.2263
   95MOL   H16717275   7.590   6.667   5.289 -0.2682  2.2305 -1.9710
   95MOL   H16817276   0.022   6.775   5.249  1.0957 -0.6242  1.5548
   95MOL   H16917277   0.061   6.499   5.376 -1.5069 -0.6261 -1.1969
   95MOL   H17017278   7.694   6.487   5.136  0.3550 -0.6243  1.0857
   95MOL   H17117279   0.146   6.570   5.098  1.7359 -0.6915  0.3373
   95MOL   H17217280   0.152   6.416   5.185  1.3019  0.7111  1.1355
   95MOL   C17317281   0.232   6.611   5.363 -0.6805  0.2397  0.0902
   95MOL   C17417282   0.310   6.717   5.274  0.5545  0.1895 -0.0226
   95MOL   C17517283   0.447   6.768   5.341  0.3883 -0.0598  0.3257
   95MOL   H17617284   0.220   6.654   5.462  0.5716 -1.2262  0.9105
   95MOL   H17717285   0.293   6.521   5.374 -2.1127 -0.6972  0.5450
   95MOL   H17817286   0.250   6.805   5.251  0.8159  0.4330  0.2203
   95MOL   H17917287   0.406   6.810   5.433  0.1817  0.5580 -0.0505
   95MOL   H18017288   0.521   6.691   5.364 -0.7388 -0.6067  2.2734
   95MOL   H18117289   0.504   6.845   5.289  1.7695 -0.8685  0.6126
   95MOL   H18217290   0.345   6.683   5.177  0.4829  0.4911 -0.1564
   96MOL     C117291   1.608   3.391   3.891 -0.9925  0.2925 -0.6555
   96MOL     C217292   1.733   3.414   3.978  0.1347  0.1634 -0.4563
   96MOL     C317293   1.799   3.276   3.996  0.2155  0.4484  0.3746
   96MOL     H417294   1.530   3.458   3.926 -1.8903 -0.0623 -1.9496
   96MOL     H517295   1.575   3.287   3.888 -1.7474  0.5683 -2.1612
   96MOL     H617296   1.700   3.442   4.078  0.1774 -1.4909  0.0307
   96MOL     H717297   1.845   3.240   3.903  1.0159  1.0717  0.5275
   96MOL     H817298   1.874   3.270   4.075 -0.2205 -0.3573  0.7341
   96MOL     H917299   1.724   3.202   4.025  0.3511  0.0097 -0.3748
   96MOL    H1017300   1.632   3.409   3.787  1.5261 -1.5696 -0.4537
   96MOL    C1117301   1.839   3.516   3.927 -0.0269 -0.5268 -0.6902
   96MOL    C1217302   1.803   3.658   3.959  0.2483  0.2043  0.9185
   96MOL    C1317303   1.866   3.709   4.092 -0.0532 -0.6683 -0.2116
   96MOL    H1417304   1.941   3.506   3.964 -1.2043  0.0014  2.8933
   96MOL    H1517305   1.843   3.499   3.819  0.6940  1.9927 -1.0749
   96MOL    H1617306   1.695   3.666   3.963 -0.0040 -0.6062 -2.7695
   96MOL    H1717307   1.832   3.636   4.165 -0.4476  0.8873  1.1687
   96MOL    H1817308   1.974   3.707   4.106 -0.2967  1.7333  2.3613
   96MOL    H1917309   1.827   3.802   4.131  3.5861  0.2004  1.5394
   96MOL    C2017310   1.847   3.755   3.844 -0.0140 -0.2990  0.7814
   96MOL    C2117311   1.748   3.775   3.728 -0.2482  0.3067 -0.5444
   96MOL    C2217312   1.641   3.872   3.776  0.0729 -0.3836 -0.4516
   96MOL    H2317313   1.868   3.854   3.883  2.6755 -0.4052 -0.2164
   96MOL    H2417314   1.943   3.720   3.805 -0.8595 -0.7950 -0.9295
   96MOL    H2517315   1.693   3.686   3.697 -0.7587 -0.2895  1.9648
   96MOL    H2617316   1.597   3.842   3.871 -0.0219  1.0166 -0.0335
   96MOL    H2717317   1.681   3.971   3.797 -0.8920 -0.5531  2.3725
   96MOL    H2817318   1.558   3.889   3.708  0.1326 -1.7195 -0.8751
   96MOL    C2917319   1.813   3.839   3.606 -0.3554 -0.1379  0.2426
   96MOL    C3017320   1.898   3.733   3.530  0.0941 -0.6426 -0.3869
   96MOL    C3117321   1.816   3.620   3.457 -0.3903  0.0275 -0.3784
   96MOL    H3217322   1.741   3.893   3.543 -0.9370 -0.6344  0.4755
   96MOL    H3317323   1.879   3.919   3.640  1.0569 -1.3173  0.2986
   96MOL    H3417324   1.946   3.676   3.609  0.8750  4.2813  2.9346
   96MOL    H3517325   1.749   3.569   3.526 -1.3843  0.1384 -1.2400
   96MOL    H3617326   1.763   3.644   3.364  0.4354 -0.0823 -0.8813
   96MOL    H3717327   1.885   3.539   3.435 -0.0027 -0.2750  1.8988
   96MOL    C3817328   1.993   3.794   3.429  0.4062 -0.1069 -0.5017
   96MOL    C3917329   2.112   3.876   3.487  0.5466 -0.2712  0.3373
   96MOL    C4017330   2.172   3.836   3.623  0.4158 -0.6247 -0.1435
   96MOL    H4117331   2.027   3.710   3.367 -0.8480 -1.1919  0.2458
   96MOL    H4217332   1.943   3.851   3.352 -2.8145 -0.1208  1.5047
   96MOL    H4317333   2.075   3.977   3.507 -0.4039 -0.3416 -1.0095
   96MOL    H4417334   2.212   3.735   3.610 -0.0803 -1.1757  2.3528
   96MOL    H4517335   2.258   3.892   3.658  1.2388 -1.6526 -0.5159
   96MOL    H4617336   2.094   3.834   3.700  1.3130  3.3775  0.9439
   96MOL    C4717337   2.222   3.891   3.378  0.0168  0.9330  0.3799
   96MOL    C4817338   2.182   3.929   3.234 -0.1745 -0.0037  0.2277
   96MOL    C4917339   2.134   4.074   3.240  0.3859  0.9742  0.3001
   96MOL    H5017340   2.309   3.948   3.412  1.3433 -0.6870 -0.2262
   96MOL    H5117341   2.263   3.792   3.358  1.3342  1.6954 -0.7545
   96MOL    H5217342   2.105   3.869   3.184  1.1377 -1.2252 -0.3842
   96MOL    H5317343   2.208   4.145   3.277  1.1076 -0.1678  1.0711
   96MOL    H5417344   2.096   4.104   3.142 -1.4400 -2.3397 -0.0739
   96MOL    H5517345   2.058   4.083   3.318 -0.1832 -1.1053  0.0160
   96MOL    C5617346   2.304   3.903   3.141 -0.1338  0.1338 -0.4570
   96MOL    C5717347   2.298   3.970   3.000 -0.1760  0.5108 -0.5671
   96MOL    C5817348   2.442   3.977   2.944  0.2555  0.1455 -0.4657
   96MOL    H5917349   2.386   3.954   3.192 -0.3637  1.8774 -1.7612
   96MOL    H6017350   2.334   3.800   3.128 -0.7029  0.3664 -3.9989
   96MOL    H6117351   2.273   4.075   3.014 -0.3931  0.3678  0.1654
   96MOL    H6217352   2.491   3.882   2.924  1.2740  0.4930  0.3577
   96MOL    H6317353   2.441   4.049   2.862 -0.3802  0.0529 -0.5460
   96MOL    H6417354   2.503   4.014   3.026  0.1754  0.8945 -0.7441
   96MOL    C6517355   2.201   3.914   2.890 -0.4585  0.0500 -0.2181
   96MOL    C6617356   2.228   3.770   2.836  0.1965 -0.0981 -0.5754
   96MOL    C6717357   2.120   3.671   2.887 -0.0174 -0.4543  0.8021
   96MOL    H6817358   2.100   3.923   2.931 -0.3516  0.5139 -0.0479
   96MOL    H6917359   2.200   3.980   2.803  2.3726 -2.4713 -2.2211
   96MOL    H7017360   2.327   3.745   2.873 -0.1701  0.0537  0.5307
   96MOL    H7117361   2.020   3.707   2.863  1.2102  2.7601  0.2072
   96MOL    H7217362   2.140   3.571   2.850  0.3180  0.5212 -1.7620
   96MOL    H7317363   2.120   3.668   2.996  0.1213 -1.7213  0.7713
   96MOL    C7417364   2.223   3.758   2.685  0.1403 -0.7534  0.7584
   96MOL    C7517365   2.338   3.820   2.607 -0.2407 -0.6911 -0.7186
   96MOL    C7617366   2.459   3.732   2.614 -0.0651 -0.0272  0.3812
   96MOL    H7717367   2.198   3.657   2.654  0.7311 -0.4295 -0.8319
   96MOL    H7817368   2.129   3.796   2.646  1.7617 -0.1516 -2.7142
   96MOL    H7917369   2.370   3.907   2.665  2.7544  0.0978 -3.4363
   96MOL    H8017370   2.426   3.628   2.609 -0.9314  0.2000  1.1175
   96MOL    H8117371   2.529   3.758   2.535  0.6241  1.7744  1.5416
   96MOL    H8217372   2.511   3.745   2.709  2.3913  0.6523 -1.0211
   96MOL    C8317373   2.294   3.873   2.468 -0.3636 -0.2826 -0.3001
   96MOL    C8417374   2.386   3.947   2.378 -0.4094  0.6024 -0.3933
   96MOL    C8517375   2.320   3.981   2.248 -0.5875  0.3760  0.3415
   96MOL    H8617376   2.253   3.787   2.415 -1.8756  0.2855 -0.0796
   96MOL    H8717377   2.209   3.938   2.493  0.5239  0.6749  0.2677
   96MOL    H8817378   2.461   3.875   2.345 -1.8875 -0.7285 -0.8666
   96MOL    H8917379   2.379   4.044   2.180 -1.8859  0.5889 -0.6073
   96MOL    H9017380   2.290   3.897   2.185  0.5806 -0.6090  1.0882
   96MOL    H9117381   2.225   4.032   2.265 -1.3335 -0.8331 -0.1888
   96MOL    C9217382   2.447   4.080   2.434  0.9020 -0.0815 -0.1507
   96MOL    C9317383   2.570   4.065   2.524  0.0680 -0.3505  0.2403
   96MOL    C9417384   2.699   4.058   2.437 -0.4948 -0.9575  0.5623
   96MOL    H9517385   2.473   4.142   2.348  1.2252 -1.4847 -1.0683
   96MOL    H9617386   2.372   4.141   2.485  3.8567  1.0651  2.9853
   96MOL    H9717387   2.567   3.979   2.590  1.2502 -1.3573 -0.9810
   96MOL    H9817388   2.778   4.025   2.503  2.4221 -0.3460 -2.4856
   96MOL    H9917389   2.706   3.984   2.357  1.7904 -1.7448  1.4496
   96MOL   H10017390   2.724   4.149   2.383  0.6055 -1.2309  0.5959
   96MOL   C10117391   2.587   4.195   2.616  0.4460  0.0870  0.0341
   96MOL   C10217392   2.717   4.215   2.696 -0.4607  0.0108 -0.0956
   96MOL   C10317393   2.690   4.349   2.761 -0.5710 -0.3695  0.2691
   96MOL   H10417394   2.555   4.287   2.568  0.0837 -0.3006 -0.4804
   96MOL   H10517395   2.508   4.185   2.691  1.5929  0.4845  1.3030
   96MOL   H10617396   2.801   4.222   2.626  0.9398 -2.5747  1.2531
   96MOL   H10717397   2.758   4.374   2.843  0.9976 -2.2495 -0.4241
   96MOL   H10817398   2.711   4.427   2.688 -1.9257 -1.1309 -0.9560
   96MOL   H10917399   2.588   4.350   2.801 -0.1389 -1.4996  1.4390
   96MOL   C11017400   2.751   4.104   2.797 -0.3245 -0.0610 -0.1710
   96MOL   C11117401   2.900   4.091   2.846 -0.6110  0.6113 -0.3582
   96MOL   C11217402   2.951   4.201   2.936 -0.2044  0.3060  0.0074
   96MOL   H11317403   2.689   4.131   2.883  0.9468 -1.7997  1.3286
   96MOL   H11417404   2.710   4.008   2.766 -0.0545 -0.1842 -0.1416
   96MOL   H11517405   2.959   4.089   2.755 -1.5267  1.1978 -0.9688
   96MOL   H11617406   2.874   4.213   3.013  0.9766 -1.7687  1.5409
   96MOL   H11717407   3.053   4.196   2.974  0.2742  1.1863 -1.1178
   96MOL   H11817408   2.956   4.291   2.874  0.9711 -0.1645 -0.5968
   96MOL   C11917409   2.906   3.947   2.919 -0.0945 -0.3340  0.3758
   96MOL   C12017410   2.904   3.823   2.824  0.6678  0.6889 -0.1401
   96MOL   C12117411   3.028   3.815   2.735 -0.0275  0.2116 -0.5620
   96MOL   H12217412   2.996   3.942   2.980  0.1287 -1.9732 -0.0602
   96MOL   H12317413   2.823   3.924   2.985 -1.3395 -1.1476 -1.4370
   96MOL   H12417414   2.812   3.825   2.766  0.3311 -0.6553  0.3378
   96MOL   H12517415   3.029   3.888   2.655  2.4852 -0.5426 -1.2558
   96MOL   H12617416   3.117   3.818   2.797 -1.3378  0.3153  1.3528
   96MOL   H12717417   3.030   3.721   2.679 -1.6502 -0.3267  0.2333
   96MOL   C12817418   2.891   3.700   2.911 -0.2198  0.1594  0.2560
   96MOL   C12917419   2.816   3.580   2.847  0.1843  0.1835 -0.0846
   96MOL   C13017420   2.910   3.493   2.763  0.0937  0.5464 -0.1922
   96MOL   H13117421   2.984   3.675   2.961 -0.9710 -0.8115  1.1825
   96MOL   H13217422   2.825   3.719   2.995 -1.3686 -1.2990 -0.2865
   96MOL   H13317423   2.737   3.617   2.783  0.0302 -0.4021 -0.2244
   96MOL   H13417424   2.860   3.408   2.715 -0.2483 -0.8643  2.5992
   96MOL   H13517425   2.941   3.532   2.665  1.3212 -1.1143 -0.4889
   96MOL   H13617426   2.999   3.466   2.819 -0.7386  0.8745  1.3115
   96MOL   C13717427   2.733   3.502   2.951 -0.5177 -0.7093  0.2519
   96MOL   C13817428   2.646   3.379   2.910  0.2919  0.0677 -0.3044
   96MOL   C13917429   2.594   3.311   3.033 -0.1954 -0.7084 -0.1157
   96MOL   H14017430   2.808   3.467   3.022  0.0320  1.0533  0.5869
   96MOL   H14117431   2.673   3.575   3.006 -0.7945 -1.8303  1.4482
   96MOL   H14217432   2.711   3.310   2.857  0.4444 -0.2167  0.2566
   96MOL   H14317433   2.658   3.238   3.082 -0.7224 -0.0317  1.6480
   96MOL   H14417434   2.557   3.381   3.109  0.1234 -0.1100 -0.5153
   96MOL   H14517435   2.508   3.245   3.018 -0.2173 -0.7025 -0.0183
   96MOL   C14617436   2.525   3.421   2.823  0.2298  0.6167 -0.1276
   96MOL   C14717437   2.467   3.305   2.739  0.0008  0.0249 -0.0794
   96MOL   C14817438   2.319   3.282   2.771  0.8881 -0.4789 -0.1060
   96MOL   H14917439   2.453   3.474   2.885  0.3113  1.9503 -1.1455
   96MOL   H15017440   2.566   3.502   2.763  1.5636  1.4252  1.8187
   96MOL   H15117441   2.524   3.214   2.760  1.6703  0.5166 -2.2598
   96MOL   H15217442   2.261   3.362   2.725 -0.2049 -0.5874  1.0481
   96MOL   H15317443   2.272   3.193   2.729 -0.3574  0.0515  0.1379
   96MOL   H15417444   2.306   3.273   2.879  0.1789 -0.5369 -0.1917
   96MOL   C15517445   2.478   3.331   2.591 -0.4879 -0.6546  1.0816
   96MOL   C15617446   2.622   3.337   2.538 -1.0413  0.3020 -0.7873
   96MOL   C15717447   2.681   3.192   2.546  0.3010 -0.8683  0.1649
   96MOL   H15817448   2.412   3.258   2.543 -2.0687 -0.0425  2.2965
   96MOL   H15917449   2.436   3.428   2.564  4.1119  1.0518 -0.4158
   96MOL   H16017450   2.681   3.395   2.609 -0.4883  1.1740 -1.9501
   96MOL   H16117451   2.615   3.124   2.494 -2.2558  1.5314  0.1268
   96MOL   H16217452   2.786   3.187   2.519  0.4966  0.8849  0.5237
   96MOL   H16317453   2.701   3.164   2.649 -1.0458 -3.1404 -0.1677
   96MOL   C16417454   2.639   3.383   2.384 -0.1488  0.9149  0.5420
   96MOL   C16517455   2.639   3.544   2.364 -0.1394  0.5295  0.9805
   96MOL   C16617456   2.729   3.608   2.466 -0.4137 -0.0952  0.4684
   96MOL   H16717457   2.725   3.346   2.328  0.6785  1.7815  1.2351
   96MOL   H16817458   2.553   3.340   2.333 -1.0345  0.7589  2.1484
   96MOL   H16917459   2.538   3.583   2.379 -1.0283 -0.2032 -2.5979
   96MOL   H17017460   2.743   3.713   2.440  1.3883  0.1863  2.4628
   96MOL   H17117461   2.691   3.596   2.567 -0.4723 -2.8458  0.1567
   96MOL   H17217462   2.832   3.572   2.465 -0.0990  0.6574  3.3691
   96MOL   C17317463   2.674   3.594   2.218 -0.1354  0.2557  0.4253
   96MOL   C17417464   2.584   3.550   2.105  0.1323  0.0326 -0.1992
   96MOL   C17517465   2.436   3.571   2.126 -0.2058 -0.1292 -0.9562
   96MOL   H17617466   2.679   3.703   2.218  1.6006  0.2281  3.2307
   96MOL   H17717467   2.772   3.561   2.184 -0.2305 -0.6348  0.9999
   96MOL   H17817468   2.605   3.447   2.074  1.8088  0.1378  0.5455
   96MOL   H17917469   2.410   3.677   2.126  0.2674 -0.0056 -1.7369
   96MOL   H18017470   2.387   3.522   2.041  0.7731  2.4160 -3.0551
   96MOL   H18117471   2.389   3.521   2.211  0.9962 -1.1388 -0.8777
   96MOL   H18217472   2.616   3.617   2.026  2.5537  0.7796  1.3850
   97MOL     C117473   6.923   6.921   3.813 -0.3558 -0.5495 -0.3204
   97MOL     C217474   6.926   6.805   3.714 -0.4031  0.0380 -0.6513
   97MOL     C317475   7.003   6.852   3.586 -0.6444 -0.1827  0.0371
   97MOL     H417476   7.012   6.962   3.860  1.0358 -2.2407 -1.4323
   97MOL     H517477   6.848   6.893   3.887 -0.4546  2.9279  0.9946
   97MOL     H617478   6.824   6.780   3.685 -1.1150 -0.9292  2.5143
   97MOL     H717479   6.952   6.928   3.528  1.1005  0.6804 -0.3850
   97MOL     H817480   7.095   6.902   3.617 -2.0228  3.0624 -0.8798
   97MOL     H917481   7.021   6.759   3.532 -0.6685  0.2693 -0.7584
   97MOL    H1017482   6.879   7.006   3.761 -2.0647 -0.9470  0.4279
   97MOL    C1117483   6.994   6.674   3.777 -0.3583 -0.5005  0.0320
   97MOL    C1217484   6.908   6.595   3.877  0.0082  0.2016  0.2577
   97MOL    C1317485   6.787   6.520   3.820 -0.1040 -0.2721  0.6592
   97MOL    H1417486   7.016   6.613   3.690 -1.4041 -1.7405  0.6247
   97MOL    H1517487   7.090   6.696   3.822 -0.5897 -0.9417  0.7468
   97MOL    H1617488   6.862   6.657   3.954  1.6741  3.1817 -1.0475
   97MOL    H1717489   6.816   6.459   3.735  0.3218  0.6000  0.1755
   97MOL    H1817490   6.722   6.467   3.891 -1.1268  1.7769  1.2910
   97MOL    H1917491   6.719   6.594   3.779 -0.5351 -0.9808  0.0739
   97MOL    C2017492   6.997   6.502   3.961  0.1731 -0.6779  0.0117
   97MOL    C2117493   7.063   6.382   3.881 -0.0850  0.8129  0.4717
   97MOL    C2217494   7.210   6.410   3.834 -0.0151  0.2610  1.2389
   97MOL    H2317495   7.077   6.557   4.011  0.6291 -0.6910 -0.7006
   97MOL    H2417496   6.926   6.473   4.038 -1.2951  3.0483  0.1540
   97MOL    H2517497   6.997   6.350   3.801 -0.5708 -0.7612  1.4683
   97MOL    H2617498   7.278   6.420   3.919 -0.4421 -0.9871  1.7420
   97MOL    H2717499   7.244   6.340   3.757 -0.3434 -0.4904  1.7672
   97MOL    H2817500   7.208   6.502   3.775  1.6851 -0.6824 -0.3382
   97MOL    C2917501   7.068   6.249   3.961 -0.5554  0.3576  0.0246
   97MOL    C3017502   6.931   6.207   4.027 -0.1919  0.3851  0.5884
   97MOL    C3117503   6.828   6.166   3.917 -0.5032 -0.3925  0.1516
   97MOL    H3217504   7.078   6.167   3.890  1.4276 -0.4292  1.1758
   97MOL    H3317505   7.153   6.250   4.029 -1.0881  0.1100  0.7054
   97MOL    H3417506   6.879   6.280   4.090 -1.1556 -2.3214  3.0259
   97MOL    H3517507   6.729   6.142   3.954 -0.4261  1.2252  1.4593
   97MOL    H3617508   6.811   6.244   3.843 -0.6890 -0.7351 -0.1668
   97MOL    H3717509   6.846   6.071   3.866 -2.9027 -1.1426  0.6231
   97MOL    C3817510   6.966   6.081   4.116  0.2498 -0.0849 -0.7350
   97MOL    C3917511   7.017   6.130   4.252  1.1389  0.5559  0.6131
   97MOL    C4017512   6.913   6.170   4.356  0.1198  0.0468 -0.3000
   97MOL    H4117513   6.872   6.038   4.150  1.2857 -1.6866  0.1744
   97MOL    H4217514   7.023   6.002   4.068  1.8312  0.8877 -0.5118
   97MOL    H4317515   7.085   6.214   4.238 -0.3250  1.5609 -0.5361
   97MOL    H4417516   6.881   6.081   4.410 -0.9653  0.4875 -0.1993
   97MOL    H4517517   6.966   6.227   4.433  1.0920 -2.5622  0.9973
   97MOL    H4617518   6.819   6.216   4.325  1.1165  2.8598  0.6380
   97MOL    C4717519   7.103   6.017   4.312 -0.9315  0.0820 -0.2133
   97MOL    C4817520   7.236   6.013   4.232 -0.1636  0.0810 -0.3105
   97MOL    C4917521   7.333   6.120   4.286 -0.3220  0.2862 -0.5990
   97MOL    H5017522   7.132   6.024   4.417 -2.7099  0.7856  0.2507
   97MOL    H5117523   7.054   5.919   4.314 -0.0869 -0.3909 -1.9792
   97MOL    H5217524   7.227   6.029   4.125 -1.2042  0.5824 -0.1564
   97MOL    H5317525   7.287   6.219   4.279  0.9489  0.8745 -0.7402
   97MOL    H5417526   7.353   6.092   4.389  1.4803  0.6872 -0.8140
   97MOL    H5517527   7.418   6.128   4.218 -1.3658  2.3150 -1.7316
   97MOL    C5617528   7.308   5.879   4.256 -0.0990 -0.6965 -0.1972
   97MOL    C5717529   7.260   5.761   4.169  0.2050 -0.1902 -0.3548
   97MOL    C5817530   7.280   5.781   4.019  0.8929  0.7802  0.2764
   97MOL    H5917531   7.410   5.902   4.226  0.1739 -2.6727 -0.8561
   97MOL    H6017532   7.314   5.855   4.362  1.7200  2.7441  0.5320
   97MOL    H6117533   7.152   5.758   4.183  0.5758 -1.2272  2.5247
   97MOL    H6217534   7.237   5.876   3.987 -0.1903 -0.2004 -1.2466
   97MOL    H6317535   7.387   5.770   4.001  0.6206  0.7111 -1.3791
   97MOL    H6417536   7.234   5.701   3.962 -0.1793 -0.0242  2.2102
   97MOL    C6517537   7.321   5.627   4.212 -0.0475 -0.4689 -0.6812
   97MOL    C6617538   7.263   5.497   4.142 -0.4046 -0.0226  0.2754
   97MOL    C6717539   7.374   5.402   4.100  0.8792  0.1301  0.0041
   97MOL    H6817540   7.429   5.626   4.200  0.1456 -0.8139  1.0006
   97MOL    H6917541   7.314   5.613   4.320  1.5885 -0.5277 -0.5815
   97MOL    H7017542   7.215   5.523   4.048 -0.5878 -1.9233 -0.1908
   97MOL    H7117543   7.423   5.356   4.186  1.3878 -0.0734 -0.3948
   97MOL    H7217544   7.334   5.321   4.040  0.9084 -0.5767  0.9212
   97MOL    H7317545   7.457   5.442   4.042  0.4025 -1.1149 -1.5668
   97MOL    C7417546   7.147   5.433   4.235  0.0523 -0.7751  0.0006
   97MOL    C7517547   7.053   5.350   4.156  0.4917  0.7769  0.2057
   97MOL    C7617548   6.995   5.239   4.249  0.0015  0.6369 -0.3463
   97MOL    H7717549   7.197   5.370   4.308 -1.7409 -1.9404  0.2483
   97MOL    H7817550   7.085   5.509   4.283 -1.8889 -1.4208 -1.4043
   97MOL    H7917551   7.108   5.300   4.077  2.5015  1.6914  1.0058
   97MOL    H8017552   7.068   5.176   4.300 -0.2263  0.7885  0.1737
   97MOL    H8117553   6.938   5.296   4.323  0.6206  0.9603 -0.1175
   97MOL    H8217554   6.931   5.175   4.188 -0.0349  1.3971 -1.1206
   97MOL    C8317555   6.941   5.439   4.087 -0.3324  0.2453 -0.4275
   97MOL    C8417556   6.825   5.364   4.007 -0.1866 -0.0133 -0.4990
   97MOL    C8517557   6.732   5.470   3.950  0.6138  0.2949 -0.1188
   97MOL    H8617558   6.894   5.491   4.171 -1.6127 -0.3641 -0.7486
   97MOL    H8717559   6.990   5.514   4.025 -2.1942  1.3019 -0.6486
   97MOL    H8817560   6.780   5.303   4.085 -2.3187 -0.4653 -2.0556
   97MOL    H8917561   6.715   5.542   4.029  1.1906  0.0521  0.2336
   97MOL    H9017562   6.781   5.511   3.861  1.9322 -3.2284 -1.1094
   97MOL    H9117563   6.632   5.441   3.918 -0.0275  0.5430  1.6295
   97MOL    C9217564   6.880   5.273   3.902  0.0317  0.3466  0.0820
   97MOL    C9317565   6.775   5.178   3.850 -0.0647 -0.5441 -0.2085
   97MOL    C9417566   6.703   5.220   3.725 -0.6059 -0.0637  0.2347
   97MOL    H9517567   6.924   5.329   3.819 -2.0520  1.0151 -0.6197
   97MOL    H9617568   6.973   5.222   3.926 -0.8383 -1.6813 -0.8223
   97MOL    H9717569   6.693   5.156   3.919 -1.3185 -1.2946 -1.8924
   97MOL    H9817570   6.759   5.190   3.636 -0.2230 -0.9230  0.7664
   97MOL    H9917571   6.607   5.168   3.726 -0.7203  0.1608  1.0430
   97MOL   H10017572   6.679   5.326   3.717 -0.3913  0.1003  1.7250
   97MOL   C10117573   6.836   5.036   3.831 -0.6274  0.3552  0.6470
   97MOL   C10217574   6.887   4.967   3.967 -0.5728 -0.3955 -0.0011
   97MOL   C10317575   6.785   4.976   4.084  0.3238 -0.6308 -0.4468
   97MOL   H10417576   6.762   4.974   3.779  1.5700  0.4676 -2.7928
   97MOL   H10517577   6.919   5.042   3.760 -1.2153  0.0160 -0.0834
   97MOL   H10617578   6.974   5.023   4.001  1.6080 -3.8305  0.3188
   97MOL   H10717579   6.833   4.967   4.181  0.3567  1.8497 -0.1910
   97MOL   H10817580   6.737   5.072   4.102 -1.7015 -1.9170  1.1958
   97MOL   H10917581   6.697   4.912   4.084  0.3356 -0.6487 -0.0306
   97MOL   C11017582   6.918   4.815   3.945 -0.1216  0.6118  0.2381
   97MOL   C11117583   7.037   4.791   3.841 -0.4065  0.7572  0.1152
   97MOL   C11217584   7.156   4.862   3.880 -0.8335  0.6584  0.5691
   97MOL   H11317585   6.949   4.772   4.040 -1.3998  0.1183  0.4387
   97MOL   H11417586   6.843   4.749   3.902  1.6381 -0.9263 -0.5503
   97MOL   H11517587   7.000   4.836   3.749  0.4322 -0.3338 -0.7768
   97MOL   H11617588   7.249   4.812   3.851 -1.6765  0.0803 -1.1544
   97MOL   H11717589   7.161   4.959   3.831 -3.0675  0.5116  0.0063
   97MOL   H11817590   7.159   4.876   3.988  0.2236  0.4613  0.5713
   97MOL   C11917591   7.067   4.647   3.799  0.3794  0.0214 -0.2026
   97MOL   C12017592   6.967   4.565   3.720  0.5414  0.1806 -0.2413
   97MOL   C12117593   6.912   4.640   3.595 -0.1463 -0.0801  0.2541
   97MOL   H12217594   7.156   4.645   3.736 -0.4806 -1.5609 -1.4149
   97MOL   H12317595   7.093   4.586   3.885 -0.3267 -0.6434 -0.4549
   97MOL   H12417596   6.880   4.557   3.786  0.9209  2.3114  0.5535
   97MOL   H12517597   6.886   4.744   3.610 -0.4349 -0.3758  1.8996
   97MOL   H12617598   6.996   4.649   3.525  0.0463  0.5512  0.5724
   97MOL   H12717599   6.836   4.587   3.538 -0.8588  1.9741 -0.7299
   97MOL   C12817600   7.020   4.430   3.665 -0.7449 -0.1126  0.1583
   97MOL   C12917601   7.049   4.310   3.754  0.4904 -0.4267  0.4836
   97MOL   C13017602   6.934   4.250   3.830 -0.2967 -0.2825  0.1497
   97MOL   H13117603   6.961   4.396   3.580 -1.3408 -1.2939  1.0239
   97MOL   H13217604   7.106   4.458   3.605 -0.9526  1.4706  0.5684
   97MOL   H13317605   7.126   4.339   3.827  0.9311  0.0616 -0.1665
   97MOL   H13417606   6.912   4.316   3.915 -2.3851  0.2316 -0.7538
   97MOL   H13517607   6.843   4.241   3.770 -0.4498 -0.7667  0.4563
   97MOL   H13617608   6.953   4.157   3.882  1.3572 -0.8704 -1.4926
   97MOL   C13717609   7.120   4.201   3.675  0.2013  0.7050  0.1330
   97MOL   C13817610   7.229   4.123   3.753  0.0109 -0.4264 -0.3592
   97MOL   C13917611   7.248   3.987   3.692  0.0785  0.1795  0.5265
   97MOL   H14017612   7.039   4.137   3.640 -1.1465  0.8362  2.8723
   97MOL   H14117613   7.163   4.236   3.581  0.4506 -2.6187 -1.0627
   97MOL   H14217614   7.188   4.108   3.853  0.7414 -0.8278 -0.1180
   97MOL   H14317615   7.339   3.940   3.728 -0.0070  0.5302  1.1917
   97MOL   H14417616   7.160   3.924   3.699  1.0005 -1.4868 -2.0289
   97MOL   H14517617   7.260   3.995   3.584 -2.7405  0.8303  0.2175
   97MOL   C14617618   7.369   4.186   3.781  0.1120 -0.5257  0.2584
   97MOL   C14717619   7.440   4.162   3.917  0.2863  0.1215  0.5916
   97MOL   C14817620   7.577   4.222   3.913 -0.7979 -0.3041  0.2348
   97MOL   H14917621   7.432   4.157   3.697  0.0379  1.2834 -0.4285
   97MOL   H15017622   7.354   4.294   3.776 -2.2112 -0.7339  1.6459
   97MOL   H15117623   7.463   4.056   3.919  1.7702  0.3860 -0.9241
   97MOL   H15217624   7.563   4.330   3.907 -0.1436 -0.2360 -0.1046
   97MOL   H15317625   7.626   4.209   4.009  1.4121  2.6767 -0.4127
   97MOL   H15417626   7.633   4.185   3.827 -1.1667 -2.0580  0.7233
   97MOL   C15517627   7.352   4.214   4.039  0.1422 -0.4942 -0.5694
   97MOL   C15617628   7.410   4.161   4.171  0.0942 -0.8353  0.4250
   97MOL   C15717629   7.455   4.281   4.255  0.0521  1.2023 -0.1197
   97MOL   H15817630   7.345   4.323   4.042  0.0130 -0.4451 -2.0517
   97MOL   H15917631   7.249   4.177   4.040 -0.5644  1.4297  1.4887
   97MOL   H16017632   7.501   4.105   4.151 -0.8748 -2.2956  0.0145
   97MOL   H16117633   7.514   4.236   4.335  0.9185  0.6294 -1.0765
   97MOL   H16217634   7.523   4.349   4.203  0.5255  1.2751  0.5831
   97MOL   H16317635   7.364   4.334   4.282  0.5281  0.5459  2.9940
   97MOL   C16417636   7.315   4.059   4.244 -0.3803 -1.0828  0.7467
   97MOL   C16517637   7.280   3.921   4.168  0.0446 -0.1652  0.3915
   97MOL   C16617638   7.409   3.834   4.157 -0.3923 -0.0807  0.2868
   97MOL   H16717639   7.374   4.032   4.332  0.4677  1.1959  0.9032
   97MOL   H16817640   7.224   4.113   4.270 -1.0325 -2.8876  2.3936
   97MOL   H16917641   7.251   3.945   4.065 -0.4106 -1.5789  0.1681
   97MOL   H17017642   7.479   3.873   4.084 -0.9634 -1.5562 -1.0796
   97MOL   H17117643   7.461   3.821   4.252  1.4041 -1.2605 -0.8294
   97MOL   H17217644   7.385   3.736   4.116 -0.4320  0.9459 -2.2343
   97MOL   C17317645   7.159   3.853   4.222 -1.1470 -0.0754  0.0186
   97MOL   C17417646   7.023   3.917   4.196  0.1245 -0.9857 -0.5728
   97MOL   C17517647   6.907   3.825   4.241  0.0185 -0.1827 -0.1851
   97MOL   H17617648   7.148   3.750   4.190  2.0465 -0.4399 -0.0287
   97MOL   H17717649   7.181   3.839   4.328  0.1297  0.9483 -0.1040
   97MOL   H17817650   7.016   3.924   4.088 -1.2511  0.4317 -0.4177
   97MOL   H17917651   6.812   3.851   4.194  0.7265 -1.0358 -2.1142
   97MOL   H18017652   6.927   3.718   4.235 -0.4253 -0.2709 -0.1133
   97MOL   H18117653   6.895   3.843   4.348  0.8242  0.2708 -0.1694
   97MOL   H18217654   7.015   4.020   4.231 -0.6258 -1.0219 -0.6335
   98MOL     C117655   3.168   7.365   4.801  0.6319  0.3299  0.3821
   98MOL     C217656   3.258   7.268   4.725  0.0802 -0.3544 -0.3993
   98MOL     C317657   3.347   7.195   4.832 -0.0356 -0.2110  0.0570
   98MOL     H417658   3.098   7.415   4.734 -0.8592 -2.0545  0.1173
   98MOL     H517659   3.223   7.445   4.851  1.6476 -1.3533  2.0125
   98MOL     H617660   3.316   7.335   4.661 -2.4553  2.2856 -0.0690
   98MOL     H717661   3.288   7.195   4.923  1.8167 -0.6450  1.2775
   98MOL     H817662   3.374   7.093   4.807  1.2224 -0.1863  1.2710
   98MOL     H917663   3.435   7.259   4.837  1.3374 -2.0071 -0.7290
   98MOL    H1017664   3.113   7.314   4.880 -1.2040 -1.8046 -2.1880
   98MOL    C1117665   3.172   7.180   4.633 -0.2360  0.2119  0.5807
   98MOL    C1217666   3.108   7.242   4.507 -1.0677  0.0872  0.5346
   98MOL    C1317667   3.206   7.229   4.390 -0.4188 -0.3539  0.2217
   98MOL    H1417668   3.235   7.097   4.601 -1.8820 -0.4820 -0.9287
   98MOL    H1517669   3.093   7.133   4.693  0.0185  0.8792  1.4576
   98MOL    H1617670   3.093   7.349   4.520  0.0447  0.2009  0.9882
   98MOL    H1717671   3.260   7.134   4.383 -1.5020 -1.2312  2.9194
   98MOL    H1817672   3.156   7.251   4.296 -0.3096  4.5050  1.1912
   98MOL    H1917673   3.295   7.291   4.401 -1.3664  1.1443 -0.3786
   98MOL    C2017674   2.973   7.172   4.479 -0.5103  0.5611 -0.7157
   98MOL    C2117675   2.852   7.208   4.565  0.2361  0.6721 -0.6768
   98MOL    C2217676   2.810   7.356   4.547  0.0597  0.5982  0.3104
   98MOL    H2317677   2.953   7.200   4.375 -1.6336  0.8075 -0.4356
   98MOL    H2417678   2.991   7.065   4.484 -2.8530  0.1943  0.8654
   98MOL    H2517679   2.868   7.186   4.670  1.5696 -2.3197 -1.4485
   98MOL    H2617680   2.783   7.384   4.445  1.9192 -0.0871 -0.3822
   98MOL    H2717681   2.737   7.384   4.623  2.2810  0.2295  2.6306
   98MOL    H2817682   2.896   7.417   4.574  1.0237  0.9007 -3.2444
   98MOL    C2917683   2.727   7.133   4.519  0.2654  0.4896 -0.1563
   98MOL    C3017684   2.722   6.980   4.541  0.2017 -0.4307  0.3985
   98MOL    C3117685   2.723   6.927   4.688  0.6485 -0.2205 -0.0253
   98MOL    H3217686   2.637   7.171   4.568  0.4573 -0.9967  1.4144
   98MOL    H3317687   2.732   7.160   4.414  1.5366 -0.5280 -0.3618
   98MOL    H3417688   2.814   6.935   4.504  0.4467  0.8438 -0.5569
   98MOL    H3517689   2.675   7.005   4.747  2.0561  1.0138 -0.4846
   98MOL    H3617690   2.665   6.836   4.706  0.8735 -0.1798  0.9127
   98MOL    H3717691   2.817   6.910   4.740 -0.7113 -0.3624  2.4577
   98MOL    C3817692   2.610   6.911   4.464  0.2375 -0.3263 -0.5948
   98MOL    C3917693   2.636   6.900   4.312 -0.1348  0.3497  0.2748
   98MOL    C4017694   2.763   6.830   4.266 -0.0936  0.1904  0.1180
   98MOL    H4117695   2.610   6.809   4.503  1.2554  0.2332  0.8884
   98MOL    H4217696   2.516   6.962   4.484 -0.3949 -1.6258 -0.1762
   98MOL    H4317697   2.649   7.002   4.276  2.5866 -0.8720 -2.4089
   98MOL    H4417698   2.775   6.734   4.316 -1.1415 -0.0108  0.0000
   98MOL    H4517699   2.754   6.808   4.160 -0.7694  2.8904 -0.4145
   98MOL    H4617700   2.854   6.887   4.286 -1.2752  2.0118  0.4314
   98MOL    C4717701   2.512   6.844   4.236 -0.4337 -0.3966  0.1154
   98MOL    C4817702   2.496   6.869   4.084  0.7694 -0.4453 -0.2546
   98MOL    C4917703   2.384   6.777   4.043  0.0370  0.0939 -0.1956
   98MOL    H5017704   2.513   6.736   4.251  1.6640 -0.6727 -1.7005
   98MOL    H5117705   2.423   6.875   4.290 -0.3725  1.7071 -0.9331
   98MOL    H5217706   2.584   6.839   4.027  1.0732 -1.6362  0.8197
   98MOL    H5317707   2.293   6.796   4.100  0.4175  1.2798  0.0291
   98MOL    H5417708   2.356   6.786   3.938  1.1643 -0.1020 -0.5225
   98MOL    H5517709   2.401   6.671   4.062  1.1923  0.5508  1.4634
   98MOL    C5617710   2.462   7.018   4.050  0.2286  0.1258  0.0883
   98MOL    C5717711   2.453   7.056   3.900 -0.8715  0.4864  0.1939
   98MOL    C5817712   2.405   7.204   3.867  0.1030 -0.8329 -0.4565
   98MOL    H5917713   2.370   7.036   4.104  0.9085 -0.2310  1.3743
   98MOL    H6017714   2.526   7.086   4.106  0.3525 -0.5274  0.7432
   98MOL    H6117715   2.380   6.989   3.856 -0.3477  1.8019 -2.8209
   98MOL    H6217716   2.297   7.220   3.867  0.1588 -0.2735 -3.1630
   98MOL    H6317717   2.455   7.269   3.939 -0.9847  0.4542 -0.8425
   98MOL    H6417718   2.432   7.232   3.765  1.4774  1.6910  0.5717
   98MOL    C6517719   2.590   7.040   3.828  0.4233  0.8940 -0.2362
   98MOL    C6617720   2.570   6.944   3.709  0.0835 -0.4179  0.6425
   98MOL    C6717721   2.493   7.017   3.595 -0.1059  0.4958 -0.3001
   98MOL    H6817722   2.628   7.130   3.779  0.2936  1.0845  0.0133
   98MOL    H6917723   2.665   6.999   3.895 -2.5723 -2.3903  1.2410
   98MOL    H7017724   2.502   6.865   3.740  1.1381 -0.9197  1.7064
   98MOL    H7117725   2.486   6.969   3.498  1.4866  1.9130 -1.1465
   98MOL    H7217726   2.394   7.041   3.634  0.3329 -0.5774  1.5363
   98MOL    H7317727   2.534   7.114   3.567 -1.7922  1.7293  1.3881
   98MOL    C7417728   2.702   6.898   3.644 -0.6102  0.3086  0.2688
   98MOL    C7517729   2.779   6.797   3.730  0.0790 -0.5356  0.3938
   98MOL    C7617730   2.697   6.674   3.754  0.0538 -0.3873 -0.6809
   98MOL    H7717731   2.679   6.841   3.554  0.7235 -2.0254  1.3455
   98MOL    H7817732   2.769   6.980   3.620 -1.1706  1.6297  3.0279
   98MOL    H7917733   2.793   6.853   3.822  0.3858 -1.3876  0.8731
   98MOL    H8017734   2.639   6.662   3.663  0.1091 -3.1934 -0.3961
   98MOL    H8117735   2.751   6.582   3.776 -0.1429 -0.2051  0.5955
   98MOL    H8217736   2.626   6.693   3.834  2.4766 -1.8771  1.9269
   98MOL    C8317737   2.910   6.765   3.656 -0.1134 -1.4208 -0.1928
   98MOL    C8417738   3.025   6.730   3.749 -0.6294  0.2793  0.0850
   98MOL    C8517739   2.991   6.647   3.874  0.1668  0.1559  0.3043
   98MOL    H8617740   2.898   6.680   3.588  0.5259 -1.0913 -0.7203
   98MOL    H8717741   2.946   6.854   3.604 -1.4133  0.2838  1.7343
   98MOL    H8817742   3.064   6.817   3.802 -0.5564 -0.6741  1.6328
   98MOL    H8917743   3.084   6.631   3.928 -0.6552  1.7906  2.2539
   98MOL    H9017744   2.930   6.706   3.943 -0.0690  2.3389 -1.6759
   98MOL    H9117745   2.964   6.543   3.859  0.5290  0.2884 -1.3447
   98MOL    C9217746   3.139   6.672   3.653  1.1384 -0.1701  0.6040
   98MOL    C9317747   3.273   6.643   3.711 -0.8579  0.0063 -0.5126
   98MOL    C9417748   3.360   6.592   3.600  0.1960 -0.2229 -0.5669
   98MOL    H9517749   3.111   6.578   3.606 -2.4822  1.5215 -0.7880
   98MOL    H9617750   3.145   6.742   3.570 -0.0579  0.2424  0.8492
   98MOL    H9717751   3.275   6.558   3.779 -0.7938 -1.4050 -2.2340
   98MOL    H9817752   3.366   6.662   3.516  0.4776 -1.4824 -1.6178
   98MOL    H9917753   3.460   6.573   3.639  0.6577 -0.3499 -1.7944
   98MOL   H10017754   3.334   6.495   3.559 -0.9300 -0.8014  1.4511
   98MOL   C10117755   3.342   6.780   3.769  0.2830 -0.4080 -0.0503
   98MOL   C10217756   3.335   6.820   3.921  0.3451  0.5917 -0.2051
   98MOL   C10317757   3.406   6.699   3.990 -0.3953  0.1898 -0.6165
   98MOL   H10417758   3.448   6.769   3.745  0.2346 -2.0880  0.4305
   98MOL   H10517759   3.319   6.866   3.706 -0.5871  0.3931  1.3481
   98MOL   H10617760   3.230   6.827   3.949  0.0538  0.4314 -1.2269
   98MOL   H10717761   3.504   6.678   3.948  0.5956  1.7819  0.8505
   98MOL   H10817762   3.406   6.710   4.099  2.2626  0.8159 -0.6434
   98MOL   H10917763   3.346   6.608   3.979  1.3825 -1.1581  0.4898
   98MOL   C11017764   3.421   6.947   3.950  0.7477  0.6239 -0.0831
   98MOL   C11117765   3.351   7.077   3.908 -0.1733 -0.9890 -0.1367
   98MOL   C11217766   3.231   7.099   3.999  0.5168 -0.1838 -0.1200
   98MOL   H11317767   3.441   6.957   4.057  1.1536 -0.3941 -0.0644
   98MOL   H11417768   3.523   6.940   3.914  0.4762 -2.1400 -0.4658
   98MOL   H11517769   3.319   7.071   3.803  1.0708  1.8844 -0.7306
   98MOL   H11617770   3.153   7.026   3.978 -1.2933  1.8636 -0.7143
   98MOL   H11717771   3.266   7.080   4.100 -2.3748 -1.8318  0.6125
   98MOL   H11817772   3.188   7.199   4.006  1.2320 -0.0876  3.5201
   98MOL   C11917773   3.445   7.196   3.926 -0.0942 -0.2859  0.5450
   98MOL   C12017774   3.401   7.331   3.856  0.2292 -0.0383  0.5039
   98MOL   C12117775   3.469   7.448   3.936 -0.1303  0.5289  0.5418
   98MOL   H12217776   3.462   7.212   4.033  1.7076 -3.9277  0.8788
   98MOL   H12317777   3.545   7.185   3.885  0.4789  0.9095  1.5848
   98MOL   H12417778   3.293   7.333   3.871 -0.2106 -0.1750 -2.4197
   98MOL   H12517779   3.410   7.475   4.023  0.0765 -1.4232  1.3046
   98MOL   H12617780   3.558   7.409   3.985  0.0516 -3.2536 -2.5641
   98MOL   H12717781   3.487   7.534   3.870  1.5137  0.6275  1.1113
   98MOL   C12817782   3.432   7.329   3.698 -0.0254  0.0151 -0.1590
   98MOL   C12917783   3.303   7.383   3.626 -0.4915 -0.1868 -0.6340
   98MOL   C13017784   3.295   7.540   3.622 -0.1744 -0.6779  0.2652
   98MOL   H13117785   3.522   7.383   3.671  0.2232 -0.4901 -0.3445
   98MOL   H13217786   3.452   7.227   3.666 -0.1829  0.1963 -0.8471
   98MOL   H13317787   3.210   7.349   3.672 -0.8201 -0.2033 -1.3019
   98MOL   H13417788   3.207   7.569   3.565 -0.8474 -1.5329  0.8405
   98MOL   H13517789   3.299   7.585   3.722  0.6087  1.5388 -0.7391
   98MOL   H13617790   3.383   7.588   3.579 -0.1158 -2.1479 -1.3257
   98MOL   C13717791   3.282   7.333   3.480  0.0192  0.0065 -0.0224
   98MOL   C13817792   3.263   7.176   3.449  0.7055 -0.1983 -0.3350
   98MOL   C13917793   3.133   7.122   3.509  0.7865 -0.1414  0.0363
   98MOL   H14017794   3.192   7.379   3.438 -0.3251  0.2323  0.9437
   98MOL   H14117795   3.365   7.368   3.420 -0.3158 -0.2546 -0.6469
   98MOL   H14217796   3.339   7.116   3.500 -0.1835 -1.6190 -0.6328
   98MOL   H14317797   3.141   7.017   3.537 -1.2187 -0.8072 -1.7668
   98MOL   H14417798   3.107   7.168   3.604 -1.1675  2.0980 -1.5232
   98MOL   H14517799   3.048   7.140   3.444 -0.9799 -1.4920  1.9236
   98MOL   C14617800   3.275   7.159   3.303  0.5771  0.5194 -0.1369
   98MOL   C14717801   3.334   7.032   3.242 -0.5247  0.0596  0.2087
   98MOL   C14817802   3.274   6.901   3.300  0.3087 -0.2201  0.0414
   98MOL   H14917803   3.176   7.180   3.264  2.1263  2.1846 -3.3320
   98MOL   H15017804   3.344   7.232   3.262  0.6869  0.3853 -0.1933
   98MOL   H15117805   3.437   7.031   3.278  0.0742  2.6875 -1.3011
   98MOL   H15217806   3.297   6.896   3.407 -0.7667 -0.0508  0.2861
   98MOL   H15317807   3.166   6.911   3.289  0.0340 -1.1765  1.6581
   98MOL   H15417808   3.313   6.813   3.248  1.7883  0.6875 -0.3984
   98MOL   C15517809   3.327   7.030   3.085 -0.5156 -0.1716 -0.1371
   98MOL   C15617810   3.384   7.162   3.023 -0.0972  0.4192  0.0004
   98MOL   C15717811   3.535   7.190   3.065 -0.3195 -0.3113 -0.8727
   98MOL   H15817812   3.379   6.939   3.053  2.3449  2.3152 -2.8836
   98MOL   H15917813   3.222   7.023   3.058 -0.0382 -0.8120 -1.8652
   98MOL   H16017814   3.325   7.252   3.044 -2.3029 -0.5726 -1.7429
   98MOL   H16117815   3.554   7.221   3.167 -0.8807  0.3886 -0.9761
   98MOL   H16217816   3.616   7.127   3.028 -0.2684  0.1964 -1.6523
   98MOL   H16317817   3.555   7.288   3.023  0.7864 -0.2398 -0.1955
   98MOL   C16417818   3.378   7.157   2.868  0.6974 -0.1290 -0.2893
   98MOL   C16517819   3.249   7.149   2.789 -0.3977  0.5565  0.6156
   98MOL   C16617820   3.158   7.263   2.830 -0.0305 -0.4921  0.1530
   98MOL   H16717821   3.440   7.241   2.836  0.2372 -1.1413 -4.1638
   98MOL   H16817822   3.430   7.068   2.831 -0.3453 -0.5520 -0.7442
   98MOL   H16917823   3.199   7.061   2.830  1.6452 -1.6038 -1.3161
   98MOL   H17017824   3.082   7.262   2.752  1.3848  1.4417 -1.2970
   98MOL   H17117825   3.105   7.258   2.924 -0.8399 -1.2036 -0.3351
   98MOL   H17217826   3.226   7.347   2.819 -1.5263  0.9008  1.4156
   98MOL   C17317827   3.257   7.123   2.640  0.1888  0.4286  0.1666
   98MOL   C17417828   3.363   7.010   2.596 -0.6916 -0.7860 -0.4746
   98MOL   C17517829   3.504   7.063   2.579  0.0532  0.1752 -0.2756
   98MOL   H17617830   3.157   7.095   2.606  0.9610 -0.1310 -1.7527
   98MOL   H17717831   3.283   7.213   2.584 -0.4705  0.3911 -0.2123
   98MOL   H17817832   3.334   6.959   2.504 -0.6319 -0.5687 -0.6148
   98MOL   H17917833   3.582   6.987   2.591  0.4592  0.6734  0.2604
   98MOL   H18017834   3.515   7.113   2.483 -0.2703 -0.8005 -0.8331
   98MOL   H18117835   3.533   7.135   2.655 -1.7159 -1.8958  2.4673
   98MOL   H18217836   3.360   6.930   2.669 -0.7075 -0.5399 -0.2077
   99MOL     C117837   1.079   3.673   7.253  0.3212  0.0763  0.1355
   99MOL     C217838   0.941   3.637   7.318 -0.1402 -0.1905 -0.3636
   99MOL     C317839   0.942   3.490   7.378  0.5218 -0.1342 -0.1816
   99MOL     H417840   1.086   3.775   7.216 -0.3677  0.6689  1.5893
   99MOL     H517841   1.084   3.597   7.175  0.8395 -2.8161  2.8490
   99MOL     H617842   0.870   3.642   7.235 -1.3012 -0.3194  0.6089
   99MOL     H717843   0.985   3.421   7.305 -1.1171  0.9912 -2.2572
   99MOL     H817844   1.005   3.472   7.466 -0.2453 -0.2800  0.3359
   99MOL     H917845   0.844   3.460   7.415  0.2737  0.6242 -0.2354
   99MOL    H1017846   1.164   3.651   7.316 -0.8663  1.0236  2.1307
   99MOL    C1117847   0.884   3.737   7.413 -0.1011 -0.0992  0.5199
   99MOL    C1217848   0.725   3.757   7.402  0.0196 -0.2212  0.0276
   99MOL    C1317849   0.642   3.622   7.430 -0.1792  0.1837  0.4126
   99MOL    H1417850   0.905   3.719   7.518  1.1819 -1.9998 -0.0316
   99MOL    H1517851   0.927   3.835   7.392  0.1273 -0.0579  1.1764
   99MOL    H1617852   0.709   3.790   7.299  1.7379  0.5302 -0.0111
   99MOL    H1717853   0.661   3.575   7.527 -0.6127 -0.0650  0.3786
   99MOL    H1817854   0.535   3.638   7.420 -0.2028  0.8848  1.6364
   99MOL    H1917855   0.659   3.542   7.358 -2.9176 -0.7946  0.8003
   99MOL    C2017856   0.684   3.876   7.494  0.0971 -0.2797  0.0013
   99MOL    C2117857   0.719   4.022   7.447  0.0517  1.0192 -0.3232
   99MOL    C2217858   0.614   4.088   7.358  1.0194 -0.0103  0.6360
   99MOL    H2317859   0.576   3.871   7.511 -0.0866  2.4085 -0.0199
   99MOL    H2417860   0.718   3.856   7.595  1.0967 -0.9866 -0.4752
   99MOL    H2517861   0.803   4.006   7.378 -1.0428 -1.1711 -1.1924
   99MOL    H2617862   0.515   4.097   7.403  0.9648  0.2523  0.4697
   99MOL    H2717863   0.643   4.190   7.330  0.3327  0.2755  0.9261
   99MOL    H2817864   0.607   4.031   7.266 -0.4504  1.4275 -0.1778
   99MOL    C2917865   0.761   4.103   7.569 -0.0733  0.4169  0.0533
   99MOL    C3017866   0.896   4.068   7.630  0.4606 -0.2662  0.1415
   99MOL    C3117867   1.012   4.131   7.551 -0.2697 -0.2715  0.4295
   99MOL    H3217868   0.770   4.208   7.539 -0.8770  0.1081 -1.3026
   99MOL    H3317869   0.678   4.096   7.639 -0.1988  0.9277 -0.0444
   99MOL    H3417870   0.910   3.960   7.617 -0.1789 -0.2821 -0.4503
   99MOL    H3517871   1.015   4.239   7.567  2.0956 -0.3360  0.5656
   99MOL    H3617872   1.103   4.086   7.591  0.9160  0.3202 -1.5075
   99MOL    H3717873   1.007   4.113   7.444 -0.0450  1.9155  0.0330
   99MOL    C3817874   0.912   4.107   0.087  0.0763 -0.3181  0.0808
   99MOL    C3917875   0.830   4.033   0.192 -0.2397 -0.4883  0.6988
   99MOL    C4017876   0.863   3.885   0.201  0.1027  0.3963 -0.8164
   99MOL    H4117877   1.015   4.099   0.123 -0.5612  0.4847  2.1344
   99MOL    H4217878   0.888   4.212   0.105 -1.4386 -0.5422 -0.5099
   99MOL    H4317879   0.727   4.022   0.155 -0.3894  1.0857  0.6213
   99MOL    H4417880   0.850   3.837   0.104 -0.4915  1.3098 -1.1961
   99MOL    H4517881   0.961   3.858   0.239  0.9353  1.9955 -1.7657
   99MOL    H4617882   0.793   3.822   0.256  0.3472 -1.0667 -2.1404
   99MOL    C4717883   0.830   4.096   0.334 -0.0920  0.1983 -0.5377
   99MOL    C4817884   0.746   4.224   0.353  0.1553  0.1654 -0.1181
   99MOL    C4917885   0.593   4.194   0.346 -0.0281 -0.3633 -0.3782
   99MOL    H5017886   0.782   4.019   0.393 -0.5540 -1.1780 -2.6685
   99MOL    H5117887   0.933   4.100   0.371 -0.6570  0.6762  1.0456
   99MOL    H5217888   0.762   4.279   0.261 -2.2144  0.7564 -0.2007
   99MOL    H5317889   0.578   4.157   0.245  2.0531  0.1894 -0.9114
   99MOL    H5417890   0.556   4.122   0.419 -1.1766 -0.4229 -1.0035
   99MOL    H5517891   0.531   4.283   0.358 -1.3317 -1.3858  0.7922
   99MOL    C5617892   0.794   4.313   0.472 -0.5539  0.0898  0.2404
   99MOL    C5717893   0.745   4.283   0.615  0.0852 -0.4060  0.4840
   99MOL    C5817894   0.810   4.156   0.675 -0.0917 -0.0976 -0.3627
   99MOL    H5917895   0.902   4.315   0.485 -0.5122  0.3127 -0.1568
   99MOL    H6017896   0.761   4.414   0.451  0.4351  0.1731 -0.9839
   99MOL    H6117897   0.639   4.262   0.603 -0.1116  0.0479  1.3728
   99MOL    H6217898   0.785   4.064   0.621 -1.3233  0.3551 -0.5808
   99MOL    H6317899   0.919   4.162   0.680 -0.0613  0.2999 -1.3946
   99MOL    H6417900   0.776   4.131   0.776  0.6547 -1.0291 -0.3353
   99MOL    C6517901   0.765   4.403   0.720  0.1008  0.4862  0.1119
   99MOL    C6617902   0.691   4.534   0.707  0.1006  0.3447 -0.1607
   99MOL    C6717903   0.543   4.520   0.745  0.1055 -0.4641  0.2699
   99MOL    H6817904   0.736   4.371   0.820  0.1038  3.4736  1.1209
   99MOL    H6917905   0.872   4.423   0.720  0.6468 -2.2087  1.1629
   99MOL    H7017906   0.694   4.574   0.606  2.1820 -0.3120 -0.3749
   99MOL    H7117907   0.531   4.480   0.845  2.0428 -1.3527  0.1803
   99MOL    H7217908   0.473   4.603   0.734  0.0398 -0.7519 -1.7521
   99MOL    H7317909   0.502   4.449   0.673  0.9710  0.3929 -1.1045
   99MOL    C7417910   0.771   4.638   0.792  0.5037  0.4103  0.3627
   99MOL    C7517911   0.696   4.768   0.825  0.6598 -0.2154  0.4049
   99MOL    C7617912   0.649   4.774   0.967  0.1282 -0.3308 -0.3198
   99MOL    H7717913   0.797   4.591   0.887  1.1479  0.2835  0.1275
   99MOL    H7817914   0.867   4.656   0.745  0.4558  2.8285  1.1351
   99MOL    H7917915   0.609   4.781   0.761  0.7097 -1.6168  0.0140
   99MOL    H8017916   0.593   4.866   0.983 -1.3551 -1.2449 -0.1387
   99MOL    H8117917   0.564   4.706   0.980  1.1394 -1.8711 -1.5199
   99MOL    H8217918   0.729   4.768   1.040 -0.7446  0.2044  0.6841
   99MOL    C8317919   0.791   4.894   0.798  0.6074 -0.0094 -0.5830
   99MOL    C8417920   0.742   5.039   0.819 -0.4064  0.4377  0.4084
   99MOL    C8517921   0.859   5.141   0.840 -0.9128  0.4530  0.1064
   99MOL    H8617922   0.881   4.874   0.857 -0.2115  1.0201  1.0607
   99MOL    H8717923   0.821   4.882   0.694  1.8952 -1.9179 -0.0127
   99MOL    H8817924   0.694   5.043   0.917  1.2041 -0.2776  1.2618
   99MOL    H8917925   0.944   5.107   0.899 -0.0049  2.9283  0.2551
   99MOL    H9017926   0.907   5.158   0.744  1.7481 -1.5330  1.0184
   99MOL    H9117927   0.822   5.237   0.877  1.1333 -0.1410  3.9655
   99MOL    C9217928   0.661   5.086   0.693 -0.2520 -0.0318  0.1077
   99MOL    C9317929   0.558   5.210   0.730  0.1504 -0.3401  0.3350
   99MOL    C9417930   0.572   5.327   0.636 -0.5503 -0.2770  0.5419
   99MOL    H9517931   0.726   5.127   0.617 -0.4273  0.6359  0.3157
   99MOL    H9617932   0.601   5.005   0.650 -2.7860  1.3013  1.0103
   99MOL    H9717933   0.592   5.254   0.824 -1.4259  0.5225  0.5176
   99MOL    H9817934   0.504   5.408   0.661  2.4838  2.4061  0.4834
   99MOL    H9917935   0.667   5.380   0.645 -1.5488  1.8234 -0.9000
   99MOL   H10017936   0.554   5.310   0.530  1.6724  2.1176 -0.2669
   99MOL   C10117937   0.406   5.179   0.765 -1.0753 -0.2884  0.3860
   99MOL   C10217938   0.384   5.071   0.864 -0.1232  0.2073  0.4511
   99MOL   C10317939   0.419   5.107   1.004 -0.3784 -0.0970 -0.4279
   99MOL   H10417940   0.361   5.270   0.804 -0.1335  1.7053 -3.0354
   99MOL   H10517941   0.345   5.159   0.678 -1.2357 -1.9939  0.8648
   99MOL   H10617942   0.442   4.982   0.840  1.5866  1.1988  0.8959
   99MOL   H10717943   0.424   5.028   1.078  1.0047 -0.3035 -0.7322
   99MOL   H10817944   0.509   5.167   1.010 -1.3140  1.2997 -0.0946
   99MOL   H10917945   0.341   5.173   1.042 -0.5021  0.1916 -1.1612
   99MOL   C11017946   0.230   5.039   0.858 -0.8111 -0.1452 -0.6331
   99MOL   C11117947   0.173   4.924   0.957  1.3616 -0.5689  0.5616
   99MOL   C11217948   0.017   4.913   0.927  0.6782  0.4215 -0.0652
   99MOL   H11317949   0.186   5.137   0.874 -2.5577 -0.8842 -0.7839
   99MOL   H11417950   0.201   5.005   0.759  0.3252  0.5102 -1.1943
   99MOL   H11517951   0.188   4.955   1.060  3.2662 -1.7043  0.6485
   99MOL   H11617952   0.014   4.895   0.819  0.5382  1.9698 -0.3215
   99MOL   H11717953   7.647   4.857   0.991 -1.3613  1.3758 -1.3080
   99MOL   H11817954   7.672   5.013   0.927 -0.3635 -0.0131 -0.3320
   99MOL   C11917955   0.243   4.791   0.943 -1.0392 -0.1370 -0.5335
   99MOL   C12017956   0.196   4.683   1.052 -0.1913  0.2811 -0.1567
   99MOL   C12117957   0.270   4.556   1.029 -0.4163 -0.3523 -0.4647
   99MOL   H12217958   0.222   4.749   0.844  0.4854 -2.2682  0.0125
   99MOL   H12317959   0.352   4.793   0.941 -0.9728 -1.9792  0.2266
   99MOL   H12417960   0.093   4.654   1.032 -0.3519  0.6330  0.1464
   99MOL   H12517961   0.240   4.508   0.936 -1.8754 -1.3500  0.4922
   99MOL   H12617962   0.375   4.581   1.016 -0.4263  0.1716  0.4040
   99MOL   H12717963   0.255   4.486   1.111 -1.2346  0.8766  0.4483
   99MOL   C12817964   0.196   4.724   1.203  0.3179 -0.1394  0.3942
   99MOL   C12917965   0.323   4.707   1.290 -0.4137  0.2745 -0.3144
   99MOL   C13017966   0.428   4.820   1.258  0.7463  0.5076  0.0315
   99MOL   H13117967   0.147   4.818   1.228 -1.0732 -0.6782 -0.2793
   99MOL   H13217968   0.137   4.647   1.254 -0.3539  0.4944  0.5682
   99MOL   H13317969   0.372   4.613   1.265  1.8001  1.4706 -0.5829
   99MOL   H13417970   0.497   4.841   1.340 -0.1647  2.3854  0.3391
   99MOL   H13517971   0.482   4.800   1.165  2.0149 -1.4643  1.1619
   99MOL   H13617972   0.371   4.912   1.244  0.3811  0.1392 -0.9706
   99MOL   C13717973   0.273   4.702   1.446 -0.1565 -0.2370  0.1704
   99MOL   C13817974   0.372   4.657   1.555 -0.2265  0.0871  0.2569
   99MOL   C13917975   0.312   4.667   1.697 -0.2082 -0.1044  0.0609
   99MOL   H14017976   0.238   4.802   1.472 -0.8724 -0.7038  1.0062
   99MOL   H14117977   0.183   4.642   1.450 -0.4905  0.2409 -0.1088
   99MOL   H14217978   0.458   4.723   1.558 -0.6768  0.6896  0.0484
   99MOL   H14317979   0.261   4.762   1.713  2.0924  0.7001  3.0057
   99MOL   H14417980   0.228   4.600   1.712 -0.6943  0.7003  0.9984
   99MOL   H14517981   0.383   4.648   1.778  4.4105 -1.7498 -4.0669
   99MOL   C14617982   0.429   4.512   1.527  0.2145  0.4261  0.4327
   99MOL   C14717983   0.583   4.512   1.516  0.4093  0.5912 -0.4131
   99MOL   C14817984   0.649   4.525   1.657 -1.1265  0.0219  0.0835
   99MOL   H14917985   0.385   4.442   1.598 -0.3453  0.7098  0.3725
   99MOL   H15017986   0.386   4.468   1.437 -0.5749 -0.0895  1.0484
   99MOL   H15117987   0.613   4.590   1.447 -0.5683  0.2455 -1.2489
   99MOL   H15217988   0.583   4.475   1.729 -0.9842 -0.3379 -0.0347
   99MOL   H15317989   0.746   4.478   1.672 -2.0416 -1.2228  2.3789
   99MOL   H15417990   0.649   4.621   1.708 -2.8411  0.4362 -0.6447
   99MOL   C15517991   0.624   4.376   1.460 -1.0297 -0.2256 -0.0628
   99MOL   C15617992   0.599   4.359   1.306  0.1809  0.7330  0.0649
   99MOL   C15717993   0.665   4.477   1.227  0.4708  0.1145  0.4121
   99MOL   H15817994   0.729   4.361   1.485 -1.4032 -1.1392  1.0119
   99MOL   H15917995   0.571   4.295   1.509  0.0400 -1.8626 -1.5419
   99MOL   H16017996   0.493   4.338   1.289  0.3013 -0.5178  0.7777
   99MOL   H16117997   0.771   4.482   1.250  0.1833 -0.6864  1.9687
   99MOL   H16217998   0.669   4.460   1.120  1.8108  1.8554  0.1625
   99MOL   H16317999   0.616   4.574   1.239  0.8697  0.4309 -0.4651
   99MOL   C16418000   0.667   4.229   1.279 -0.7500 -0.3358  0.1389
   99MOL   C16518001   0.688   4.187   1.130 -0.1352  0.4766  0.2240
   99MOL   C16618002   0.757   4.048   1.113 -0.4520  0.1811  0.5853
   99MOL   H16718003   0.768   4.252   1.313  0.3477 -0.7911 -2.7041
   99MOL   H16818004   0.639   4.144   1.340 -0.4421 -1.1465 -0.8343
   99MOL   H16918005   0.765   4.257   1.096  0.4037  0.2743  1.0040
   99MOL   H17018006   0.707   3.970   1.170  0.6391  0.4112  1.8600
   99MOL   H17118007   0.752   4.012   1.010 -4.0044 -0.0005  0.7582
   99MOL   H17218008   0.859   4.043   1.150 -0.4224  1.0093  0.6115
   99MOL   C17318009   0.558   4.189   1.050  0.3779  0.7023  0.1891
   99MOL   C17418010   0.445   4.094   1.098  0.1233 -0.5480 -0.9114
   99MOL   C17518011   0.314   4.126   1.030  0.4507  0.0761 -0.2810
   99MOL   H17618012   0.519   4.291   1.044 -0.9379  0.2910  1.2673
   99MOL   H17718013   0.581   4.154   0.949  1.9173 -0.7042  1.0015
   99MOL   H17818014   0.447   4.104   1.207 -0.5854  0.1484 -0.9585
   99MOL   H17918015   0.238   4.055   1.063  0.7263  0.4373  1.1681
   99MOL   H18018016   0.282   4.223   1.067 -0.7865 -0.4588  0.0951
   99MOL   H18118017   0.323   4.149   0.924 -1.3372 -0.2633 -0.5253
   99MOL   H18218018   0.475   3.990   1.093 -0.4355 -0.7589 -0.0742
  100MOL     C118019   5.297   1.342   2.752  0.6824 -0.4627 -0.6341
  100MOL     C218020   5.315   1.457   2.847  0.1287  0.1887 -0.3384
  100MOL     C318021   5.446   1.423   2.917  0.0799 -0.4493 -0.2690
  100MOL     H418022   5.374   1.345   2.674  0.4904  2.9521 -0.7744
  100MOL     H518023   5.202   1.347   2.699  0.7366 -2.5223 -0.9644
  100MOL     H618024   5.238   1.447   2.924  3.0330 -1.0880  2.5460
  100MOL     H718025   5.441   1.322   2.958 -2.4066 -0.2239  0.0535
  100MOL     H818026   5.534   1.432   2.853  0.3306 -0.5386  0.0556
  100MOL     H918027   5.463   1.478   3.010 -0.3803  0.2591 -0.6000
  100MOL    H1018028   5.312   1.249   2.807  1.4778  0.7712  1.2672
  100MOL    C1118029   5.305   1.590   2.771  0.0451 -0.4267  0.0212
  100MOL    C1218030   5.315   1.718   2.858  0.2823 -0.0609  0.3886
  100MOL    C1318031   5.324   1.835   2.763  0.4091  0.2165 -0.2936
  100MOL    H1418032   5.388   1.597   2.701  0.3442  2.7340  0.5957
  100MOL    H1518033   5.209   1.595   2.719  1.2742  0.4373 -2.2439
  100MOL    H1618034   5.404   1.701   2.918  0.4175 -0.3978  0.0911
  100MOL    H1718035   5.230   1.853   2.710  0.4419  0.3516 -0.3059
  100MOL    H1818036   5.355   1.922   2.821  1.8362 -0.8913  0.6355
  100MOL    H1918037   5.407   1.823   2.693 -0.1494  0.1371 -0.9552
  100MOL    C2018038   5.187   1.714   2.944  0.1601  0.1931  0.3858
  100MOL    C2118039   5.168   1.837   3.034  0.5409 -0.2809 -0.0437
  100MOL    C2218040   5.023   1.843   3.069  0.6177  0.4420 -0.2829
  100MOL    H2318041   5.101   1.695   2.880 -0.8352 -1.9067  2.3049
  100MOL    H2418042   5.197   1.632   3.015  0.8314  0.8383  1.0403
  100MOL    H2518043   5.189   1.922   2.968  1.8675  0.0188  0.7425
  100MOL    H2618044   5.000   1.774   3.150  0.5276  1.3659  0.4795
  100MOL    H2718045   4.989   1.939   3.107 -2.6769 -1.5640  2.1294
  100MOL    H2818046   4.959   1.808   2.987  1.1879 -0.2269 -0.4515
  100MOL    C2918047   5.261   1.849   3.158  0.4471 -0.1061 -1.0164
  100MOL    C3018048   5.233   1.966   3.252 -0.1428 -0.4591  0.0436
  100MOL    C3118049   5.109   1.936   3.353 -0.4945 -0.0575 -0.4905
  100MOL    H3218050   5.253   1.753   3.209 -1.9355  0.3434 -0.5084
  100MOL    H3318051   5.364   1.838   3.122  1.6819 -1.5274  2.7014
  100MOL    H3418052   5.208   2.055   3.193  2.0204 -0.6424 -1.2007
  100MOL    H3518053   5.140   1.862   3.427  1.9332  0.5228 -0.8931
  100MOL    H3618054   5.098   2.027   3.412 -1.8792 -0.3129 -0.3354
  100MOL    H3718055   5.012   1.918   3.308 -0.2052 -1.4397 -0.5928
  100MOL    C3818056   5.358   2.005   3.325  0.1089  0.3222 -0.1012
  100MOL    C3918057   5.483   2.045   3.228 -0.1195 -0.2897  0.1292
  100MOL    C4018058   5.442   2.107   3.092  0.0655 -0.4287  0.3303
  100MOL    H4118059   5.332   2.086   3.393  0.0789 -0.4964  0.8840
  100MOL    H4218060   5.399   1.930   3.393 -0.9294 -0.3729 -0.2199
  100MOL    H4318061   5.535   1.954   3.200 -1.0801 -0.8245  0.0468
  100MOL    H4418062   5.420   2.018   3.033 -1.6141 -1.8293  2.9974
  100MOL    H4518063   5.355   2.171   3.098  0.7569  0.3790  1.9566
  100MOL    H4618064   5.520   2.155   3.032  1.0941 -2.8707 -0.3650
  100MOL    C4718065   5.578   2.140   3.310  0.0536 -0.4819 -0.1265
  100MOL    C4818066   5.655   2.079   3.428  0.3538 -0.2948  0.2088
  100MOL    C4918067   5.748   1.965   3.380 -0.1273  0.0199  0.7125
  100MOL    H5018068   5.659   2.155   3.238  1.0353  0.7376  1.2096
  100MOL    H5118069   5.533   2.237   3.331 -1.1178 -0.7828 -1.1926
  100MOL    H5218070   5.584   2.038   3.500  0.3089 -0.7686 -0.1005
  100MOL    H5318071   5.799   1.911   3.460  2.6202  0.0927 -0.9252
  100MOL    H5418072   5.702   1.886   3.320 -0.7194  0.1758  0.9619
  100MOL    H5518073   5.834   2.005   3.327  1.6074 -2.1262  1.7989
  100MOL    C5618074   5.726   2.199   3.497 -0.0364 -0.3197 -0.0541
  100MOL    C5718075   5.833   2.155   3.608  0.5269 -0.3110  0.1504
  100MOL    C5818076   5.907   2.279   3.652  0.7792  0.0746  0.2981
  100MOL    H5918077   5.779   2.262   3.426  2.4172 -1.0429  1.1105
  100MOL    H6018078   5.649   2.271   3.525  2.4487  1.9743  1.1290
  100MOL    H6118079   5.915   2.101   3.562  0.3798  0.5612 -1.1682
  100MOL    H6218080   5.938   2.324   3.558 -1.9923 -0.1414 -0.7714
  100MOL    H6318081   5.846   2.349   3.710  1.5073  0.0376  1.1191
  100MOL    H6418082   5.995   2.263   3.714 -0.5801 -0.9650  2.0277
  100MOL    C6518083   5.781   2.083   3.722  0.5467  0.5001  0.2561
  100MOL    C6618084   5.885   2.027   3.823 -0.0491  0.2084  0.7047
  100MOL    C6718085   5.826   1.999   3.966  0.2687  0.5270 -0.8731
  100MOL    H6818086   5.708   2.150   3.769 -1.4147 -1.2338 -0.2149
  100MOL    H6918087   5.716   2.002   3.688  1.7946 -0.1266 -0.6464
  100MOL    H7018088   5.952   2.111   3.844 -0.7938  0.4744  2.0515
  100MOL    H7118089   5.797   2.094   4.011 -1.0550 -0.0230 -0.5456
  100MOL    H7218090   5.742   1.930   3.960 -0.7210  1.7721 -1.4542
  100MOL    H7318091   5.889   1.941   4.035  1.4505  1.1803 -1.3768
  100MOL    C7418092   5.965   1.897   3.777  0.0401  0.3838 -0.7364
  100MOL    C7518093   6.095   1.869   3.860  0.3197  0.6489  0.7968
  100MOL    C7618094   6.127   1.718   3.861  0.1097 -0.0179 -0.1174
  100MOL    H7718095   5.892   1.817   3.772  0.6339 -0.2151 -0.0914
  100MOL    H7818096   5.995   1.916   3.674  0.1132 -0.0649 -0.8002
  100MOL    H7918097   6.067   1.896   3.962  1.0053  1.1772  0.8575
  100MOL    H8018098   6.031   1.678   3.893 -0.5726 -0.1640 -2.2959
  100MOL    H8118099   6.154   1.681   3.762  1.2525 -1.8348  0.8447
  100MOL    H8218100   6.204   1.693   3.935  0.1238 -1.5537 -0.6327
  100MOL    C8318101   6.217   1.958   3.820  0.4437  0.4179 -0.2070
  100MOL    C8418102   6.353   1.932   3.880 -0.0337  0.3060 -0.5175
  100MOL    C8518103   6.436   1.846   3.789  0.2159 -0.0380  0.6428
  100MOL    H8618104   6.229   1.952   3.712 -3.1863  1.6632 -0.7724
  100MOL    H8718105   6.187   2.063   3.824 -0.1983  0.2938 -1.3146
  100MOL    H8818106   6.345   1.876   3.973 -0.4658 -1.3161 -1.5061
  100MOL    H8918107   6.373   1.770   3.743  1.0047  0.2843 -1.0238
  100MOL    H9018108   6.489   1.900   3.711  0.3996 -1.1197  0.0191
  100MOL    H9118109   6.521   1.805   3.843  0.3431 -1.3688 -0.5437
  100MOL    C9218110   6.429   2.063   3.907  0.2989 -0.9208 -0.1857
  100MOL    C9318111   6.378   2.168   4.009 -0.2605  0.4515 -0.2704
  100MOL    C9418112   6.358   2.101   4.147  0.3725 -0.1198  0.2047
  100MOL    H9518113   6.527   2.022   3.932  0.6440  0.0718  0.1085
  100MOL    H9618114   6.445   2.118   3.814 -0.6605  1.3700  0.9642
  100MOL    H9718115   6.286   2.213   3.973 -0.0560  0.6703 -0.5207
  100MOL    H9818116   6.277   2.028   4.139  0.9085 -0.5792 -1.1680
  100MOL    H9918117   6.450   2.043   4.155 -0.3619 -0.9068  3.5609
  100MOL   H10018118   6.335   2.167   4.231 -2.4120  1.0621 -1.4251
  100MOL   C10118119   6.493   2.273   4.032 -0.6952  0.2860  1.0025
  100MOL   C10218120   6.531   2.368   3.905 -0.6627  0.5928  0.0160
  100MOL   C10318121   6.413   2.438   3.842  0.5970  0.4460 -0.1006
  100MOL   H10418122   6.466   2.336   4.117 -0.9218  2.0350 -0.3233
  100MOL   H10518123   6.584   2.219   4.056 -1.1870 -0.4044  1.3190
  100MOL   H10618124   6.578   2.303   3.831  0.0881 -0.4602  1.3928
  100MOL   H10718125   6.454   2.496   3.759 -1.3557  0.8942 -0.7668
  100MOL   H10818126   6.333   2.373   3.806  0.1105  1.7320 -1.3481
  100MOL   H10918127   6.377   2.509   3.916  2.4207 -1.2758  2.5508
  100MOL   C11018128   6.634   2.474   3.946 -0.3209  0.0834 -0.8817
  100MOL   C11118129   6.777   2.421   3.959 -0.1605 -0.0692 -0.1230
  100MOL   C11218130   6.880   2.512   3.894 -1.5954  0.3603  0.1352
  100MOL   H11318131   6.636   2.560   3.879  1.1522  1.3301  0.7123
  100MOL   H11418132   6.606   2.534   4.033  0.3683 -2.7150  1.3344
  100MOL   H11518133   6.783   2.324   3.909  0.3650 -1.0128  1.7089
  100MOL   H11618134   6.884   2.500   3.786 -3.2627 -1.0151  0.2191
  100MOL   H11718135   6.856   2.616   3.916  0.8930  1.1588 -0.7077
  100MOL   H11818136   6.979   2.493   3.937 -0.7709  1.2636 -1.3225
  100MOL   C11918137   6.818   2.387   4.109  0.7015  0.0007  0.0397
  100MOL   C12018138   6.942   2.300   4.120  0.6276  0.6419  0.5432
  100MOL   C12118139   7.023   2.349   4.248  0.3933 -0.4223 -0.1297
  100MOL   H12218140   6.831   2.480   4.163  0.6588  0.0365 -0.0126
  100MOL   H12318141   6.741   2.337   4.167  0.0028  0.4611 -0.4906
  100MOL   H12418142   7.009   2.312   4.035 -0.3864 -1.9812 -0.6648
  100MOL   H12518143   7.121   2.303   4.251  0.3635 -0.6454 -2.2582
  100MOL   H12618144   7.045   2.456   4.245 -0.6575 -0.1304  1.7014
  100MOL   H12718145   6.975   2.330   4.344 -1.1737 -1.1517 -1.0374
  100MOL   C12818146   6.918   2.146   4.131 -0.2696  0.7030 -0.5425
  100MOL   C12918147   7.043   2.067   4.111 -0.1828 -0.4991 -0.1556
  100MOL   C13018148   7.083   1.998   4.243 -0.1298  1.2112  0.1936
  100MOL   H13118149   6.868   2.120   4.225 -1.5683 -3.2438 -2.2289
  100MOL   H13218150   6.841   2.122   4.057  1.1440  0.0754 -1.8257
  100MOL   H13318151   7.130   2.132   4.102  0.2937 -1.1451 -0.2872
  100MOL   H13418152   7.024   1.908   4.261 -0.3313  1.1451 -0.7705
  100MOL   H13518153   7.188   1.971   4.244 -0.3977  0.1784  0.7325
  100MOL   H13618154   7.074   2.062   4.330 -0.6149  0.9925  0.3049
  100MOL   C13718155   7.018   1.970   3.990  0.3761 -0.3842  0.0047
  100MOL   C13818156   7.140   1.886   3.957 -0.2549 -1.0797  0.4179
  100MOL   C13918157   7.114   1.747   3.888  0.5797  0.3709 -0.0050
  100MOL   H14018158   6.948   1.892   4.021  2.0215 -0.7593  2.8855
  100MOL   H14118159   6.974   2.031   3.911  1.4113  2.5961  1.6716
  100MOL   H14218160   7.196   1.856   4.045 -1.1856 -0.7668  1.1242
  100MOL   H14318161   7.038   1.750   3.810  0.3283 -2.2560  0.0862
  100MOL   H14418162   7.210   1.714   3.848  0.5456  0.0570  0.1722
  100MOL   H14518163   7.092   1.668   3.960  1.8210 -0.6217 -0.6918
  100MOL   C14618164   7.233   1.976   3.870 -0.4772  0.1673 -0.3308
  100MOL   C14718165   7.382   1.937   3.882 -0.2261  0.4218 -0.3221
  100MOL   C14818166   7.454   2.004   3.764 -0.7073  0.4591  0.7934
  100MOL   H14918167   7.197   1.956   3.769  0.5336 -1.4254 -0.3925
  100MOL   H15018168   7.228   2.084   3.886  1.3647 -0.1641  2.8177
  100MOL   H15118169   7.383   1.829   3.869  1.6332  0.3655  0.1626
  100MOL   H15218170   7.560   1.985   3.749 -0.7412 -0.0991  1.2543
  100MOL   H15318171   7.397   1.986   3.672 -2.2742  0.9010  1.6567
  100MOL   H15418172   7.439   2.112   3.772 -1.7627  0.3950 -0.0671
  100MOL   C15518173   7.438   1.983   4.023  1.3178 -0.5093  0.6443
  100MOL   C15618174   7.592   1.978   4.034  0.5124 -0.3922 -0.5227
  100MOL   C15718175   7.636   2.053   4.161 -0.2123 -0.4789  0.1340
  100MOL   H15818176   7.399   2.082   4.045  0.7838 -0.6637  0.4091
  100MOL   H15918177   7.394   1.919   4.100  0.8500 -1.4800 -0.4062
  100MOL   H16018178   7.634   2.031   3.949  0.3754  1.1837  0.3767
  100MOL   H16118179   7.577   2.144   4.156 -1.3199 -1.2614 -1.3900
  100MOL   H16218180   7.607   1.997   4.250  2.5743  0.1645  1.5048
  100MOL   H16318181   0.045   2.077   4.162 -0.0435 -1.2161  0.3019
  100MOL   C16418182   7.655   1.839   4.038 -0.2791 -0.1566  0.1375
  100MOL   C16518183   0.104   1.843   3.995 -0.0501  0.8136  0.3936
  100MOL   C16618184   0.167   1.720   4.063 -0.2591 -0.4159  0.0564
  100MOL   H16718185   7.641   1.802   4.140 -0.6927 -0.5214 -0.0525
  100MOL   H16818186   7.602   1.768   3.976  0.5002  0.5853 -1.4024
  100MOL   H16918187   0.158   1.931   4.030  2.0966  0.0445 -0.8657
  100MOL   H17018188   0.099   1.637   4.046  0.0307 -0.4264 -1.0856
  100MOL   H17118189   0.256   1.693   4.006 -1.7209  0.1675 -2.5881
  100MOL   H17218190   0.181   1.733   4.170 -0.7173 -0.5879  0.1387
  100MOL   C17318191   0.128   1.826   3.843  0.1339 -0.0195  0.0150
  100MOL   C17418192   0.260   1.880   3.781  0.1012 -0.5046  0.2478
  100MOL   C17518193   0.274   2.032   3.774 -0.3193 -0.4586 -0.1395
  100MOL   H17618194   0.128   1.719   3.824  1.9865 -0.5039  2.4828
  100MOL   H17718195   0.049   1.879   3.790 -0.3411 -0.0058  0.7266
  100MOL   H17818196   0.281   1.841   3.681  0.7491  0.7939 -0.1219
  100MOL   H17918197   0.256   2.075   3.872  2.2919 -2.3950  1.2395
  100MOL   H18018198   0.373   2.055   3.734 -0.0779 -2.5129 -0.7836
  100MOL   H18118199   0.192   2.067   3.711 -2.1543 -0.7106  2.0492
  100MOL   H18218200   0.346   1.857   3.844  1.4401  0.5093 -1.2017
  101MOL     C118201   3.815   1.027   6.591  0.1162 -0.1269  0.7787
  101MOL     C218202   3.927   1.119   6.626  0.1950  0.6162  0.7160
  101MOL     C318203   3.885   1.210   6.745 -0.5593  0.0685  0.1411
  101MOL     H418204   3.854   0.936   6.546 -0.3330 -0.1290  0.3885
  101MOL     H518205   3.741   1.071   6.524 -1.4552 -1.2684  1.7318
  101MOL     H618206   3.949   1.180   6.538  1.0565  0.8733  1.1023
  101MOL     H718207   3.790   1.264   6.744  1.4565  3.8042 -2.5647
  101MOL     H818208   3.883   1.151   6.837  0.4674 -1.2623 -0.6729
  101MOL     H918209   3.952   1.296   6.746 -1.3226  0.6705 -0.7543
  101MOL    H1018210   3.759   1.005   6.682 -0.2468 -0.6636  0.4286
  101MOL    C1118211   4.066   1.053   6.658 -0.7634  0.9647 -0.3157
  101MOL    C1218212   4.142   0.976   6.545  2.0143  0.2477  0.1911
  101MOL    C1318213   4.172   1.063   6.415  0.1349  0.1907 -0.2120
  101MOL    H1418214   4.129   1.135   6.692  0.6834 -0.3486  0.2802
  101MOL    H1518215   4.050   0.990   6.745 -1.8847  0.9340 -0.5423
  101MOL    H1618216   4.076   0.902   6.500 -0.5210  0.5067  3.3249
  101MOL    H1718217   4.248   1.139   6.434 -0.3484  0.7471 -0.4834
  101MOL    H1818218   4.207   0.997   6.336 -0.1559 -0.8803  0.5446
  101MOL    H1918219   4.088   1.114   6.368 -0.8392  2.6040  3.8599
  101MOL    C2018220   4.270   0.905   6.597  0.0634 -0.1500 -0.1681
  101MOL    C2118221   4.252   0.774   6.676 -0.0339 -0.0971  0.2328
  101MOL    C2218222   4.182   0.660   6.606 -0.1441  0.5114 -0.0346
  101MOL    H2318223   4.342   0.896   6.516 -2.4410  1.0259 -2.5947
  101MOL    H2418224   4.304   0.983   6.666 -0.0128  0.5814 -0.9500
  101MOL    H2518225   4.194   0.798   6.765  1.0843  0.5285  0.8068
  101MOL    H2618226   4.241   0.608   6.530 -1.0080  1.4181 -1.3380
  101MOL    H2718227   4.158   0.583   6.680  0.7557  0.2678  0.0151
  101MOL    H2818228   4.085   0.689   6.566  0.4648  1.1023 -1.0914
  101MOL    C2918229   4.385   0.716   6.724 -0.6594  0.1676 -0.4818
  101MOL    C3018230   4.377   0.664   6.883 -0.4274 -0.0633  0.1304
  101MOL    C3118231   4.492   0.571   6.912  0.2362  0.1387 -0.5992
  101MOL    H3218232   4.418   0.630   6.666  1.8036 -1.2147  2.8456
  101MOL    H3318233   4.467   0.785   6.705  0.3561 -0.8291  0.1938
  101MOL    H3418234   4.291   0.599   6.891 -1.1839  0.7994 -0.7427
  101MOL    H3518235   4.587   0.622   6.905  0.4722 -0.2185 -0.0026
  101MOL    H3618236   4.491   0.523   7.010  0.5940  2.0931  0.3806
  101MOL    H3718237   4.510   0.486   6.846 -0.5723 -2.0412  1.9080
  101MOL    C3818238   4.375   0.783   6.983  0.3230  0.0720 -0.0094
  101MOL    C3918239   4.340   0.741   7.128  0.1522  0.4402  0.7283
  101MOL    C4018240   4.402   0.842   7.226  0.2874  0.3207  0.1604
  101MOL    H4118241   4.473   0.831   6.985 -0.3726  1.5083  0.0052
  101MOL    H4218242   4.325   0.870   6.941 -2.3222 -1.8292 -0.8836
  101MOL    H4318243   4.384   0.645   7.155  0.1182 -0.6438 -2.7941
  101MOL    H4418244   4.505   0.812   7.245  0.5180  1.8833  1.4696
  101MOL    H4518245   4.418   0.941   7.182  1.3038  0.6820  1.3033
  101MOL    H4618246   4.348   0.850   7.321 -0.3826  0.8556 -0.2584
  101MOL    C4718247   4.186   0.737   7.154 -0.2854  0.7816  0.2141
  101MOL    C4818248   4.130   0.626   7.242 -0.0564  0.3320 -0.0806
  101MOL    C4918249   3.994   0.655   7.310 -0.4140 -0.0320 -0.3046
  101MOL    H5018250   4.167   0.834   7.200 -1.1577  0.9064 -0.4018
  101MOL    H5118251   4.131   0.737   7.060  1.2149  1.7811 -0.6891
  101MOL    H5218252   4.207   0.619   7.319 -0.5504 -1.6754  0.2458
  101MOL    H5318253   3.982   0.574   7.382 -1.2814  0.1452 -0.2508
  101MOL    H5418254   3.998   0.750   7.363  0.0967  0.7584 -1.7231
  101MOL    H5518255   3.922   0.662   7.229  0.4275 -3.2113 -1.4020
  101MOL    C5618256   4.130   0.486   7.174 -0.9415  0.3664  0.7821
  101MOL    C5718257   4.192   0.367   7.258  0.3559 -0.0018  0.0613
  101MOL    C5818258   4.090   0.322   7.375 -0.2054 -0.6146 -0.5319
  101MOL    H5918259   4.029   0.454   7.152 -1.8281  2.8639  1.1086
  101MOL    H6018260   4.198   0.497   7.089 -1.3725 -0.0894  0.3804
  101MOL    H6118261   4.275   0.406   7.317 -0.2442 -0.2755  1.0951
  101MOL    H6218262   3.998   0.380   7.382 -0.4187 -0.8995 -0.9151
  101MOL    H6318263   4.033   0.229   7.367 -0.0297 -1.0478  2.5718
  101MOL    H6418264   4.132   0.310   7.474 -0.1591  0.2092 -0.4513
  101MOL    C6518265   4.228   0.239   7.189 -0.1698 -1.5447 -0.1064
  101MOL    C6618266   4.330   0.258   7.078  0.0945  0.0086 -0.1380
  101MOL    C6718267   4.463   0.261   7.148  0.3074 -0.4640  0.8397
  101MOL    H6818268   4.261   0.173   7.268  1.0005 -0.2959  0.4803
  101MOL    H6918269   4.144   0.196   7.136  0.4366 -0.5834 -1.9164
  101MOL    H7018270   4.322   0.358   7.034  1.1208  0.2247  0.1516
  101MOL    H7118271   4.550   0.270   7.082  0.3785 -0.2972  0.9559
  101MOL    H7218272   4.472   0.342   7.220  1.6804  0.0202  0.1489
  101MOL    H7318273   4.478   0.166   7.199 -0.6418 -1.0255  0.0872
  101MOL    C7418274   4.338   0.158   6.961  0.5642  0.5481 -0.4539
  101MOL    C7518275   4.216   0.145   6.878  0.0371 -0.5791 -0.3318
  101MOL    C7618276   4.184   0.272   6.798 -0.1840 -0.2274 -1.1724
  101MOL    H7718277   4.427   0.185   6.905  1.9315 -0.2106  1.2893
  101MOL    H7818278   4.366   0.062   7.005 -2.4654  1.0514  2.8258
  101MOL    H7918279   4.130   0.119   6.940 -0.3716  0.5859 -0.4006
  101MOL    H8018280   4.200   0.364   6.853  0.9480 -2.3850  2.2492
  101MOL    H8118281   4.263   0.290   6.725 -0.9264 -0.4638 -2.0543
  101MOL    H8218282   4.084   0.281   6.755  0.0592  0.8190 -1.5291
  101MOL    C8318283   4.233   0.039   6.773  0.2494  0.9028 -0.2371
  101MOL    C8418284   4.243   7.583   6.815 -0.1526 -0.3311  0.2472
  101MOL    C8518285   4.110   7.544   6.896  0.3889 -0.5721  0.3148
  101MOL    H8618286   4.147   0.054   6.707  1.4052  1.0453 -1.7330
  101MOL    H8718287   4.310   0.058   6.699 -0.5098  0.6321 -1.1070
  101MOL    H8818288   4.330   7.567   6.879  1.2803  2.2692 -0.9588
  101MOL    H8918289   4.018   7.555   6.839  0.1086  1.5410  1.1524
  101MOL    H9018290   4.106   7.437   6.918  1.0468 -1.1542 -2.2067
  101MOL    H9118291   4.100   7.600   6.988 -0.8510  1.4824 -1.0193
  101MOL    C9218292   4.277   7.507   6.681 -0.0806 -0.8808  0.2262
  101MOL    C9318293   4.286   7.353   6.695 -0.3629 -0.1085  0.1526
  101MOL    C9418294   4.285   7.293   6.554  0.4293 -0.2716  0.5125
  101MOL    H9518295   4.189   7.527   6.620 -0.2068  0.0617  0.6970
  101MOL    H9618296   4.360   7.543   6.620  1.1704 -0.8533  1.9131
  101MOL    H9718297   4.192   7.314   6.735  0.5850 -2.3257  0.3300
  101MOL    H9818298   4.280   7.184   6.550  0.7596 -0.2788  0.3170
  101MOL    H9918299   4.199   7.334   6.501  2.5165  1.8641 -1.3433
  101MOL   H10018300   4.369   7.340   6.503 -0.4530  0.3072 -0.3990
  101MOL   C10118301   4.409   7.309   6.769 -0.2490  0.0010 -0.1599
  101MOL   C10218302   4.400   7.157   6.819 -0.2670 -0.6087 -0.3945
  101MOL   C10318303   4.532   7.084   6.805  0.1987  0.0091  0.1790
  101MOL   H10418304   4.496   7.320   6.704 -0.8124 -1.1079 -1.1008
  101MOL   H10518305   4.433   7.372   6.855 -0.3371  0.6331 -0.5960
  101MOL   H10618306   4.325   7.103   6.760  1.2853 -2.6526 -0.5492
  101MOL   H10718307   4.536   7.048   6.702  3.9863  0.1289  0.1930
  101MOL   H10818308   4.625   7.135   6.832 -0.2838  1.4995 -0.9491
  101MOL   H10918309   4.530   6.993   6.865 -0.2957 -1.2795 -1.7086
  101MOL   C11018310   4.355   7.162   6.964 -0.3264 -0.3194 -0.6038
  101MOL   C11118311   4.280   7.031   7.012 -0.1070 -0.7792  0.0385
  101MOL   C11218312   4.258   7.025   7.159  0.8330 -0.0032  0.0489
  101MOL   H11318313   4.432   7.187   7.038 -1.1618 -3.0739  1.2573
  101MOL   H11418314   4.287   7.247   6.968 -0.3482 -0.3790  0.5608
  101MOL   H11518315   4.355   6.952   7.002  0.6302 -0.1055  0.2243
  101MOL   H11618316   4.346   6.993   7.214 -0.9253 -5.7618 -0.1387
  101MOL   H11718317   4.228   7.124   7.194 -1.2914 -0.2076 -1.0932
  101MOL   H11818318   4.188   6.948   7.191  0.3176  0.4312 -0.0169
  101MOL   C11918319   4.140   6.986   6.946 -0.0606 -0.1983  0.0115
  101MOL   C12018320   4.083   6.842   6.969 -0.9773 -0.5352 -0.4783
  101MOL   C12118321   3.941   6.869   7.013 -0.3506 -0.1313 -0.5912
  101MOL   H12218322   4.072   7.062   6.986 -0.0565  0.3770 -1.0492
  101MOL   H12318323   4.132   7.008   6.840 -1.0235  2.6433  0.6258
  101MOL   H12418324   4.140   6.791   7.047 -0.9561 -1.1537 -0.8952
  101MOL   H12518325   3.883   6.932   6.945  1.6912  1.2737 -1.0595
  101MOL   H12618326   3.879   6.784   7.040 -2.0031  0.9536 -0.8366
  101MOL   H12718327   3.939   6.937   7.098 -2.1736  0.4509 -1.0620
  101MOL   C12818328   4.101   6.743   6.846 -0.2514 -0.4546  0.2634
  101MOL   C12918329   4.238   6.682   6.833 -0.6610 -0.2299 -0.9802
  101MOL   C13018330   4.255   6.577   6.948  0.3881  0.7173  0.2547
  101MOL   H13118331   4.029   6.663   6.855 -1.3512  0.1381 -2.6630
  101MOL   H13218332   4.068   6.777   6.748 -0.3366  1.1795  0.8319
  101MOL   H13318333   4.306   6.762   6.861  1.2274 -0.8654 -3.5962
  101MOL   H13418334   4.239   6.620   7.047  0.8943 -1.3171  1.2548
  101MOL   H13518335   4.185   6.494   6.939  1.1792 -0.1690  1.9370
  101MOL   H13618336   4.352   6.528   6.943  1.0258  1.8462  1.1915
  101MOL   C13718337   4.264   6.611   6.700 -0.1447  0.5004 -0.1609
  101MOL   C13818338   4.260   6.692   6.567 -0.3107  0.0216  0.1542
  101MOL   C13918339   4.347   6.811   6.590  0.3646 -0.1517 -0.1923
  101MOL   H14018340   4.352   6.548   6.712 -0.6387 -0.0435  0.6933
  101MOL   H14118341   4.184   6.538   6.689 -1.4556  2.0381 -1.0282
  101MOL   H14218342   4.156   6.723   6.552 -0.4688 -0.0309  1.1039
  101MOL   H14318343   4.292   6.884   6.650  1.8539  1.0569 -0.2597
  101MOL   H14418344   4.439   6.782   6.641  0.0578 -2.4110 -0.9071
  101MOL   H14518345   4.379   6.862   6.499  1.6583  0.9808  0.8657
  101MOL   C14618346   4.302   6.600   6.450  1.0233 -0.6177 -0.4332
  101MOL   C14718347   4.327   6.669   6.310  0.5950 -0.1322 -0.4265
  101MOL   C14818348   4.380   6.570   6.206  0.2022  0.8080 -0.0462
  101MOL   H14918349   4.401   6.559   6.474  0.4355 -2.3794 -0.9198
  101MOL   H15018350   4.232   6.516   6.444  0.0990  0.1633 -0.6322
  101MOL   H15118351   4.409   6.741   6.311  0.7580 -0.3258  0.3999
  101MOL   H15218352   4.311   6.491   6.179  1.1287  0.4451 -1.4056
  101MOL   H15318353   4.419   6.622   6.119  0.9522  1.9011  0.9202
  101MOL   H15418354   4.466   6.521   6.252 -0.4277 -0.4682 -0.1943
  101MOL   C15518355   4.212   6.745   6.248  0.9257 -0.0306  0.4794
  101MOL   C15618356   4.234   6.860   6.138  0.1623  0.9309  0.4335
  101MOL   C15718357   4.093   6.893   6.084  0.2505  0.1374 -0.7937
  101MOL   H15818358   4.143   6.680   6.193  0.0728 -0.0732  1.5711
  101MOL   H15918359   4.155   6.778   6.335  2.1099 -1.4032  1.8221
  101MOL   H16018360   4.284   6.809   6.056 -2.0826  1.4760 -1.3089
  101MOL   H16118361   4.019   6.894   6.164  0.8893 -1.0037 -0.1687
  101MOL   H16218362   4.080   6.993   6.043  0.7792  0.1506 -0.9364
  101MOL   H16318363   4.058   6.818   6.013 -2.2546 -0.4296  0.9520
  101MOL   C16418364   4.306   6.985   6.182 -0.0490  0.2092 -0.2719
  101MOL   C16518365   4.334   7.097   6.087 -0.1848 -0.7105 -0.5137
  101MOL   C16618366   4.414   7.205   6.167  0.3603  1.0422 -0.6381
  101MOL   H16718367   4.239   7.024   6.259 -0.7888 -0.3871 -0.6046
  101MOL   H16818368   4.399   6.949   6.226 -1.4310 -0.3584  2.3153
  101MOL   H16918369   4.236   7.140   6.062 -0.0357 -0.3477 -0.4748
  101MOL   H17018370   4.488   7.261   6.110 -0.4046  2.1363 -0.5605
  101MOL   H17118371   4.351   7.272   6.226 -0.1027 -0.0225  0.0832
  101MOL   H17218372   4.475   7.148   6.238 -1.1964  2.1657  1.6792
  101MOL   C17318373   4.408   7.048   5.960 -0.2555  0.4251 -0.2960
  101MOL   C17418374   4.360   7.140   5.842  0.3106 -0.2666  0.7027
  101MOL   C17518375   4.451   7.122   5.719 -0.1329  0.1621  0.4863
  101MOL   H17618376   4.515   7.053   5.979 -0.5161  2.0952  0.7774
  101MOL   H17718377   4.393   6.942   5.937 -0.9076  0.6222 -0.7982
  101MOL   H17818378   4.362   7.247   5.861  0.3127  0.0932 -1.1784
  101MOL   H17918379   4.410   7.180   5.636  0.7033 -0.5670 -0.4522
  101MOL   H18018380   4.548   7.167   5.735 -0.8202  1.8776 -0.0680
  101MOL   H18118381   4.468   7.019   5.686  0.1245  1.1439 -2.6385
  101MOL   H18218382   4.258   7.105   5.828 -0.0889  1.3252 -0.6160
  102MOL     C118383   5.623   3.861   1.017 -0.8611 -0.0572 -0.2004
  102MOL     C218384   5.626   3.956   0.908  0.5750  0.5171  0.1204
  102MOL     C318385   5.534   3.904   0.795  0.1988  0.5168 -0.1406
  102MOL     H418386   5.520   3.853   1.050 -0.5445 -0.0063  0.8250
  102MOL     H518387   5.677   3.892   1.107 -1.8659 -0.6539  0.6321
  102MOL     H618388   5.727   3.962   0.869  0.5556  3.4775  0.4227
  102MOL     H718389   5.559   3.801   0.767  1.1764  0.0247  2.3679
  102MOL     H818390   5.427   3.894   0.811  0.2198  0.9281  0.2490
  102MOL     H918391   5.520   3.965   0.706  1.8017  1.9729  0.5868
  102MOL    H1018392   5.663   3.763   0.989  0.3737  0.9457 -2.0159
  102MOL    C1118393   5.586   4.098   0.951 -0.3219 -1.0318  0.0250
  102MOL    C1218394   5.678   4.171   1.061  0.1417  0.6260 -0.7673
  102MOL    C1318395   5.822   4.196   1.008 -0.2101  0.2451  0.0459
  102MOL    H1418396   5.578   4.161   0.862 -0.5542  0.7222  1.2656
  102MOL    H1518397   5.480   4.084   0.971 -1.0232  1.1583 -1.9415
  102MOL    H1618398   5.695   4.114   1.152 -1.5428 -0.3360 -1.0246
  102MOL    H1718399   5.870   4.104   0.977 -0.3343  0.5920 -1.1869
  102MOL    H1818400   5.801   4.260   0.922 -0.0401 -0.1384 -0.2803
  102MOL    H1918401   5.879   4.251   1.084  0.5392  0.4737 -0.6758
  102MOL    C2018402   5.598   4.298   1.105  0.3825 -0.4019 -1.1292
  102MOL    C2118403   5.541   4.285   1.252  0.0188 -1.1126 -0.0347
  102MOL    C2218404   5.650   4.315   1.348 -0.1303 -0.4205 -0.3614
  102MOL    H2318405   5.664   4.386   1.108 -0.0470 -0.0362 -2.1713
  102MOL    H2418406   5.511   4.324   1.045 -1.0429 -0.7074  0.7787
  102MOL    H2518407   5.510   4.182   1.268 -2.6079 -0.3154  0.3178
  102MOL    H2618408   5.621   4.300   1.453 -0.3844  0.2534 -0.3303
  102MOL    H2718409   5.744   4.263   1.335 -0.2383 -1.4048  2.3439
  102MOL    H2818410   5.692   4.415   1.336 -0.7141  0.0356  1.2294
  102MOL    C2918411   5.419   4.364   1.284 -0.3166 -0.1492  0.6505
  102MOL    C3018412   5.294   4.304   1.209  0.3625 -0.3975 -0.7500
  102MOL    C3118413   5.211   4.231   1.316  0.3795 -0.1196 -0.2362
  102MOL    H3218414   5.393   4.363   1.389  1.6263 -1.4608  1.1333
  102MOL    H3318415   5.434   4.472   1.273 -1.5711 -0.0888 -0.7302
  102MOL    H3418416   5.330   4.233   1.134  0.0435 -0.3041 -0.9946
  102MOL    H3518417   5.270   4.169   1.383  1.5051  1.8848  0.6808
  102MOL    H3618418   5.165   4.306   1.381 -0.9001 -1.2254  0.1660
  102MOL    H3718419   5.139   4.169   1.263  1.4849  1.2921 -3.4999
  102MOL    C3818420   5.208   4.422   1.154 -0.0014  0.6478  0.1364
  102MOL    C3918421   5.246   4.472   1.008  0.6505  0.9920  0.2772
  102MOL    C4018422   5.197   4.377   0.899 -0.6658 -0.5371 -0.0974
  102MOL    H4118423   5.102   4.400   1.156 -0.6109  3.2981 -0.3890
  102MOL    H4218424   5.222   4.501   1.228 -0.8581  0.8359  0.1024
  102MOL    H4318425   5.355   4.476   1.002  0.9310 -3.1156  1.4151
  102MOL    H4418426   5.266   4.385   0.816 -0.0987  0.7605  0.4869
  102MOL    H4518427   5.199   4.273   0.933 -0.3634 -0.5171 -0.0587
  102MOL    H4618428   5.093   4.406   0.884 -0.5495 -0.6538 -1.1176
  102MOL    C4718429   5.188   4.613   0.981 -0.1516  0.1883 -0.1938
  102MOL    C4818430   5.235   4.697   0.861  0.2842  0.2996 -0.1354
  102MOL    C4918431   5.162   4.830   0.858 -0.6751 -0.0262 -0.2241
  102MOL    H5018432   5.079   4.609   0.977 -0.1768  1.5738 -1.2730
  102MOL    H5118433   5.206   4.676   1.069  3.2936  0.5477 -1.0996
  102MOL    H5218434   5.207   4.649   0.767 -1.5199 -1.8075  1.4152
  102MOL    H5318435   5.190   4.902   0.935  0.9287  1.2047 -1.8950
  102MOL    H5418436   5.168   4.885   0.764 -1.2032  0.4169 -0.0021
  102MOL    H5518437   5.056   4.804   0.851 -0.2627 -1.6957 -0.5988
  102MOL    C5618438   5.391   4.720   0.864  0.3826  0.2681  0.4633
  102MOL    C5718439   5.460   4.784   0.987  0.2888 -0.8082 -0.5088
  102MOL    C5818440   5.581   4.708   1.044  0.0935  0.5179  0.2603
  102MOL    H5918441   5.442   4.625   0.847 -1.1220 -0.7924  1.6945
  102MOL    H6018442   5.405   4.788   0.780 -0.6241 -0.5035 -0.3553
  102MOL    H6118443   5.379   4.788   1.060 -0.8382 -0.3095 -1.7742
  102MOL    H6218444   5.668   4.727   0.980  1.9979 -1.3509  2.1945
  102MOL    H6318445   5.596   4.735   1.148 -0.3819 -1.5121  0.8908
  102MOL    H6418446   5.561   4.601   1.042  0.5921  0.4276  0.0389
  102MOL    C6518447   5.505   4.932   0.958 -0.1739  0.5246 -0.0479
  102MOL    C6618448   5.566   4.996   1.085  0.4877  0.4406 -0.0449
  102MOL    C6718449   5.654   5.115   1.048 -0.3265 -0.0337 -0.0267
  102MOL    H6818450   5.583   4.935   0.881 -0.6872  0.5627 -0.5711
  102MOL    H6918451   5.420   4.991   0.924  0.6032  1.0176 -1.1759
  102MOL    H7018452   5.635   4.930   1.138 -1.9733 -1.8152  0.4188
  102MOL    H7118453   5.748   5.088   0.999 -0.5374 -1.1761  0.1706
  102MOL    H7218454   5.597   5.170   0.973 -1.1304 -0.8652 -0.0379
  102MOL    H7318455   5.671   5.187   1.127 -2.3565  0.1595  0.2518
  102MOL    C7418456   5.465   5.042   1.191  0.1036 -0.4118 -0.3375
  102MOL    C7518457   5.489   5.004   1.339 -0.3552  0.6161 -0.4335
  102MOL    C7618458   5.607   5.078   1.396  0.3382 -0.0086  0.3266
  102MOL    H7718459   5.437   5.147   1.195  2.0386  0.0536  1.7192
  102MOL    H7818460   5.375   4.991   1.156  0.7515 -2.2545  0.6257
  102MOL    H7918461   5.522   4.900   1.332 -2.3158 -0.0914  0.5997
  102MOL    H8018462   5.578   5.182   1.407  0.3427  0.1101 -0.7776
  102MOL    H8118463   5.624   5.038   1.496  1.2851 -1.1191 -0.2708
  102MOL    H8218464   5.705   5.065   1.349  0.0056  1.2392 -0.7195
  102MOL    C8318465   5.369   5.017   1.424  0.2973  0.8136 -0.1186
  102MOL    C8418466   5.371   4.930   1.546 -0.3425 -0.9029  0.4256
  102MOL    C8518467   5.282   4.994   1.654  0.5581  0.4932  0.2178
  102MOL    H8618468   5.370   5.120   1.459 -0.9056  1.0601 -0.7885
  102MOL    H8718469   5.279   5.017   1.363 -0.7158  2.4057  1.3437
  102MOL    H8818470   5.472   4.928   1.586 -0.1624 -0.8397 -0.0168
  102MOL    H8918471   5.183   4.999   1.608 -0.0023 -0.9189  1.2452
  102MOL    H9018472   5.283   4.934   1.745  0.8647 -0.2199 -0.2586
  102MOL    H9118473   5.311   5.091   1.696  0.1920 -0.2140  2.1294
  102MOL    C9218474   5.332   4.788   1.510 -0.5587  0.1507 -0.7557
  102MOL    C9318475   5.354   4.681   1.614  0.8362  0.2974  0.2748
  102MOL    C9418476   5.269   4.547   1.575  0.2856 -0.1187  0.6980
  102MOL    H9518477   5.227   4.784   1.485 -1.2944  0.0457  2.1181
  102MOL    H9618478   5.394   4.752   1.428 -2.3380 -3.5081 -0.6137
  102MOL    H9718479   5.315   4.723   1.707 -0.2503 -1.0611  0.4439
  102MOL    H9818480   5.334   4.461   1.587 -0.3609 -0.2489  3.4783
  102MOL    H9918481   5.174   4.543   1.629 -0.0705  2.0490  0.2920
  102MOL   H10018482   5.231   4.559   1.473 -1.3521  1.5827  1.4627
  102MOL   C10118483   5.501   4.644   1.616 -0.6155 -0.4111 -0.2405
  102MOL   C10218484   5.557   4.595   1.748 -0.6662  0.7095 -0.6517
  102MOL   C10318485   5.691   4.522   1.725 -0.4548  0.1809 -0.3157
  102MOL   H10418486   5.517   4.568   1.539 -0.0252 -3.3817  2.7069
  102MOL   H10518487   5.568   4.728   1.600  0.1132 -0.9747 -0.1472
  102MOL   H10618488   5.489   4.523   1.792  1.3880 -0.8468  0.0284
  102MOL   H10718489   5.762   4.572   1.659  0.3464 -1.3830 -0.6606
  102MOL   H10818490   5.758   4.504   1.810 -1.3598  1.1896  0.6213
  102MOL   H10918491   5.669   4.423   1.684 -3.1051  1.4441 -2.0276
  102MOL   C11018492   5.579   4.721   1.842 -0.0143  0.3662  0.2070
  102MOL   C11118493   5.524   4.696   1.990 -0.0106 -0.8244  0.1664
  102MOL   C11218494   5.598   4.582   2.062 -0.6285 -0.0008  0.6214
  102MOL   H11318495   5.683   4.752   1.854  0.3870 -0.8475 -0.0508
  102MOL   H11418496   5.527   4.809   1.804 -0.4678  0.1775  0.3878
  102MOL   H11518497   5.419   4.665   1.985 -1.3859  3.2735  2.0507
  102MOL   H11618498   5.555   4.572   2.162 -0.1869 -0.4833  0.7637
  102MOL   H11718499   5.570   4.493   2.006 -0.3642  1.5196 -1.9841
  102MOL   H11818500   5.706   4.595   2.062 -0.5492 -0.6249 -0.6585
  102MOL   C11918501   5.524   4.826   2.072 -0.0725 -0.6743  0.1265
  102MOL   C12018502   5.434   4.942   2.024 -0.4344 -0.4897 -0.4374
  102MOL   C12118503   5.279   4.908   2.021 -0.0710  0.6794 -0.7333
  102MOL   H12218504   5.496   4.807   2.175 -2.6224 -1.0414 -0.6039
  102MOL   H12318505   5.627   4.861   2.073  0.2604 -1.6443  1.6636
  102MOL   H12418506   5.465   4.973   1.924  1.9372 -0.8743  0.1468
  102MOL   H12518507   5.258   4.841   1.937 -0.2449 -0.9764  0.6286
  102MOL   H12618508   5.240   4.866   2.113  4.4449  0.7518  1.3589
  102MOL   H12718509   5.221   5.000   2.009  1.1136  1.8005  1.7923
  102MOL   C12818510   5.459   5.066   2.117  0.3085  0.4372 -0.1429
  102MOL   C12918511   5.600   5.136   2.102 -0.5523 -0.6619  1.1121
  102MOL   C13018512   5.605   5.223   1.971 -0.5081 -0.3519  0.3308
  102MOL   H13118513   5.387   5.148   2.108  1.1105  1.0290 -1.3011
  102MOL   H13218514   5.456   5.040   2.222 -3.1916  1.3419  0.0441
  102MOL   H13318515   5.685   5.068   2.094 -1.8096 -2.1143 -0.1038
  102MOL   H13418516   5.585   5.160   1.884  1.3928  0.1107 -0.4607
  102MOL   H13518517   5.527   5.299   1.967 -0.6908 -0.6360 -2.7729
  102MOL   H13618518   5.702   5.265   1.947  0.3031 -2.4048 -0.1469
  102MOL   C13718519   5.645   5.226   2.221  0.7203  0.6997 -1.0159
  102MOL   C13818520   5.708   5.149   2.333  0.2743  0.2329 -0.9903
  102MOL   C13918521   5.859   5.132   2.303 -0.1159 -0.2443 -0.0236
  102MOL   H14018522   5.720   5.299   2.190 -0.7128  3.2194  1.3231
  102MOL   H14118523   5.556   5.276   2.260  0.1108 -1.1097 -0.0256
  102MOL   H14218524   5.671   5.047   2.345 -2.0067  1.0767 -0.6990
  102MOL   H14318525   5.905   5.228   2.324 -0.8093  0.2129 -0.5740
  102MOL   H14418526   5.904   5.071   2.381  2.3788  0.4530 -0.8550
  102MOL   H14518527   5.872   5.090   2.203 -1.7694  1.0489 -0.7931
  102MOL   C14618528   5.687   5.209   2.470  0.2753 -0.4331 -0.0031
  102MOL   C14718529   5.542   5.197   2.536  0.1347 -0.1479  0.0794
  102MOL   C14818530   5.506   5.051   2.547  0.0753  0.3737 -0.2145
  102MOL   H14918531   5.761   5.164   2.536 -1.1101 -1.7345  0.7121
  102MOL   H15018532   5.710   5.315   2.469 -2.3947  0.2162  1.2224
  102MOL   H15118533   5.461   5.242   2.479 -1.1573  1.3604  3.0213
  102MOL   H15218534   5.508   5.003   2.450  0.9276  3.5516 -1.8187
  102MOL   H15318535   5.567   4.993   2.617  0.9447 -0.4427 -1.6221
  102MOL   H15418536   5.402   5.034   2.575  0.6316 -2.6881  0.1806
  102MOL   C15518537   5.532   5.248   2.678 -0.7003 -0.1059  0.5240
  102MOL   C15618538   5.535   5.404   2.703  0.5655  0.1090  0.2774
  102MOL   C15718539   5.397   5.465   2.670 -0.1969  1.5067 -0.1033
  102MOL   H15818540   5.442   5.202   2.718  1.2702 -3.2698  1.5117
  102MOL   H15918541   5.612   5.195   2.729 -3.3723 -3.0031  1.9130
  102MOL   H16018542   5.609   5.446   2.634  0.6582 -0.4099  0.0603
  102MOL   H16118543   5.350   5.436   2.576  1.5022  3.0822 -1.4801
  102MOL   H16218544   5.333   5.423   2.747 -0.3504 -2.5971 -2.3082
  102MOL   H16318545   5.398   5.573   2.683  0.6491  1.6196 -1.0154
  102MOL   C16418546   5.583   5.425   2.848 -0.5988  0.0354 -0.1185
  102MOL   C16518547   5.573   5.569   2.903 -0.1105 -0.0514  0.2104
  102MOL   C16618548   5.630   5.568   3.051 -0.4190  0.4304 -0.0073
  102MOL   H16718549   5.527   5.354   2.908  0.7013  0.6652  1.8964
  102MOL   H16818550   5.681   5.380   2.861 -1.2650 -1.5871 -0.6112
  102MOL   H16918551   5.469   5.604   2.901 -0.1474 -0.1069 -3.8869
  102MOL   H17018552   5.574   5.504   3.120 -2.1587  1.3446 -0.5344
  102MOL   H17118553   5.731   5.526   3.047 -0.0282  1.3374  0.4033
  102MOL   H17218554   5.637   5.668   3.094  1.1424  1.3042 -2.1976
  102MOL   C17318555   5.666   5.659   2.822  0.1651  0.4293 -0.1840
  102MOL   C17418556   5.716   5.790   2.893 -0.1390  0.4675 -0.2498
  102MOL   C17518557   5.800   5.865   2.791  0.7213 -0.2908  0.3028
  102MOL   H17618558   5.754   5.598   2.798 -0.1387  0.6046 -1.7899
  102MOL   H17718559   5.613   5.662   2.727 -0.5301  0.2549  0.1955
  102MOL   H17818560   5.786   5.775   2.976  0.4898 -1.0558 -1.0312
  102MOL   H17918561   5.885   5.799   2.776  1.6003  1.1193 -1.1402
  102MOL   H18018562   5.737   5.875   2.703  0.8382 -0.2089  0.2280
  102MOL   H18118563   5.836   5.960   2.831  0.4873 -0.2318  0.3708
  102MOL   H18218564   5.636   5.849   2.936 -0.5156 -0.3263  0.1456
  103MOL     C118565   0.254   7.052   1.162  0.6555  0.6517  0.2620
  103MOL     C218566   0.148   7.011   1.269  0.5353 -0.6907 -0.5147
  103MOL     C318567   0.017   7.080   1.229 -0.3360 -0.0461 -0.3004
  103MOL     H418568   0.238   7.002   1.066  1.4513 -0.8711  0.9023
  103MOL     H518569   0.345   7.008   1.203 -0.2205 -2.0761 -0.5500
  103MOL     H618570   0.183   7.036   1.369 -0.4469 -0.2237 -0.2828
  103MOL     H718571   7.631   7.040   1.288  0.5127  0.8768  1.5909
  103MOL     H818572   0.019   7.189   1.237  0.2638 -0.1623  1.3499
  103MOL     H918573   0.001   7.058   1.124  1.3676  1.7533 -0.9534
  103MOL    H1018574   0.266   7.159   1.148 -1.6065  0.7849 -0.9130
  103MOL    C1118575   0.126   6.858   1.269  0.1239 -0.7202 -0.8616
  103MOL    C1218576   0.238   6.774   1.330  0.2222  0.7538 -0.1585
  103MOL    C1318577   0.241   6.792   1.481  0.4974  0.2538  0.2586
  103MOL    H1418578   0.044   6.827   1.333 -0.0444  1.1372 -0.1226
  103MOL    H1518579   0.096   6.831   1.167 -1.1812 -2.8952  0.0697
  103MOL    H1618580   0.331   6.817   1.292  1.1514 -0.8516  0.2740
  103MOL    H1718581   0.312   6.725   1.530 -0.1191  0.8483  2.0008
  103MOL    H1818582   0.267   6.892   1.517  1.2834  0.0660  0.2139
  103MOL    H1918583   0.149   6.774   1.537  0.0618  3.0094  0.5068
  103MOL    C2018584   0.241   6.619   1.292  0.4142 -0.2105  0.2902
  103MOL    C2118585   0.384   6.559   1.282  0.4390 -0.6877 -0.4025
  103MOL    C2218586   0.377   6.411   1.273 -0.5560 -0.0085 -0.0990
  103MOL    H2318587   0.179   6.562   1.361 -0.8969  0.1756 -0.5550
  103MOL    H2418588   0.182   6.598   1.203  0.6585 -2.6626  0.6491
  103MOL    H2518589   0.414   6.580   1.385  1.8268  0.5951 -1.0467
  103MOL    H2618590   0.348   6.372   1.175 -2.6392 -0.4526  0.6650
  103MOL    H2718591   0.466   6.351   1.294 -1.3957 -1.1989  0.1558
  103MOL    H2818592   0.295   6.376   1.336 -0.1071  0.0169  0.4970
  103MOL    C2918593   0.471   6.607   1.164 -0.2923  0.1806 -0.8957
  103MOL    C3018594   0.627   6.600   1.171  0.5326 -0.2395 -0.0558
  103MOL    C3118595   0.682   6.575   1.030  0.4369 -0.6143 -0.0455
  103MOL    H3218596   0.428   6.554   1.079 -1.8664 -0.1424  0.0808
  103MOL    H3318597   0.447   6.713   1.153  1.5083  0.8782  1.4531
  103MOL    H3418598   0.656   6.518   1.237  2.2738  0.9952  0.7517
  103MOL    H3518599   0.682   6.663   0.966  0.6451 -0.7091 -0.1758
  103MOL    H3618600   0.784   6.538   1.039  0.0427 -2.0321 -1.2684
  103MOL    H3718601   0.627   6.497   0.977 -0.8008  0.4356 -0.3449
  103MOL    C3818602   0.700   6.725   1.233  0.3811  0.1581  0.2806
  103MOL    C3918603   0.683   6.750   1.387 -0.1154 -0.6717 -0.4202
  103MOL    C4018604   0.731   6.636   1.474  0.0920  0.4653  0.0624
  103MOL    H4118605   0.807   6.709   1.224 -0.1692 -4.0097  0.2485
  103MOL    H4218606   0.671   6.815   1.179  1.3867 -1.8246 -3.7506
  103MOL    H4318607   0.577   6.760   1.409  0.1133  3.0746 -0.6585
  103MOL    H4418608   0.727   6.671   1.578  0.5860  0.7529 -0.0121
  103MOL    H4518609   0.661   6.553   1.477  0.7887 -0.1495 -0.9324
  103MOL    H4618610   0.829   6.602   1.442  0.1073  0.7141 -0.1541
  103MOL    C4718611   0.763   6.877   1.422  0.0112 -0.7975 -0.0760
  103MOL    C4818612   0.728   7.015   1.360 -0.4025  0.0171 -0.4283
  103MOL    C4918613   0.603   7.071   1.432  0.8332 -0.4117 -0.1336
  103MOL    H5018614   0.759   6.888   1.530 -0.6668 -0.5073 -0.1246
  103MOL    H5118615   0.867   6.854   1.401 -0.1182  0.4471 -2.2114
  103MOL    H5218616   0.711   7.021   1.253  1.0066  1.2941 -0.6013
  103MOL    H5318617   0.515   7.019   1.394 -1.5960  3.2196  0.2475
  103MOL    H5418618   0.602   7.044   1.538  0.0265 -0.7344 -0.2221
  103MOL    H5518619   0.589   7.177   1.412  0.1846  0.5596  4.7392
  103MOL    C5618620   0.847   7.117   1.381  0.4332  0.1049  0.2386
  103MOL    C5718621   0.960   7.093   1.279 -0.2407  0.3898  0.3330
  103MOL    C5818622   0.936   7.145   1.131  1.1514  0.1712 -0.6634
  103MOL    H5918623   0.823   7.222   1.362 -2.6722 -0.7913 -1.2555
  103MOL    H6018624   0.885   7.121   1.483  1.4981  2.3131 -0.2195
  103MOL    H6118625   0.979   6.987   1.261 -0.7478  0.6380 -1.9110
  103MOL    H6218626   0.880   7.077   1.068  2.8082 -2.8173  0.9837
  103MOL    H6318627   0.873   7.233   1.145 -1.5714 -1.7334 -0.5582
  103MOL    H6418628   1.026   7.175   1.078  2.8250 -1.2046  1.3278
  103MOL    C6518629   1.083   7.165   1.335 -0.1548 -0.1204 -0.0571
  103MOL    C6618630   1.161   7.094   1.455 -0.9014 -0.3599 -1.0802
  103MOL    C6718631   1.248   6.983   1.393 -0.0236  0.2179  0.0831
  103MOL    H6818632   1.153   7.185   1.254  0.4476  0.2471  0.5560
  103MOL    H6918633   1.049   7.267   1.352  0.9657  0.2467  0.0294
  103MOL    H7018634   1.094   7.039   1.521  0.0771 -0.2681 -0.0041
  103MOL    H7118635   1.323   7.016   1.320 -0.8034 -0.9658 -1.2764
  103MOL    H7218636   1.305   6.930   1.469 -0.9531 -0.5315  0.2659
  103MOL    H7318637   1.173   6.916   1.351  1.7133 -1.2551 -0.7422
  103MOL    C7418638   1.258   7.199   1.521 -0.2071 -0.0616  0.3101
  103MOL    C7518639   1.182   7.305   1.611  0.2632  0.4541  0.9831
  103MOL    C7618640   1.121   7.246   1.736  0.4658 -0.3590 -0.2629
  103MOL    H7718641   1.324   7.144   1.587  0.4913 -0.3348 -0.6008
  103MOL    H7818642   1.322   7.249   1.448  0.5844 -2.4939 -0.7080
  103MOL    H7918643   1.100   7.347   1.553 -0.8714 -0.8710  1.6007
  103MOL    H8018644   1.043   7.174   1.711 -1.0898  2.3971 -3.8205
  103MOL    H8118645   1.193   7.222   1.815 -3.1180  0.7316  3.5422
  103MOL    H8218646   1.065   7.330   1.777 -0.0681 -0.1211 -1.4697
  103MOL    C8318647   1.279   7.419   1.634  0.3576 -0.0042  0.0813
  103MOL    C8418648   1.211   7.546   1.692  0.1658  0.5771 -0.7200
  103MOL    C8518649   1.316   7.662   1.707  0.1006  0.3793 -0.1095
  103MOL    H8618650   1.367   7.386   1.689  0.6876  0.1944 -0.3241
  103MOL    H8718651   1.314   7.446   1.534 -0.2791  0.7014  0.0441
  103MOL    H8818652   1.182   7.524   1.795 -0.4478  1.2091 -0.7527
  103MOL    H8918653   1.344   0.017   1.615 -1.5402 -0.3696 -1.0527
  103MOL    H9018654   1.280   0.046   1.770  1.0700  1.6729 -1.1843
  103MOL    H9118655   1.396   7.614   1.764 -0.6949 -0.7248  0.0928
  103MOL    C9218656   1.078   7.590   1.629 -0.4217 -0.2353  0.5072
  103MOL    C9318657   1.016   0.024   1.689 -0.3730 -0.5845 -0.4451
  103MOL    C9418658   0.886   0.055   1.614  0.5134 -0.7755 -0.1659
  103MOL    H9518659   1.095   7.596   1.522 -0.3637 -0.3124  0.5124
  103MOL    H9618660   1.003   7.517   1.660 -0.5276  0.1321  1.1335
  103MOL    H9718661   1.093   0.092   1.653  1.0851 -1.0440  1.6740
  103MOL    H9818662   0.902   0.072   1.507  0.7014 -0.2884 -0.0608
  103MOL    H9918663   0.813   7.673   1.626 -0.2397 -0.3869 -1.9394
  103MOL   H10018664   0.844   0.150   1.648  1.2986 -0.2976 -0.5107
  103MOL   C10118665   0.996   0.028   1.848 -0.0763 -0.3620  0.1600
  103MOL   C10218666   0.959   0.167   1.913 -0.1666 -0.0231 -0.3724
  103MOL   C10318667   0.807   0.166   1.946 -0.1261 -0.2948 -0.2934
  103MOL   H10418668   0.917   7.659   1.883  0.2365 -0.5066  0.5979
  103MOL   H10518669   1.091   7.684   1.882 -0.5119 -3.2582 -1.9711
  103MOL   H10618670   0.976   0.255   1.850 -3.5860  2.0571  1.4694
  103MOL   H10718671   0.748   0.137   1.859 -0.7538  0.4164 -0.1135
  103MOL   H10818672   0.778   0.095   2.023  0.0338  0.7599  0.7415
  103MOL   H10918673   0.770   0.262   1.982 -0.1148 -1.6306  3.4909
  103MOL   C11018674   1.038   0.187   2.051 -0.2044 -0.1495 -0.0898
  103MOL   C11118675   1.186   0.212   2.045  0.3565 -0.1836  0.1854
  103MOL   C11218676   1.209   0.336   1.965  0.5316 -0.2009 -0.4139
  103MOL   H11318677   0.990   0.260   2.117 -0.0654 -1.2272  1.2468
  103MOL   H11418678   1.039   0.097   2.113  1.0989  2.8394  4.4918
  103MOL   H11518679   1.222   0.125   1.990 -1.6483 -0.9129 -0.0099
  103MOL   H11618680   1.178   0.342   1.860  0.1579 -1.3526 -0.3804
  103MOL   H11718681   1.149   0.419   2.002  0.8787 -0.2337  0.2129
  103MOL   H11818682   1.312   0.371   1.964  0.8058 -0.9731  0.2572
  103MOL   C11918683   1.242   0.234   2.188 -0.3203  0.2752 -0.0053
  103MOL   C12018684   1.383   0.184   2.216  0.6207  0.3224 -0.4366
  103MOL   C12118685   1.487   0.279   2.160  0.4626 -0.4724  0.0795
  103MOL   H12218686   1.231   0.340   2.211 -1.1382 -0.1646  1.7609
  103MOL   H12318687   1.177   0.180   2.258 -0.2395  0.0723 -0.0878
  103MOL   H12418688   1.395   0.087   2.166 -0.1459 -0.2879  0.5614
  103MOL   H12518689   1.443   0.377   2.183 -0.2355 -0.7233 -0.1606
  103MOL   H12618690   1.586   0.276   2.204 -0.4887  3.9466  2.8331
  103MOL   H12718691   1.505   0.282   2.052 -1.7115 -0.6740 -0.3235
  103MOL   C12818692   1.408   0.157   2.369 -0.6948  0.7646 -0.0227
  103MOL   C12918693   1.351   0.018   2.419  0.0632  0.0518  0.0030
  103MOL   C13018694   1.448   7.601   2.383  0.0404 -0.1420 -0.6753
  103MOL   H13118695   1.512   0.150   2.402 -0.5899  1.6975 -0.1605
  103MOL   H13218696   1.367   0.244   2.419 -0.9786  0.8482 -0.3960
  103MOL   H13318697   1.257   7.686   2.373  0.8141  0.7268 -2.0824
  103MOL   H13418698   1.545   7.617   2.429 -0.6523  1.5333  0.2453
  103MOL   H13518699   1.406   7.504   2.405 -0.8875  0.7857  1.7552
  103MOL   H13618700   1.462   7.602   2.275  1.3730  0.2284 -0.5092
  103MOL   C13718701   1.333   0.008   2.568  0.3969 -0.2082  0.0508
  103MOL   C13818702   1.237   0.107   2.631  0.0923  0.2485  0.2090
  103MOL   C13918703   1.088   0.059   2.639  0.1412  0.4641 -0.5227
  103MOL   H14018704   1.308   7.604   2.600 -1.7259  0.2932  0.0333
  103MOL   H14118705   1.430   0.018   2.617 -0.7266  2.1620  1.8882
  103MOL   H14218706   1.230   0.196   2.569 -1.2384 -0.1910 -0.3020
  103MOL   H14318707   1.025   0.138   2.678 -0.2968 -0.9838  1.7632
  103MOL   H14418708   1.061   0.032   2.537  0.6501  0.5090 -0.6738
  103MOL   H14518709   1.074   7.668   2.701  1.0064 -0.4042 -1.5363
  103MOL   C14618710   1.274   0.148   2.771 -0.0014 -0.4897  0.5696
  103MOL   C14718711   1.391   0.245   2.774 -0.0794  0.4465 -0.0164
  103MOL   C14818712   1.356   0.383   2.716  0.3686 -0.3038  0.1440
  103MOL   H14918713   1.193   0.189   2.830 -1.2383  0.3661 -1.6600
  103MOL   H15018714   1.304   0.055   2.820  1.4321 -1.2032 -1.5840
  103MOL   H15118715   1.469   0.208   2.707  1.2552  1.2530  1.0705
  103MOL   H15218716   1.299   0.447   2.784 -1.9299 -2.3563  0.1868
  103MOL   H15318717   1.440   0.446   2.685 -1.3853  0.8904 -2.3294
  103MOL   H15418718   1.293   0.384   2.628 -0.4972 -0.7670  0.7562
  103MOL   C15518719   1.450   0.255   2.924 -0.1610 -0.2725  0.2281
  103MOL   C15618720   1.603   0.237   2.919  0.2607 -0.7228 -0.5509
  103MOL   C15718721   1.678   0.260   3.050 -0.1947  0.5157  0.2713
  103MOL   H15818722   1.421   0.346   2.978  0.2130  0.7794 -1.2990
  103MOL   H15918723   1.411   0.179   2.991  0.0280 -1.3036 -0.8253
  103MOL   H16018724   1.633   0.317   2.850 -0.1475 -0.8347 -0.8626
  103MOL   H16118725   1.786   0.253   3.041 -0.3063  1.1107 -1.7267
  103MOL   H16218726   1.648   0.361   3.079  0.8812  0.9825 -0.2269
  103MOL   H16318727   1.642   0.199   3.133  0.0165  0.2157  0.1434
  103MOL   C16418728   1.634   0.094   2.872  0.7624 -0.2332 -0.0521
  103MOL   C16518729   1.754   0.081   2.776  0.3004 -0.8557 -0.2607
  103MOL   C16618730   1.796   7.632   2.776  0.4769 -0.0668 -0.1474
  103MOL   H16718731   1.649   0.033   2.961  1.8035  0.6328  0.3946
  103MOL   H16818732   1.546   0.050   2.825  2.2362 -2.3503 -0.9111
  103MOL   H16918733   1.843   0.134   2.810  0.1727  0.0426 -1.2915
  103MOL   H17018734   1.713   7.579   2.730  0.0405 -0.5813  1.2195
  103MOL   H17118735   1.878   7.602   2.710 -0.1889  0.2736 -1.1458
  103MOL   H17218736   1.814   7.587   2.874 -0.3956 -1.0282 -0.4160
  103MOL   C17318737   1.714   0.134   2.637 -0.3716  0.0629  0.4343
  103MOL   C17418738   1.843   0.130   2.542  0.6330  0.0355  0.0725
  103MOL   C17518739   1.826   0.196   2.410 -0.1883 -1.1601 -0.0338
  103MOL   H17618740   1.627   0.088   2.590 -1.3714  2.2928 -0.0097
  103MOL   H17718741   1.689   0.240   2.639  1.2875  0.5373 -1.6096
  103MOL   H17818742   1.859   0.024   2.525 -0.5890 -0.1316 -0.0554
  103MOL   H17918743   1.732   0.169   2.360 -1.5667  1.6311  0.9260
  103MOL   H18018744   1.818   0.304   2.428 -2.0168 -1.1510 -0.7600
  103MOL   H18118745   1.910   0.180   2.342  0.0542  1.9151 -0.5711
  103MOL   H18218746   1.924   0.176   2.599  0.0442 -0.2347  1.1307
  104MOL     C118747   6.184   4.224   0.823  0.5753 -0.0175  0.1566
  104MOL     C218748   6.179   4.379   0.844 -0.2293  0.9278 -0.0279
  104MOL     C318749   6.319   4.440   0.847 -0.0758  0.3880 -0.0690
  104MOL     H418750   6.233   4.200   0.728  1.4228  0.5341  0.4437
  104MOL     H518751   6.086   4.177   0.820  0.0338  1.0962  0.1504
  104MOL     H618752   6.129   4.402   0.938 -1.2596  2.3607 -0.9029
  104MOL     H718753   6.313   4.542   0.884 -0.6377 -0.1449  1.3561
  104MOL     H818754   6.385   4.395   0.921 -2.5068 -0.1656  1.8158
  104MOL     H918755   6.366   4.418   0.751 -1.1943  1.2757 -0.8417
  104MOL    H1018756   6.236   4.173   0.903  2.1304  0.4122 -0.5547
  104MOL    C1118757   6.097   4.442   0.728 -0.0066 -0.0095 -0.5513
  104MOL    C1218758   5.949   4.418   0.722  0.5190  0.0145 -0.6271
  104MOL    C1318759   5.875   4.498   0.833  0.3983 -0.3130 -0.2843
  104MOL    H1418760   6.116   4.549   0.719 -0.8054  0.2310  0.5951
  104MOL    H1518761   6.131   4.394   0.636  1.5519 -0.9875  0.5106
  104MOL    H1618762   5.926   4.313   0.736  2.8051 -0.7670 -2.5080
  104MOL    H1718763   5.869   4.605   0.816  2.4230  0.0012  0.7582
  104MOL    H1818764   5.771   4.466   0.838  0.5141 -0.5838  0.3291
  104MOL    H1918765   5.916   4.473   0.931 -0.5355 -0.2063  0.1336
  104MOL    C2018766   5.896   4.472   0.584 -0.0982  0.0268  0.2820
  104MOL    C2118767   5.752   4.435   0.558 -0.5605 -0.0833 -1.2025
  104MOL    C2218768   5.665   4.564   0.582 -0.5792  0.0397 -0.1215
  104MOL    H2318769   5.913   4.578   0.568  0.1058  0.2465  1.8911
  104MOL    H2418770   5.961   4.419   0.514 -2.2953  0.5797 -2.2859
  104MOL    H2518771   5.729   4.357   0.629  0.4840 -0.1845 -0.9631
  104MOL    H2618772   5.658   4.597   0.686 -1.8160 -0.7637  0.0590
  104MOL    H2718773   5.704   4.649   0.525  0.1759 -1.0441 -1.2408
  104MOL    H2818774   5.559   4.548   0.561 -0.3198 -2.4681  0.3403
  104MOL    C2918775   5.725   4.380   0.416 -0.1154 -0.1866 -0.2355
  104MOL    C3018776   5.582   4.340   0.389 -0.0341 -0.1234  0.3608
  104MOL    C3118777   5.573   4.266   0.255 -0.0323  0.2584  0.6602
  104MOL    H3218778   5.748   4.450   0.335 -2.5400 -2.7774 -3.3226
  104MOL    H3318779   5.798   4.303   0.391 -0.4836 -0.3648 -0.7747
  104MOL    H3418780   5.536   4.437   0.371  1.9334  0.6854 -0.4981
  104MOL    H3518781   5.636   4.177   0.244 -0.8074 -0.2774  0.4881
  104MOL    H3618782   5.471   4.249   0.222  1.1407 -2.2408 -1.8919
  104MOL    H3718783   5.616   4.315   0.168  0.3932 -1.0971  0.0910
  104MOL    C3818784   5.507   4.254   0.497  0.0394 -0.4318  0.4408
  104MOL    C3918785   5.354   4.250   0.488  0.0966 -0.4320  0.4836
  104MOL    C4018786   5.293   4.141   0.581  0.5116 -0.5699 -0.1676
  104MOL    H4118787   5.542   4.151   0.494 -0.5975 -0.7407  2.6682
  104MOL    H4218788   5.523   4.291   0.599 -0.4351  2.4094 -0.4747
  104MOL    H4318789   5.312   4.232   0.389  0.8585  3.0338 -0.5366
  104MOL    H4418790   5.327   4.044   0.547 -0.3819 -1.1947  0.6882
  104MOL    H4518791   5.311   4.170   0.685  1.1088 -0.2773 -0.3528
  104MOL    H4618792   5.184   4.134   0.572  0.3324 -0.0446  1.4009
  104MOL    C4718793   5.294   4.381   0.526  0.9284 -0.7775  0.0865
  104MOL    C4818794   5.258   4.478   0.406 -0.1651 -0.5301  0.0510
  104MOL    C4918795   5.139   4.437   0.323  0.0959  0.0259  0.3092
  104MOL    H5018796   5.200   4.367   0.579  0.6593  0.7643  0.0622
  104MOL    H5118797   5.363   4.426   0.597 -1.4707  2.5084  0.4689
  104MOL    H5218798   5.337   4.489   0.331 -1.2303 -1.6919 -1.2695
  104MOL    H5318799   5.159   4.347   0.264  3.5746  1.8928 -1.5170
  104MOL    H5418800   5.061   4.427   0.398  0.6959 -0.4233  0.8768
  104MOL    H5518801   5.096   4.513   0.258  0.6748  0.1451  0.0588
  104MOL    C5618802   5.248   4.626   0.461  0.1946 -0.8375  0.3501
  104MOL    C5718803   5.293   4.746   0.375 -0.8000  0.1332 -0.4073
  104MOL    C5818804   5.232   4.872   0.430 -0.8676 -0.7820 -0.9506
  104MOL    H5918805   5.146   4.635   0.497  0.9378 -0.5808  2.4488
  104MOL    H6018806   5.310   4.638   0.550 -0.0014  2.4291  0.1327
  104MOL    H6118807   5.259   4.725   0.273  1.8253 -1.2369 -1.0471
  104MOL    H6218808   5.216   4.951   0.357 -0.1218  0.1945 -0.0715
  104MOL    H6318809   5.135   4.853   0.476  0.2065 -1.5958  1.0551
  104MOL    H6418810   5.287   4.915   0.514  1.3806 -1.3707 -2.0964
  104MOL    C6518811   5.449   4.752   0.370 -0.1110 -0.2039  0.5041
  104MOL    C6618812   5.518   4.867   0.286  0.3495  0.2587  0.8062
  104MOL    C6718813   5.635   4.939   0.358  0.9361 -0.5280 -0.1450
  104MOL    H6818814   5.479   4.757   0.475  1.0256 -1.9837  0.2736
  104MOL    H6918815   5.488   4.657   0.335 -4.3999 -1.6942 -0.4931
  104MOL    H7018816   5.437   4.938   0.272 -0.4376 -0.8909 -0.6074
  104MOL    H7118817   5.718   4.875   0.388 -0.0740 -1.0696  1.5803
  104MOL    H7218818   5.673   5.025   0.302  0.2452  1.7147  2.6613
  104MOL    H7318819   5.597   4.992   0.446  0.6154  0.0233 -0.6129
  104MOL    C7418820   5.556   4.815   0.146 -0.7072  0.5965 -0.2618
  104MOL    C7518821   5.572   4.944   0.051 -0.2216  0.6912 -0.0591
  104MOL    C7618822   5.712   4.966   7.688 -0.8876  0.8756 -0.2361
  104MOL    H7718823   5.650   4.761   0.156 -1.9818 -1.5808  0.1143
  104MOL    H7818824   5.480   4.745   0.112 -1.1630  0.2790  1.4157
  104MOL    H7918825   5.547   5.037   0.102  2.0769  0.8145  0.8984
  104MOL    H8018826   5.725   5.044   7.612  0.1123 -0.0780 -1.0539
  104MOL    H8118827   5.773   4.992   0.078 -0.7744 -0.9305  0.2394
  104MOL    H8218828   5.760   4.878   7.647 -2.9841  0.3331 -1.5994
  104MOL    C8318829   5.477   4.913   7.630 -0.7754 -0.4769 -0.4895
  104MOL    C8418830   5.329   4.946   7.649 -0.2620 -0.0701 -0.9477
  104MOL    C8518831   5.305   5.095   7.687 -0.3824 -0.0822 -0.3269
  104MOL    H8618832   5.503   4.980   7.547  0.5834 -1.3483 -0.7905
  104MOL    H8718833   5.491   4.814   7.587 -2.9959 -1.0456  0.0588
  104MOL    H8818834   5.299   4.894   0.042 -1.6546  3.6037  0.8143
  104MOL    H8918835   5.329   5.161   7.603 -0.5169  0.4945  0.0897
  104MOL    H9018836   5.199   5.108   0.007 -0.1561  1.1718  0.2082
  104MOL    H9118837   5.353   5.115   0.086 -1.4134 -0.9420  0.3743
  104MOL    C9218838   5.265   4.899   7.518  0.8702  0.1639 -0.1633
  104MOL    C9318839   5.109   4.916   7.513 -0.3365 -0.5469  0.1117
  104MOL    C9418840   5.079   4.991   7.378 -1.0024 -0.2940 -0.4148
  104MOL    H9518841   5.316   4.954   7.439  0.4413  0.3901 -0.2829
  104MOL    H9618842   5.299   4.796   7.504  0.0700 -0.0285 -0.6871
  104MOL    H9718843   5.081   4.978   7.598  0.3992  0.4518 -0.3604
  104MOL    H9818844   5.135   4.943   7.298 -0.3444  0.6163 -0.5129
  104MOL    H9918845   4.974   5.006   7.356 -1.1265  0.7044  0.7987
  104MOL   H10018846   5.133   5.086   7.379  2.3108 -2.0318  4.2652
  104MOL   C10118847   5.031   4.788   7.522 -0.5911  0.2311 -0.5219
  104MOL   C10218848   5.054   4.710   7.661  0.3705 -0.3168  0.2540
  104MOL   C10318849   5.021   4.792   0.087 -0.5589 -0.2797 -0.0181
  104MOL   H10418850   4.927   4.821   7.521 -0.8345 -0.5075  0.2605
  104MOL   H10518851   5.048   4.724   7.435  0.5467 -0.8419  0.4780
  104MOL   H10618852   5.161   4.691   7.668  0.7616  0.3908 -2.9188
  104MOL   H10718853   5.076   4.885   0.077 -2.0460  0.6287  0.1004
  104MOL   H10818854   4.913   4.808   0.092 -0.8052 -1.6462 -0.7570
  104MOL   H10918855   5.047   4.736   0.177 -0.2394 -0.9570 -0.5321
  104MOL   C11018856   4.978   4.580   7.653  0.1105  0.1759  0.4720
  104MOL   C11118857   5.026   4.470   7.552 -0.1736  0.2375  0.1619
  104MOL   C11218858   5.178   4.449   7.566 -0.0843  0.9038 -0.0781
  104MOL   H11318859   4.973   4.535   0.055 -0.7339  0.9142  0.7705
  104MOL   H11418860   4.874   4.607   7.633  0.1300  1.4968  2.1158
  104MOL   H11518861   5.018   4.503   7.449  2.4845 -0.2068 -0.2148
  104MOL   H11618862   5.205   4.431   7.670  2.0742  1.2234 -0.5495
  104MOL   H11718863   5.215   4.370   7.501 -0.0708  1.1749 -0.3977
  104MOL   H11818864   5.230   4.541   7.538  0.1102  0.4923 -1.0782
  104MOL   C11918865   4.944   4.339   7.571  0.5268 -0.0479  0.1724
  104MOL   C12018866   4.802   4.343   7.499  0.1481 -0.3239  0.7990
  104MOL   C12118867   4.814   4.376   7.348  1.0129  0.9387 -0.5072
  104MOL   H12218868   5.002   4.258   7.528 -0.0612 -0.0987 -0.5336
  104MOL   H12318869   4.935   4.310   7.675  1.3706 -0.6251  0.0882
  104MOL   H12418870   4.749   4.422   7.552  1.4478  2.0587 -1.3287
  104MOL   H12518871   4.879   4.308   7.293  0.4020  0.5871 -0.8067
  104MOL   H12618872   4.717   4.370   7.297  0.9338  1.9993 -0.4908
  104MOL   H12718873   4.843   4.479   7.333  3.1871  0.6219  1.3719
  104MOL   C12818874   4.731   4.206   7.525  0.8051 -0.0196 -0.8040
  104MOL   C12918875   4.670   4.178   7.666 -0.2027  0.0365 -0.0504
  104MOL   C13018876   4.560   4.276   0.006 -1.2637  0.5261 -0.8915
  104MOL   H13118877   4.654   4.192   7.449  0.3606  1.9322 -0.7417
  104MOL   H13218878   4.805   4.130   7.497 -0.3984 -0.6816 -2.2718
  104MOL   H13318879   4.756   4.195   0.033 -1.6482  1.2421  1.6047
  104MOL   H13418880   4.475   4.271   7.635 -1.0514 -0.3876 -1.1014
  104MOL   H13518881   4.514   4.250   0.101  1.6815 -0.7205  0.2535
  104MOL   H13618882   4.594   4.379   0.015  1.4142 -0.1890 -2.2305
  104MOL   C13718883   4.618   4.033   7.687  0.6276  0.2904 -0.1278
  104MOL   C13818884   4.711   3.912   7.686  0.0862 -0.5634 -0.0991
  104MOL   C13918885   4.765   3.877   7.544  0.1879  0.2808  0.3866
  104MOL   H14018886   4.561   4.039   0.083 -0.3542  4.4058 -0.8960
  104MOL   H14118887   4.531   4.019   7.623  0.1374 -0.5831  0.7037
  104MOL   H14218888   4.652   3.825   0.017  0.2424 -0.6361  0.0073
  104MOL   H14318889   4.862   3.921   7.522 -0.1794  1.6167  1.3401
  104MOL   H14418890   4.779   3.769   7.535  0.5056  0.2610  1.0445
  104MOL   H14518891   4.700   3.901   7.460  0.4018 -3.0064 -0.7783
  104MOL   C14618892   4.833   3.906   0.088 -0.0780  0.1158 -0.3256
  104MOL   C14718893   4.839   3.790   0.192  0.2599  0.0784  0.4043
  104MOL   C14818894   4.842   3.653   0.123 -0.2457 -0.0280  0.7268
  104MOL   H14918895   4.923   3.913   0.028 -0.4752  1.8391 -0.7506
  104MOL   H15018896   4.840   3.997   0.148  1.4934  0.2526 -0.6993
  104MOL   H15118897   4.745   3.798   0.248 -1.2758  0.1858 -2.0941
  104MOL   H15218898   4.752   3.632   0.065  0.5164  2.6098 -1.5299
  104MOL   H15318899   4.927   3.626   0.060  0.0571 -0.3157  1.2517
  104MOL   H15418900   4.825   3.579   0.201 -1.6738  1.4251  1.8404
  104MOL   C15518901   4.960   3.797   0.282  1.1290 -0.4348  0.5887
  104MOL   C15618902   4.959   3.712   0.408 -0.8733  0.6254 -0.0321
  104MOL   C15718903   5.095   3.714   0.472  0.0654  0.4263  0.0735
  104MOL   H15818904   5.045   3.775   0.217 -2.2216 -2.9609 -3.1612
  104MOL   H15918905   4.969   3.902   0.310 -2.5634  0.0986  0.0625
  104MOL   H16018906   4.953   3.608   0.375  0.3966  0.7821 -0.7820
  104MOL   H16118907   5.116   3.626   0.532  0.1765  0.4566  0.0791
  104MOL   H16218908   5.179   3.716   0.402 -2.2679  0.7594 -2.8138
  104MOL   H16318909   5.099   3.797   0.542  0.2845 -0.5936  1.2853
  104MOL   C16418910   4.836   3.753   0.496 -0.3506 -0.1122  0.1522
  104MOL   C16518911   4.828   3.681   0.631 -0.0147 -0.0995  0.4046
  104MOL   C16618912   4.719   3.749   0.718  1.2077  0.5698  0.0633
  104MOL   H16718913   4.830   3.862   0.507  2.2680  0.2267 -1.3128
  104MOL   H16818914   4.741   3.732   0.447 -0.2479  2.0038 -1.0236
  104MOL   H16918915   4.921   3.714   0.678  0.2957 -0.1417 -0.1737
  104MOL   H17018916   4.705   3.707   0.818 -0.1846 -1.2920 -0.8940
  104MOL   H17118917   4.742   3.856   0.721 -3.9888  1.9235 -1.9013
  104MOL   H17218918   4.622   3.740   0.668 -0.1393  0.5748  2.5922
  104MOL   C17318919   4.829   3.527   0.637  0.3775  0.1464  0.0698
  104MOL   C17418920   4.696   3.461   0.593  0.2741 -0.0185  0.4548
  104MOL   C17518921   4.708   3.308   0.591  0.3203 -0.3905 -0.2067
  104MOL   H17618922   4.909   3.481   0.578  2.6849  1.7405  1.8965
  104MOL   H17718923   4.853   3.492   0.738  1.1606 -1.8382 -0.7674
  104MOL   H17818924   4.658   3.503   0.500 -0.4099 -2.0902 -0.2370
  104MOL   H17918925   4.728   3.277   0.694 -0.6190  0.7316  0.3233
  104MOL   H18018926   4.616   3.255   0.565 -0.2018  0.6403 -0.4780
  104MOL   H18118927   4.785   3.270   0.524  1.3071  0.4069  0.4486
  104MOL   H18218928   4.614   3.488   0.659  0.6676  0.4595  0.7518
  105MOL     C118929   6.031   5.188   3.888 -0.7487  0.8824  0.9180
  105MOL     C218930   6.172   5.219   3.823  0.0084 -0.1430  0.1512
  105MOL     C318931   6.176   5.296   3.694  0.4367  0.3001 -0.0140
  105MOL     H418932   5.970   5.150   3.806  0.2190  2.6227 -0.6593
  105MOL     H518933   5.984   5.283   3.914 -3.0457  0.8412 -2.7452
  105MOL     H618934   6.226   5.126   3.804 -1.4007 -0.4021 -2.7027
  105MOL     H718935   6.083   5.353   3.688 -1.3226 -2.4142  0.7381
  105MOL     H818936   6.255   5.363   3.659 -1.1952  2.3786  0.1627
  105MOL     H918937   6.163   5.221   3.617  2.1485  0.9486 -0.9618
  105MOL    H1018938   6.031   5.114   3.968  1.8252 -1.4681 -1.1285
  105MOL    C1118939   6.260   5.304   3.920  0.1145 -0.2508 -0.3626
  105MOL    C1218940   6.312   5.237   4.044  0.9945  0.1777 -0.4244
  105MOL    C1318941   6.367   5.099   4.009 -0.9746 -0.0314  0.2926
  105MOL    H1418942   6.353   5.342   3.877 -0.0330 -2.2812 -2.5131
  105MOL    H1518943   6.210   5.395   3.954 -1.4039 -1.3254  0.3390
  105MOL    H1618944   6.228   5.221   4.112  1.0273 -0.5001 -0.5400
  105MOL    H1718945   6.421   5.101   3.914  0.7091 -0.1561  1.2453
  105MOL    H1818946   6.436   5.060   4.083 -0.8564 -0.9206 -0.2720
  105MOL    H1918947   6.296   5.017   3.992 -0.1618 -0.6483 -0.1807
  105MOL    C2018948   6.418   5.321   4.117  0.1688  0.4401 -0.0652
  105MOL    C2118949   6.425   5.298   4.264  0.1615 -0.7794  0.1493
  105MOL    C2218950   6.575   5.262   4.305 -0.1317  0.2728  0.4517
  105MOL    H2318951   6.516   5.318   4.069 -0.1183  2.8024 -0.8761
  105MOL    H2418952   6.395   5.425   4.095  1.1510  0.8785  0.9194
  105MOL    H2518953   6.371   5.204   4.279 -0.7540 -0.1127  1.0247
  105MOL    H2618954   6.579   5.242   4.412  0.6912  0.2935  0.4236
  105MOL    H2718955   6.602   5.169   4.256 -0.9068  0.3954 -0.2384
  105MOL    H2818956   6.643   5.347   4.293  0.6651 -0.2670  1.1083
  105MOL    C2918957   6.374   5.411   4.350  0.4694 -0.5712  0.9286
  105MOL    C3018958   6.232   5.440   4.323 -0.3082 -0.0827 -0.0062
  105MOL    C3118959   6.126   5.367   4.411 -0.1850  0.2758 -0.2147
  105MOL    H3218960   6.379   5.380   4.454  0.7558 -0.7717  0.8541
  105MOL    H3318961   6.453   5.487   4.353  0.0782 -0.1047 -0.3351
  105MOL    H3418962   6.202   5.409   4.223  0.2569  0.1523 -0.2544
  105MOL    H3518963   6.152   5.372   4.516  1.5718  1.3891 -0.6863
  105MOL    H3618964   6.025   5.404   4.390 -0.7932  1.0107  3.6464
  105MOL    H3718965   6.135   5.260   4.392 -0.8365  0.2605 -0.4726
  105MOL    C3818966   6.204   5.592   4.347  0.0180 -0.3137 -0.0006
  105MOL    C3918967   6.243   5.690   4.232  0.5966 -0.1846  0.3158
  105MOL    C4018968   6.122   5.713   4.142 -0.0520  0.0413 -0.4926
  105MOL    H4118969   6.099   5.613   4.369  1.0929  4.2010  1.3444
  105MOL    H4218970   6.257   5.622   4.437 -1.2877  1.2330  0.2804
  105MOL    H4318971   6.324   5.637   4.183  0.2458 -0.7616  0.3592
  105MOL    H4418972   6.087   5.615   4.112  1.0864  0.1628 -2.3153
  105MOL    H4518973   6.044   5.777   4.183  1.2628 -0.7446  3.4320
  105MOL    H4618974   6.150   5.762   4.049 -1.6313 -0.0791 -1.0410
  105MOL    C4718975   6.296   5.827   4.284 -0.1368  0.3210 -0.9843
  105MOL    C4818976   6.431   5.823   4.364  0.5055  0.7719 -0.2362
  105MOL    C4918977   6.555   5.780   4.274  0.1211  0.2115 -0.1116
  105MOL    H5018978   6.309   5.891   4.197  0.8065 -0.5960 -1.5378
  105MOL    H5118979   6.217   5.868   4.346  0.8583 -0.3336  0.7610
  105MOL    H5218980   6.431   5.741   4.435  0.0334  2.2482  1.5080
  105MOL    H5318981   6.650   5.775   4.327  1.1067 -1.2218 -1.9241
  105MOL    H5418982   6.547   5.680   4.231  0.7844  1.0759 -2.3806
  105MOL    H5518983   6.563   5.846   4.187  2.1002  0.1956  0.0247
  105MOL    C5618984   6.468   5.947   4.440  0.2045 -0.0736 -0.4973
  105MOL    C5718985   6.398   5.971   4.577  0.7302 -0.3274 -0.2931
  105MOL    C5818986   6.441   5.861   4.677  0.4512  0.4752  0.0439
  105MOL    H5918987   6.573   5.961   4.462 -0.2603  1.5355  0.7446
  105MOL    H6018988   6.433   6.024   4.371  0.8365 -0.2143 -0.9850
  105MOL    H6118989   6.289   5.974   4.573  0.8005  0.6669 -1.8470
  105MOL    H6218990   6.550   5.852   4.674  0.2136 -2.2319 -2.2020
  105MOL    H6318991   6.406   5.889   4.777  0.1380 -0.9921  0.3508
  105MOL    H6418992   6.392   5.765   4.662  0.1035  0.6341  0.1688
  105MOL    C6518993   6.438   6.112   4.645  0.1655 -0.6837  0.0943
  105MOL    C6618994   6.407   6.233   4.555  0.3924 -0.0291 -0.0300
  105MOL    C6718995   6.261   6.252   4.548 -0.0897 -0.3238 -0.0702
  105MOL    H6818996   6.390   6.121   4.742  0.7538  0.7511  0.2631
  105MOL    H6918997   6.545   6.125   4.665  0.1832 -0.2550 -0.2586
  105MOL    H7018998   6.448   6.217   4.455  2.4497 -1.3762  1.0161
  105MOL    H7118999   6.229   6.337   4.489  2.0879  0.4067 -0.2422
  105MOL    H7219000   6.211   6.163   4.510 -0.9940  0.1284  0.0446
  105MOL    H7319001   6.223   6.278   4.647 -0.6471 -1.5946  0.0581
  105MOL    C7419002   6.478   6.358   4.602 -0.0555  0.3980  0.3344
  105MOL    C7519003   6.468   6.485   4.516 -0.3547  0.5616 -0.7771
  105MOL    C7619004   6.499   6.611   4.602  0.5631 -0.3766  0.0302
  105MOL    H7719005   6.447   6.383   4.703  1.7566  2.5067  0.3982
  105MOL    H7819006   6.584   6.339   4.619 -0.3574 -1.1915  0.5251
  105MOL    H7919007   6.363   6.505   4.495  0.3340  1.2054 -3.9076
  105MOL    H8019008   6.434   6.612   4.689  2.3299 -1.3863  1.3877
  105MOL    H8119009   6.600   6.614   4.644  0.2526  0.7711  0.7031
  105MOL    H8219010   6.478   6.708   4.557 -0.2932 -0.5531  0.0375
  105MOL    C8319011   6.553   6.465   4.392  0.5689  0.5058  0.8946
  105MOL    C8419012   6.510   6.542   4.267 -0.0137 -0.1557 -0.1536
  105MOL    C8519013   6.640   6.559   4.177  0.5813 -0.1711  0.2895
  105MOL    H8619014   6.653   6.490   4.425  0.6970  0.9435  0.1911
  105MOL    H8719015   6.560   6.359   4.367  0.0266  0.1938  2.0211
  105MOL    H8819016   6.477   6.641   4.298  0.1149 -0.2228  0.2031
  105MOL    H8919017   6.712   6.620   4.231 -0.5288  0.8763  0.6097
  105MOL    H9019018   6.688   6.463   4.157 -1.1216 -1.1854  0.9922
  105MOL    H9119019   6.629   6.620   4.087 -0.1846  0.4566  0.8025
  105MOL    C9219020   6.395   6.473   4.192  0.3290 -0.6262  0.2063
  105MOL    C9319021   6.299   6.568   4.109  0.8661 -0.5264 -0.3240
  105MOL    C9419022   6.374   6.653   3.999 -0.4813 -1.1784 -0.1290
  105MOL    H9519023   6.427   6.392   4.127  1.9066 -0.0291  0.2219
  105MOL    H9619024   6.333   6.417   4.263  0.4605 -0.0379  0.7884
  105MOL    H9719025   6.247   6.635   4.178  1.6317  1.5139 -1.6970
  105MOL    H9819026   6.440   6.723   4.050 -2.1385  0.0558  0.3491
  105MOL    H9919027   6.411   6.593   3.916 -1.3504  0.4076 -1.6834
  105MOL   H10019028   6.305   6.721   3.950 -0.7383  0.4300  2.3911
  105MOL   C10119029   6.168   6.497   4.047 -0.7561  0.1399  0.1957
  105MOL   C10219030   6.054   6.437   4.139 -0.7667 -0.1343  0.3554
  105MOL   C10319031   5.981   6.552   4.208 -0.3233 -0.0777  0.1637
  105MOL   H10419032   6.137   6.565   3.968 -0.5222 -0.0660 -0.0768
  105MOL   H10519033   6.212   6.416   3.989 -0.1990  0.5641  0.0112
  105MOL   H10619034   6.114   6.393   4.219  2.5816  1.3025 -1.2479
  105MOL   H10719035   6.048   6.599   4.281 -0.6870 -1.4068  1.3968
  105MOL   H10819036   5.945   6.619   4.131  0.8244 -0.4368 -0.7026
  105MOL   H10919037   5.897   6.516   4.268  0.4814  1.0115  1.9920
  105MOL   C11019038   5.955   6.340   4.067  0.1729 -0.0356  0.4208
  105MOL   C11119039   6.014   6.203   4.019  0.8368 -0.5751  0.1228
  105MOL   C11219040   6.101   6.151   4.132  0.6992  0.2734 -0.1927
  105MOL   H11319041   5.872   6.322   4.135 -0.0450  0.5483  0.3130
  105MOL   H11419042   5.902   6.389   3.985 -0.0804  0.6351  0.9793
  105MOL   H11519043   6.073   6.237   3.934 -0.2843  1.8420  0.2669
  105MOL   H11619044   6.112   6.043   4.121  0.6650 -0.0627  2.5854
  105MOL   H11719045   6.199   6.195   4.145  0.5039  1.1654 -1.6392
  105MOL   H11819046   6.053   6.150   4.230 -2.2016  1.4369 -1.5138
  105MOL   C11919047   5.903   6.104   3.967 -0.4592  0.3113  0.2999
  105MOL   C12019048   5.871   6.141   3.825 -0.0803 -0.2233  0.0902
  105MOL   C12119049   5.970   6.087   3.721  0.3653 -1.2116  0.4070
  105MOL   H12219050   5.932   6.000   3.982 -1.4988  0.0472  0.5612
  105MOL   H12319051   5.815   6.117   4.030 -0.0135  1.3247  0.7152
  105MOL   H12419052   5.871   6.249   3.815 -0.9484 -0.0681  1.5299
  105MOL   H12519053   6.059   6.149   3.739 -1.4581  1.4173  0.6622
  105MOL   H12619054   5.988   5.980   3.733  0.4408 -1.2677 -0.2069
  105MOL   H12719055   5.948   6.108   3.617 -0.9288 -1.4982  0.6143
  105MOL   C12819056   5.719   6.095   3.795  0.4475 -0.0716  0.0854
  105MOL   C12919057   5.646   6.171   3.677 -0.2177  0.4444 -0.1318
  105MOL   C13019058   5.519   6.090   3.630 -0.4550 -0.2406  0.8221
  105MOL   H13119059   5.732   5.990   3.772 -2.1505 -0.5178  0.5358
  105MOL   H13219060   5.663   6.107   3.888  1.1030 -1.5595  0.6861
  105MOL   H13319061   5.716   6.185   3.594  0.4953 -0.2762  0.3434
  105MOL   H13419062   5.442   6.091   3.708 -0.7439  3.2931  0.5506
  105MOL   H13519063   5.470   6.134   3.543  3.4752  0.6397 -1.0211
  105MOL   H13619064   5.536   5.984   3.611 -0.4029  0.0428 -0.7369
  105MOL   C13719065   5.609   6.323   3.719 -0.2440 -0.1379  0.0321
  105MOL   C13819066   5.538   6.400   3.603  0.3658  0.3883 -0.4696
  105MOL   C13919067   5.526   6.549   3.649 -0.8950 -0.3550  0.1223
  105MOL   H14019068   5.535   6.323   3.800 -1.0546 -0.8205 -0.6964
  105MOL   H14119069   5.686   6.381   3.768 -1.5038  1.8358 -0.2751
  105MOL   H14219070   5.438   6.359   3.591  0.4102  0.3543 -0.7079
  105MOL   H14319071   5.614   6.610   3.632 -0.6030 -1.1583 -1.3609
  105MOL   H14419072   5.447   6.606   3.600  1.6042  0.0929 -3.5660
  105MOL   H14519073   5.516   6.559   3.757 -0.9952 -1.4812  0.2271
  105MOL   C14619074   5.609   6.389   3.461 -0.0932 -0.6987 -0.3534
  105MOL   C14719075   5.555   6.492   3.352 -0.6939  0.1277  1.0362
  105MOL   C14819076   5.642   6.501   3.223 -0.4353 -0.8296 -0.6191
  105MOL   H14919077   5.715   6.406   3.481 -0.9690  0.9451  3.1265
  105MOL   H15019078   5.623   6.286   3.428  2.2596  0.5092 -3.3331
  105MOL   H15119079   5.563   6.589   3.403 -0.9277 -0.7699  2.8272
  105MOL   H15219080   5.744   6.514   3.261 -0.3422  1.3152 -1.5285
  105MOL   H15319081   5.626   6.425   3.147 -3.3904 -0.1363 -0.7193
  105MOL   H15419082   5.640   6.590   3.160 -1.2557 -0.8314 -0.5972
  105MOL   C15519083   5.405   6.482   3.315  0.3393 -0.3373 -0.0737
  105MOL   C15619084   5.344   6.604   3.241 -0.1586  0.5163 -0.7840
  105MOL   C15719085   5.206   6.574   3.164 -0.0260  0.4576  0.1733
  105MOL   H15819086   5.398   6.390   3.258 -0.3162  0.3690 -1.1406
  105MOL   H15919087   5.342   6.462   3.401  1.4335 -1.0403  0.5702
  105MOL   H16019088   5.420   6.636   3.170  0.8686 -1.1982 -0.4906
  105MOL   H16119089   5.169   6.666   3.117 -1.9347 -0.7076 -0.7086
  105MOL   H16219090   5.212   6.489   3.096  1.0892  0.1637  0.6434
  105MOL   H16319091   5.128   6.536   3.230 -0.0214  1.2254  0.6308
  105MOL   C16419092   5.320   6.711   3.352 -0.4906  0.0480 -0.1295
  105MOL   C16519093   5.269   6.847   3.307  0.3476 -0.4031 -0.5036
  105MOL   C16619094   5.278   6.943   3.424  0.0216 -0.0324 -0.4507
  105MOL   H16719095   5.248   6.670   3.423  1.1735  0.3794  1.8091
  105MOL   H16819096   5.412   6.736   3.405 -0.4741 -0.9116  0.3213
  105MOL   H16919097   5.162   6.845   3.283 -0.2659 -0.2796  2.0532
  105MOL   H17019098   5.221   7.035   3.408 -1.1274 -0.5942  0.3255
  105MOL   H17119099   5.242   6.887   3.510 -0.7095 -0.1316 -0.8206
  105MOL   H17219100   5.378   6.970   3.459  1.3314 -2.7901 -1.9237
  105MOL   C17319101   5.348   6.913   3.181  0.5429 -0.2349 -1.0805
  105MOL   C17419102   5.498   6.944   3.196 -0.0769  0.5928 -0.1304
  105MOL   C17519103   5.576   6.948   3.063  0.5732 -0.1390  0.1642
  105MOL   H17619104   5.342   6.849   3.093  2.6147  1.5509 -2.5727
  105MOL   H17719105   5.295   7.005   3.158 -0.6281 -0.6098  0.0191
  105MOL   H17819106   5.529   6.862   3.261 -1.1708 -0.0313 -0.3863
  105MOL   H17919107   5.566   6.853   3.010  0.4704 -0.4727  0.7760
  105MOL   H18019108   5.529   7.021   2.997  1.9613  1.9821  1.4332
  105MOL   H18119109   5.679   6.983   3.074  1.2271 -2.4211  1.6541
  105MOL   H18219110   5.529   7.029   3.258  0.8390  0.8798 -0.9668
  106MOL     C119111   1.626   1.125   0.948  0.4464 -0.2204 -0.5291
  106MOL     C219112   1.499   1.106   1.036  0.7120 -0.1514  0.0087
  106MOL     C319113   1.364   1.117   0.950  0.0127  0.5258 -0.0498
  106MOL     H419114   1.642   1.230   0.920 -0.8685 -0.3888 -1.9740
  106MOL     H519115   1.626   1.072   0.853 -1.4820 -0.6206 -0.3197
  106MOL     H619116   1.498   1.181   1.115  0.6661  0.9814 -1.0464
  106MOL     H719117   1.338   1.223   0.948 -1.2586  0.2239 -0.0668
  106MOL     H819118   1.378   1.085   0.847  1.4838  0.9476 -0.0033
  106MOL     H919119   1.271   1.079   0.992  1.1186 -0.9011  1.1410
  106MOL    H1019120   1.721   1.099   0.995 -0.3249  0.0820  1.2427
  106MOL    C1119121   1.500   0.965   1.101  0.9883 -0.0368  0.0543
  106MOL    C1219122   1.619   0.920   1.188  0.0236 -0.0070  0.4899
  106MOL    C1319123   1.633   1.025   1.303  0.3980  0.4804 -0.5728
  106MOL    H1419124   1.410   0.951   1.161  0.0689  1.0638 -1.0403
  106MOL    H1519125   1.483   0.899   1.016 -2.3013 -0.6036  1.0638
  106MOL    H1619126   1.707   0.921   1.124  1.7720  1.9673  2.8292
  106MOL    H1719127   1.644   1.125   1.261 -0.3076  1.5364  1.6223
  106MOL    H1819128   1.543   1.027   1.366  1.5093 -1.7125  1.1737
  106MOL    H1919129   1.719   1.007   1.367  0.5876  1.7517 -0.4575
  106MOL    C2019130   1.622   0.771   1.233 -0.1450 -0.3727  0.0855
  106MOL    C2119131   1.754   0.728   1.309 -0.7989 -0.1112 -0.1743
  106MOL    C2219132   1.714   0.601   1.399 -0.4761 -0.2795  0.1163
  106MOL    H2319133   1.547   0.756   1.311 -2.9922 -0.0941 -2.5282
  106MOL    H2419134   1.596   0.706   1.150 -3.9196  1.3359 -0.1533
  106MOL    H2519135   1.783   0.802   1.383  0.9750 -0.5152 -0.4461
  106MOL    H2619136   1.673   0.530   1.327 -2.4912  1.7677 -0.8415
  106MOL    H2719137   1.793   0.543   1.446 -1.9849 -2.4519  0.0248
  106MOL    H2819138   1.628   0.608   1.466 -0.5655  1.6497 -0.1484
  106MOL    C2919139   1.878   0.706   1.210 -0.5321 -0.0973 -0.3651
  106MOL    C3019140   2.007   0.776   1.247 -0.0256  0.6833 -0.1279
  106MOL    C3119141   2.058   0.706   1.373  0.1662  0.2993  0.0169
  106MOL    H3219142   1.898   0.600   1.191  1.2318  0.3693 -1.1912
  106MOL    H3319143   1.845   0.755   1.119 -0.5892  0.4196 -0.0693
  106MOL    H3419144   1.998   0.882   1.269 -1.0178  0.4426  0.6566
  106MOL    H3519145   2.078   0.600   1.361 -1.0006 -0.1231  1.5594
  106MOL    H3619146   2.155   0.746   1.403 -0.5870  0.6010  2.2101
  106MOL    H3719147   1.988   0.723   1.456 -0.0524 -2.0811  0.3413
  106MOL    C3819148   2.110   0.750   1.133 -0.4784 -0.3990 -0.1005
  106MOL    C3919149   2.081   0.836   1.003 -1.1167  0.2987 -0.1803
  106MOL    C4019150   2.054   0.985   1.039  0.3933  0.0287 -0.2312
  106MOL    H4119151   2.213   0.776   1.158 -0.4019  0.7665 -1.5735
  106MOL    H4219152   2.113   0.644   1.110  2.1254  0.2049 -2.8510
  106MOL    H4319153   1.989   0.811   0.949 -0.2168 -0.9548 -1.1686
  106MOL    H4419154   1.971   0.997   1.108  1.2458  1.1974  0.6211
  106MOL    H4519155   2.140   1.030   1.091  0.3869  0.9059 -0.9640
  106MOL    H4619156   2.014   1.042   0.955  1.7022 -0.4096 -1.1770
  106MOL    C4719157   2.192   0.828   0.905  0.8563  0.5546  0.4788
  106MOL    C4819158   2.208   0.697   0.832 -0.2965 -0.3018  0.1382
  106MOL    C4919159   2.129   0.696   0.697  0.5395  0.1084 -0.0565
  106MOL    H5019160   2.186   0.919   0.844 -0.5081 -0.0837 -0.3571
  106MOL    H5119161   2.278   0.851   0.968  1.3078  0.8590 -0.2319
  106MOL    H5219162   2.162   0.622   0.897 -1.9028  0.9175  0.4453
  106MOL    H5319163   2.026   0.728   0.711  0.1904  0.0474 -2.2911
  106MOL    H5419164   2.169   0.753   0.613 -1.3986  1.3000 -0.2044
  106MOL    H5519165   2.119   0.596   0.655 -1.2102 -0.2120  1.0864
  106MOL    C5619166   2.355   0.668   0.805 -0.8358  0.6646  0.0530
  106MOL    C5719167   2.401   0.523   0.838  0.0861  0.8428  0.0891
  106MOL    C5819168   2.547   0.502   0.796  0.4696 -0.4308  0.2829
  106MOL    H5919169   2.392   0.696   0.706  1.5512  0.5798  0.8730
  106MOL    H6019170   2.420   0.738   0.857 -1.0938  0.3344  0.8262
  106MOL    H6119171   2.342   0.456   0.777 -0.5383  1.4090  0.0702
  106MOL    H6219172   2.583   0.400   0.803  2.4531  0.0873 -1.6386
  106MOL    H6319173   2.567   0.531   0.693  0.2306 -2.8236 -0.4529
  106MOL    H6419174   2.619   0.557   0.858  0.3281 -1.4621  1.3861
  106MOL    C6519175   2.386   0.496   0.988  0.1287  0.3243  0.3723
  106MOL    C6619176   2.304   0.376   1.043  0.0620  0.9153 -0.4167
  106MOL    C6719177   2.377   0.249   0.995 -0.3057 -0.8541  0.0818
  106MOL    H6819178   2.486   0.494   1.030  1.5298  1.6325 -2.7831
  106MOL    H6919179   2.355   0.588   1.039 -0.3405 -0.0706  0.8132
  106MOL    H7019180   2.203   0.376   1.002  0.4244 -0.2445 -1.3390
  106MOL    H7119181   2.407   0.261   0.890  1.1853 -0.2071  0.5675
  106MOL    H7219182   2.464   0.233   1.058 -0.8311 -0.0657  1.0142
  106MOL    H7319183   2.318   0.158   1.008  0.6201 -1.2146  1.8738
  106MOL    C7419184   2.297   0.372   1.199 -0.7643  0.5812  0.1091
  106MOL    C7519185   2.212   0.263   1.272 -0.2421 -0.1805 -0.5994
  106MOL    C7619186   2.258   0.256   1.425 -0.4996 -0.7216  0.4325
  106MOL    H7719187   2.400   0.367   1.234 -0.7049 -1.2656 -0.2522
  106MOL    H7819188   2.265   0.470   1.233  0.8373  1.0490  0.3172
  106MOL    H7919189   2.248   0.170   1.227 -0.6018 -0.4240 -0.3925
  106MOL    H8019190   2.245   0.351   1.477  3.2719  0.1619 -0.1249
  106MOL    H8119191   2.195   0.190   1.485 -2.2893  3.3442  3.2251
  106MOL    H8219192   2.361   0.223   1.437 -1.2125 -2.3984  2.1032
  106MOL    C8319193   2.059   0.290   1.244 -0.6325  0.1249 -0.3535
  106MOL    C8419194   1.955   0.198   1.317  0.9838 -0.1012  0.2139
  106MOL    C8519195   1.807   0.220   1.273 -0.2156 -1.0811 -0.1112
  106MOL    H8619196   2.021   0.390   1.265  0.8628  0.6158  0.1018
  106MOL    H8719197   2.046   0.287   1.136 -0.3904  1.5117 -0.4395
  106MOL    H8819198   1.966   0.228   1.421  0.9471 -3.1132  1.1414
  106MOL    H8919199   1.732   0.185   1.344  0.5064  0.3951  1.4138
  106MOL    H9019200   1.785   0.325   1.250  0.1999 -1.3829 -1.9294
  106MOL    H9119201   1.783   0.187   1.172  0.6600  0.6348 -0.9020
  106MOL    C9219202   1.987   0.046   1.306  0.1767  0.5354 -0.0455
  106MOL    C9319203   1.892   7.647   1.384 -0.0633 -0.0353 -0.2288
  106MOL    C9419204   1.926   7.510   1.331  0.0423 -0.0032  0.3791
  106MOL    H9519205   1.977   0.025   1.200 -1.8881 -0.4308  0.3124
  106MOL    H9619206   2.093   0.023   1.318 -0.2752 -1.8493 -0.3736
  106MOL    H9719207   1.786   7.669   1.368 -0.9411 -1.0239  3.7051
  106MOL    H9819208   2.021   7.476   1.372 -0.7551 -0.4402  1.8888
  106MOL    H9919209   1.849   7.439   1.361  0.8228  0.1665  2.8704
  106MOL   H10019210   1.930   7.503   1.222 -2.0247  0.1537  0.2810
  106MOL   C10119211   1.905   7.666   1.543 -0.5224  0.0961  1.1917
  106MOL   C10219212   1.762   7.693   1.609  0.0558  0.3332  0.3200
  106MOL   C10319213   1.697   7.562   1.656  0.3909 -0.7614  0.2141
  106MOL   H10419214   1.956   7.579   1.584  1.1323 -0.9470 -2.8164
  106MOL   H10519215   1.976   0.050   1.558  1.0645 -1.0973  0.3412
  106MOL   H10619216   1.691   0.041   1.539  0.4616 -1.2032 -1.1129
  106MOL   H10719217   1.761   7.497   1.715  3.3156  0.3308 -1.6664
  106MOL   H10819218   1.611   7.580   1.721 -1.4277 -1.2215 -2.0105
  106MOL   H10919219   1.646   7.506   1.577 -0.8251 -0.0370  0.4728
  106MOL   C11019220   1.768   0.090   1.735 -0.7815 -0.1474  0.4672
  106MOL   C11119221   1.747   0.241   1.699  0.9705 -0.6524 -0.1430
  106MOL   C11219222   1.599   0.279   1.676  0.7319 -0.2124  0.2635
  106MOL   H11319223   1.685   0.068   1.803 -1.1647  3.3367  1.2132
  106MOL   H11419224   1.853   0.072   1.800  0.8241  2.6826 -0.7596
  106MOL   H11519225   1.786   0.258   1.599 -2.3354  1.4095 -1.1554
  106MOL   H11619226   1.539   0.263   1.766  3.8645 -0.9081  2.3286
  106MOL   H11719227   1.595   0.383   1.644 -0.4251  0.2235  1.7462
  106MOL   H11819228   1.569   0.220   1.589  0.9418  1.8780 -1.2497
  106MOL   C11919229   1.801   0.345   1.800  0.0086 -0.0622 -0.7530
  106MOL   C12019230   1.959   0.351   1.820  0.4680  0.0191  0.1110
  106MOL   C12119231   2.024   0.432   1.709  0.2196 -0.0600  0.2920
  106MOL   H12219232   1.771   0.444   1.766  0.8265  0.2677 -0.5393
  106MOL   H12319233   1.760   0.341   1.901 -2.8286 -0.4620 -1.8696
  106MOL   H12419234   2.002   0.252   1.802 -0.8086 -0.7561  1.1968
  106MOL   H12519235   1.967   0.427   1.616  0.0719  0.3015  0.3616
  106MOL   H12619236   2.029   0.536   1.742  1.1676  0.3776 -1.1866
  106MOL   H12719237   2.125   0.395   1.694 -0.5375 -0.5281 -4.2798
  106MOL   C12819238   2.007   0.398   1.958 -0.1233  0.6552 -0.1658
  106MOL   C12919239   2.156   0.410   1.991 -0.1732 -0.1302 -0.0358
  106MOL   C13019240   2.179   0.488   2.122 -0.3188  0.4656  0.2146
  106MOL   H13119241   1.947   0.488   1.973 -2.7425 -1.0821  0.1559
  106MOL   H13219242   1.962   0.328   2.028 -0.5074 -0.1980 -1.2428
  106MOL   H13319243   2.200   0.469   1.910  1.1258  0.8304  1.3488
  106MOL   H13419244   2.116   0.576   2.116 -0.0870  0.5269 -1.3713
  106MOL   H13519245   2.154   0.420   2.204 -0.4169  2.5094  1.9071
  106MOL   H13619246   2.285   0.508   2.137  0.0163 -1.2336  0.2438
  106MOL   C13719247   2.228   0.268   1.995  1.0806 -0.3823  0.5805
  106MOL   C13819248   2.383   0.272   2.001 -0.2048  0.5001  0.3540
  106MOL   C13919249   2.432   0.122   2.015 -0.0698 -0.3119 -0.3779
  106MOL   H14019250   2.198   0.207   2.080 -1.1856  0.4527  0.4203
  106MOL   H14119251   2.196   0.212   1.907  1.4950  0.8333 -0.3593
  106MOL   H14219252   2.411   0.325   2.093 -1.6815  0.5705  0.7733
  106MOL   H14319253   2.541   0.121   2.004  0.0268  1.5939  0.2849
  106MOL   H14419254   2.409   0.087   2.115  0.8711 -0.1632 -0.1046
  106MOL   H14519255   2.392   0.044   1.950  0.2245 -0.9262  0.1671
  106MOL   C14619256   2.440   0.334   1.865 -0.2430  0.5501 -0.1435
  106MOL   C14719257   2.478   0.484   1.866 -0.4596  0.1867 -0.0538
  106MOL   C14819258   2.552   0.516   1.999 -0.5320  0.2287 -0.6407
  106MOL   H14919259   2.532   0.279   1.845 -0.2268 -0.0062  1.4021
  106MOL   H15019260   2.363   0.311   1.791 -0.0268  0.1214 -0.2360
  106MOL   H15119261   2.382   0.535   1.867 -0.5534 -0.0001  1.3145
  106MOL   H15219262   2.632   0.443   2.010 -0.5694  0.1058 -1.1806
  106MOL   H15319263   2.593   0.616   1.991 -0.0331  0.0334 -0.5286
  106MOL   H15419264   2.485   0.524   2.085 -0.1431  0.0743 -0.3191
  106MOL   C15519265   2.559   0.527   1.740  0.6321  0.7168 -0.0339
  106MOL   C15619266   2.482   0.497   1.603  0.0548  0.4793  0.3642
  106MOL   C15719267   2.355   0.580   1.603  0.4576 -0.1968 -0.1630
  106MOL   H15819268   2.594   0.629   1.756 -1.0166  1.7221 -2.4196
  106MOL   H15919269   2.653   0.472   1.731 -0.0348 -0.4515 -0.0671
  106MOL   H16019270   2.466   0.389   1.600 -0.9583  0.6492 -0.3089
  106MOL   H16119271   2.277   0.534   1.664  1.9517 -0.8167  1.3035
  106MOL   H16219272   2.381   0.677   1.645  1.5782  0.0755 -1.4418
  106MOL   H16319273   2.310   0.587   1.504  3.6269 -0.5696 -1.6863
  106MOL   C16419274   2.568   0.533   1.480  0.6455  0.1316 -0.2551
  106MOL   C16519275   2.708   0.454   1.469 -0.2229 -0.2878  0.3344
  106MOL   C16619276   2.679   0.301   1.457 -0.1391 -0.3883 -0.3449
  106MOL   H16719277   2.507   0.521   1.390 -1.4556 -1.8759  1.3938
  106MOL   H16819278   2.580   0.641   1.469 -1.2103  0.4177  0.3980
  106MOL   H16919279   2.764   0.462   1.563 -1.3485 -1.4479  1.1225
  106MOL   H17019280   2.616   0.255   1.533  0.4153 -0.4508  0.0786
  106MOL   H17119281   2.620   0.285   1.367 -1.8961  1.6777  0.4066
  106MOL   H17219282   2.773   0.246   1.451 -1.7973 -3.2488 -0.8341
  106MOL   C17319283   2.781   0.512   1.347 -0.6137  0.1872 -0.6887
  106MOL   C17419284   2.932   0.483   1.343 -0.1013 -0.6027  0.6321
  106MOL   C17519285   3.005   0.561   1.231 -0.7280  0.2865 -0.8561
  106MOL   H17619286   2.733   0.481   1.254 -0.4917  4.4022 -2.2506
  106MOL   H17719287   2.759   0.618   1.354  0.9815  0.6648 -2.5534
  106MOL   H17819288   2.945   0.376   1.327  1.2026 -0.0114 -2.7735
  106MOL   H17919289   3.107   0.524   1.227 -0.6432  0.1976  1.4331
  106MOL   H18019290   2.979   0.538   1.127  0.2575 -1.7713 -0.6854
  106MOL   H18119291   2.991   0.669   1.235 -0.8166  0.2786 -0.9555
  106MOL   H18219292   2.981   0.513   1.436 -0.2152 -0.5138  0.6637
  107MOL     C119293   4.535   5.613   3.974  0.1572 -0.3094  0.2656
  107MOL     C219294   4.594   5.579   3.837 -0.2726  0.0023 -0.6685
  107MOL     C319295   4.489   5.603   3.731 -0.1402  0.6441 -0.0724
  107MOL     H419296   4.429   5.592   3.983 -0.1864  1.3984  0.4690
  107MOL     H519297   4.535   5.720   3.997  1.8411 -0.0000 -1.0102
  107MOL     H619298   4.618   5.473   3.847 -0.0377  0.0606 -0.6024
  107MOL     H719299   4.463   5.709   3.737 -0.0730  0.6577 -0.0099
  107MOL     H819300   4.536   5.576   3.636 -0.3564 -1.4956  0.4120
  107MOL     H919301   4.405   5.537   3.756  0.8542  0.0334  1.7454
  107MOL    H1019302   4.582   5.554   4.052  2.6788  0.4214 -0.6465
  107MOL    C1119303   4.721   5.662   3.826 -0.4910  0.4771 -0.3026
  107MOL    C1219304   4.829   5.645   3.940 -0.1275  0.5202 -0.8097
  107MOL    C1319305   4.857   5.494   3.955  0.1372 -0.0942 -0.5492
  107MOL    H1419306   4.779   5.636   3.738 -0.0868  1.3426 -0.2971
  107MOL    H1519307   4.695   5.768   3.828 -0.9362  0.4065 -1.7292
  107MOL    H1619308   4.778   5.678   4.030 -1.5940 -0.9027 -1.1165
  107MOL    H1719309   4.871   5.445   3.859  3.2559  2.2610 -1.3950
  107MOL    H1819310   4.938   5.462   4.020 -0.6718 -0.5378  0.2543
  107MOL    H1919311   4.776   5.439   4.002  1.0821 -1.9107 -1.0323
  107MOL    C2019312   4.955   5.730   3.904  0.1976  0.3628  0.1518
  107MOL    C2119313   5.080   5.708   3.997  0.5596  0.3214 -0.4183
  107MOL    C2219314   5.196   5.781   3.935 -0.1084 -0.2031  0.3403
  107MOL    H2319315   4.993   5.714   3.803 -2.7422 -2.2321 -0.6404
  107MOL    H2419316   4.920   5.833   3.912 -0.5299  0.0980  0.4706
  107MOL    H2519317   5.099   5.601   4.003 -0.7172 -0.0308 -2.3102
  107MOL    H2619318   5.212   5.766   3.828 -2.0188  2.2065 -0.3470
  107MOL    H2719319   5.180   5.889   3.936  3.6821  0.4127  1.0797
  107MOL    H2819320   5.289   5.784   3.991  0.2298  0.7983 -0.2653
  107MOL    C2919321   5.042   5.756   4.137  0.6109  0.2883  0.5302
  107MOL    C3019322   5.158   5.746   4.237 -0.3448 -0.0440  0.4339
  107MOL    C3119323   5.199   5.887   4.284  0.8133  0.4056  0.2384
  107MOL    H3219324   4.997   5.855   4.133  1.3249  0.5707 -0.8587
  107MOL    H3319325   4.970   5.684   4.176  0.5700 -1.1934 -2.1585
  107MOL    H3419326   5.243   5.702   4.184  1.5789  1.1616  2.3988
  107MOL    H3519327   5.118   5.918   4.349  1.0843  1.1718  0.2222
  107MOL    H3619328   5.296   5.891   4.333  0.5504  1.0745  0.7159
  107MOL    H3719329   5.200   5.959   4.202  0.4292  0.2985  0.1408
  107MOL    C3819330   5.130   5.655   4.359 -0.2009  0.1866  0.1485
  107MOL    C3919331   5.131   5.503   4.335  0.6086 -0.6098  0.1974
  107MOL    C4019332   5.262   5.446   4.282  0.1267 -0.1162 -0.4491
  107MOL    H4119333   5.208   5.675   4.433 -0.2285  2.0228 -0.2952
  107MOL    H4219334   5.037   5.695   4.401 -0.3246  1.3024 -1.1695
  107MOL    H4319335   5.057   5.474   4.260 -1.7022 -0.8098  2.4657
  107MOL    H4419336   5.245   5.347   4.241 -1.0005  0.7563 -2.1348
  107MOL    H4519337   5.318   5.496   4.203  0.7189 -2.3292 -1.4587
  107MOL    H4619338   5.328   5.425   4.366 -2.3260 -1.1076  1.2931
  107MOL    C4719339   5.092   5.434   4.468 -0.0293 -0.0653 -0.3068
  107MOL    C4819340   5.071   5.282   4.462 -0.0244 -0.3942 -0.3202
  107MOL    C4919341   5.085   5.219   4.598 -0.0809  0.0591 -0.3876
  107MOL    H5019342   5.174   5.455   4.536  0.1357  0.1903 -0.5810
  107MOL    H5119343   5.004   5.483   4.510  1.7277  3.3393 -0.4316
  107MOL    H5219344   5.157   5.247   4.405  0.3466 -1.3201  0.7941
  107MOL    H5319345   5.112   5.114   4.586 -0.5209 -0.1863  0.6953
  107MOL    H5419346   5.152   5.271   4.667 -0.4327  1.3487 -1.0028
  107MOL    H5519347   4.990   5.244   4.644  0.4220  2.2173 -0.4463
  107MOL    C5619348   4.925   5.253   4.405 -0.4121  0.0780 -0.2996
  107MOL    C5719349   4.910   5.109   4.360 -0.1938 -0.2742  1.1718
  107MOL    C5819350   4.762   5.064   4.340 -0.1181 -0.3782 -0.2151
  107MOL    H5919351   4.847   5.284   4.474  0.2254  1.1068 -0.0294
  107MOL    H6019352   4.914   5.306   4.310 -2.1836  0.9526  0.3620
  107MOL    H6119353   4.940   5.046   4.444  0.3403  0.1556  1.3112
  107MOL    H6219354   4.722   5.124   4.259  0.2267  1.3162  0.8466
  107MOL    H6319355   4.747   4.956   4.326 -1.8650 -0.3566  1.1606
  107MOL    H6419356   4.699   5.087   4.426 -0.8517  1.5133 -1.2260
  107MOL    C6519357   5.007   5.081   4.232  0.3321  0.3884  0.5208
  107MOL    C6619358   5.008   4.937   4.186 -0.2776  0.2066  0.0546
  107MOL    C6719359   5.083   4.926   4.052 -0.3244 -0.1074  0.3070
  107MOL    H6819360   4.983   5.141   4.144  0.2263 -0.3195  0.0674
  107MOL    H6919361   5.108   5.116   4.253 -0.0139  0.4903  2.0782
  107MOL    H7019362   4.907   4.908   4.158 -0.4354  1.4591 -0.7516
  107MOL    H7119363   5.058   5.010   3.987  1.8045 -0.1400 -0.5997
  107MOL    H7219364   5.188   4.922   4.082 -0.3299 -1.1088  0.2358
  107MOL    H7319365   5.060   4.835   3.996 -1.8832 -0.3671  1.3528
  107MOL    C7419366   5.058   4.850   4.297 -0.3996 -0.1912 -0.3432
  107MOL    C7519367   5.083   4.705   4.250 -0.5973 -0.3703  0.4119
  107MOL    C7619368   5.169   4.629   4.355 -0.8139 -0.9376  0.6139
  107MOL    H7719369   5.150   4.894   4.335  0.0568 -2.6688  1.4785
  107MOL    H7819370   4.989   4.855   4.381  1.5802  0.4375  1.2802
  107MOL    H7919371   5.151   4.715   4.165 -0.1902 -2.5856  0.4594
  107MOL    H8019372   5.115   4.591   4.443 -0.6517 -0.6578  0.8318
  107MOL    H8119373   5.213   4.535   4.321  0.0511  0.1712 -1.4303
  107MOL    H8219374   5.252   4.683   4.400 -2.1456  0.4751  1.4329
  107MOL    C8319375   4.960   4.626   4.196  0.4778  0.1239 -0.0457
  107MOL    C8419376   4.989   4.492   4.132  0.3866  0.9118  0.5161
  107MOL    C8519377   4.853   4.413   4.105 -0.1932 -0.0959 -0.0419
  107MOL    H8619378   4.900   4.606   4.285  0.8910 -0.3492  0.1262
  107MOL    H8719379   4.895   4.687   4.134  0.4122  1.0946  0.9519
  107MOL    H8819380   5.056   4.435   4.196 -0.9099  0.5987  1.6146
  107MOL    H8919381   4.803   4.376   4.194 -2.3351  2.4901 -0.0952
  107MOL    H9019382   4.780   4.451   4.033  0.2501 -0.1740 -0.5363
  107MOL    H9119383   4.871   4.316   4.058 -0.8797 -0.7472  1.0390
  107MOL    C9219384   5.057   4.507   3.986  0.0773  0.6106  0.0717
  107MOL    C9319385   5.187   4.418   3.982  0.3578 -0.3113 -0.1556
  107MOL    C9419386   5.157   4.264   3.999 -0.3992 -0.3058  0.5585
  107MOL    H9519387   4.986   4.490   3.906  0.4337 -0.7673  0.0391
  107MOL    H9619388   5.089   4.610   3.973 -0.8052  0.8554 -0.2074
  107MOL    H9719389   5.253   4.452   4.062 -2.9535  0.8905  2.2069
  107MOL    H9819390   5.199   4.215   3.912 -0.2234  1.3610 -0.3190
  107MOL    H9919391   5.182   4.214   4.093 -1.9144  0.4256  1.3793
  107MOL   H10019392   5.049   4.249   3.995 -0.5183  0.6546 -0.0616
  107MOL   C10119393   5.262   4.446   3.849  0.2468 -0.9783 -0.3531
  107MOL   C10219394   5.317   4.592   3.832 -0.3771  0.1385 -0.9258
  107MOL   C10319395   5.414   4.625   3.950 -0.2908  0.6514  0.2489
  107MOL   H10419396   5.349   4.381   3.840  0.7218 -0.3244 -0.5180
  107MOL   H10519397   5.195   4.427   3.765 -1.5943 -1.3507  1.1511
  107MOL   H10619398   5.232   4.659   3.845 -0.0933  0.1323  1.1144
  107MOL   H10719399   5.463   4.530   3.970 -1.0778 -0.2140 -1.7890
  107MOL   H10819400   5.475   4.714   3.937 -0.7492  0.8244 -0.7584
  107MOL   H10919401   5.352   4.644   4.038 -0.1387 -1.7029  0.9038
  107MOL   C11019402   5.381   4.616   3.692  0.7687  0.3673  0.1021
  107MOL   C11119403   5.382   4.761   3.644 -0.6474  0.2534 -0.1376
  107MOL   C11219404   5.497   4.768   3.534 -0.3019  0.6775  0.3201
  107MOL   H11319405   5.473   4.562   3.671  1.9244  2.9364 -1.6477
  107MOL   H11419406   5.328   4.571   3.608 -0.8185  1.1892  0.6247
  107MOL   H11519407   5.421   4.832   3.716 -0.9588 -1.0136  1.3127
  107MOL   H11619408   5.590   4.737   3.581 -2.3407 -0.9648  3.4490
  107MOL   H11719409   5.487   4.706   3.445 -1.0224  0.5099  0.5118
  107MOL   H11819410   5.507   4.871   3.501 -1.2527  0.4376 -0.7658
  107MOL   C11919411   5.243   4.823   3.585  0.6752 -0.0417  0.4451
  107MOL   C12019412   5.238   4.984   3.576 -0.0538 -0.1447 -0.3707
  107MOL   C12119413   5.117   5.037   3.499 -0.2181  0.3631 -0.5489
  107MOL   H12219414   5.227   4.784   3.484  0.3006  0.0503  0.4690
  107MOL   H12319415   5.158   4.783   3.640  3.8688 -3.7465  2.9830
  107MOL   H12419416   5.332   5.008   3.527 -0.1251 -0.0272 -0.4502
  107MOL   H12519417   5.018   5.032   3.546  0.8596 -1.3941  1.6396
  107MOL   H12619418   5.138   5.143   3.483  2.2796 -0.2582 -1.6591
  107MOL   H12719419   5.101   4.989   3.403  1.7216  1.4316 -1.4312
  107MOL   C12819420   5.231   5.050   3.713 -0.0216 -0.4294  0.4568
  107MOL   C12919421   5.273   5.203   3.729 -0.8453 -0.4235  0.2599
  107MOL   C13019422   5.165   5.279   3.798 -0.2672  0.1980 -0.2458
  107MOL   H13119423   5.125   5.044   3.735 -0.2525 -0.3354 -0.6016
  107MOL   H13219424   5.273   4.989   3.793 -1.5758 -2.6932 -0.4057
  107MOL   H13319425   5.276   5.252   3.632 -1.0841 -0.3137  0.3077
  107MOL   H13419426   5.163   5.251   3.903  0.4754 -1.7491 -0.7134
  107MOL   H13519427   5.182   5.386   3.789 -1.5123  0.4046 -0.2083
  107MOL   H13619428   5.070   5.257   3.750  0.0283  2.0165 -1.7211
  107MOL   C13719429   5.410   5.221   3.807  0.7741 -0.0958  0.4895
  107MOL   C13819430   5.526   5.164   3.727 -0.0356 -0.4393 -0.0327
  107MOL   C13919431   5.572   5.262   3.619  0.7516 -0.2719  0.0309
  107MOL   H14019432   5.427   5.329   3.816  0.1210 -0.1309  2.4002
  107MOL   H14119433   5.404   5.176   3.907  2.0719  0.2479  0.7416
  107MOL   H14219434   5.497   5.073   3.674  0.6137 -0.5883 -0.1343
  107MOL   H14319435   5.479   5.308   3.583  1.6875  1.1669 -0.5684
  107MOL   H14419436   5.630   5.344   3.661  2.0823 -0.4969 -1.3346
  107MOL   H14519437   5.631   5.229   3.534  1.6242  1.7621 -0.1721
  107MOL   C14619438   5.634   5.134   3.830 -0.2113 -0.3172  0.0034
  107MOL   C14719439   5.628   4.999   3.912 -0.3374  0.0043  1.2221
  107MOL   C14819440   5.700   4.887   3.829 -0.1701 -0.0103 -0.1431
  107MOL   H14919441   5.726   5.134   3.771  0.0805  3.9268  0.2571
  107MOL   H15019442   5.632   5.215   3.902  0.8713 -0.3504  0.0743
  107MOL   H15119443   5.526   4.961   3.922 -1.1636  1.7416 -0.0730
  107MOL   H15219444   5.699   4.799   3.892 -2.0908 -0.9515 -1.4209
  107MOL   H15319445   5.646   4.869   3.735 -2.2862  1.7341  0.7021
  107MOL   H15419446   5.801   4.920   3.805 -1.2345  1.6898 -2.5272
  107MOL   C15519447   5.691   4.999   4.049 -0.0111 -0.6291 -0.2337
  107MOL   C15619448   5.610   5.070   4.162  0.2659  0.7529 -0.6340
  107MOL   C15719449   5.482   4.996   4.200 -0.2568 -0.1511  0.4103
  107MOL   H15819450   5.731   4.902   4.079  0.6068  0.3119  2.0856
  107MOL   H15919451   5.773   5.066   4.028  0.6957 -1.3083  0.3038
  107MOL   H16019452   5.575   5.163   4.118 -0.9944 -0.3555 -2.0779
  107MOL   H16119453   5.433   4.949   4.115 -2.9884  1.8956  0.7613
  107MOL   H16219454   5.488   4.919   4.277 -3.9698 -1.0712 -0.1308
  107MOL   H16319455   5.409   5.066   4.242  1.8733  2.6942 -0.4633
  107MOL   C16419456   5.695   5.099   4.286 -0.4046 -0.1718 -0.2228
  107MOL   C16519457   5.644   5.199   4.393 -0.3438 -0.2371  0.2847
  107MOL   C16619458   5.710   5.177   4.527  0.5428  0.6999 -0.1593
  107MOL   H16719459   5.723   5.002   4.328  0.2179  0.1895  0.2075
  107MOL   H16819460   5.795   5.135   4.264 -0.0717 -0.3229  0.9902
  107MOL   H16919461   5.536   5.184   4.400 -0.3915 -1.3494 -2.1649
  107MOL   H17019462   5.717   5.069   4.539  0.3211  0.7115  0.0806
  107MOL   H17119463   5.815   5.206   4.529  0.6889  0.0586  1.9398
  107MOL   H17219464   5.664   5.220   4.616  2.1795  0.7476  0.6651
  107MOL   C17319465   5.657   5.345   4.346 -0.1655  0.0992  0.4317
  107MOL   C17419466   5.598   5.460   4.432 -0.0553  0.7269 -0.1852
  107MOL   C17519467   5.589   5.600   4.365 -0.0045  0.1240 -0.6447
  107MOL   H17619468   5.764   5.351   4.325  0.0158 -1.1695  0.9614
  107MOL   H17719469   5.603   5.343   4.251  1.9183 -0.5528 -0.7758
  107MOL   H17819470   5.666   5.476   4.516  0.0972  1.6244 -0.4818
  107MOL   H17919471   5.524   5.587   4.278 -0.1418 -3.5417 -0.0596
  107MOL   H18019472   5.535   5.665   4.434 -1.1163 -2.9319  1.4579
  107MOL   H18119473   5.688   5.636   4.338  0.7525 -0.5360  1.1657
  107MOL   H18219474   5.505   5.432   4.482 -0.9273  0.5985 -1.8725
  108MOL     C119475   3.758   7.692   6.252 -0.1435 -0.4516 -0.1857
  108MOL     C219476   3.900   0.043   6.277  0.0668  0.0749  0.5638
  108MOL     C319477   3.920   0.139   6.397  0.3077 -0.0422  0.5817
  108MOL     H419478   3.682   0.070   6.234 -0.6652 -1.2314 -1.3647
  108MOL     H519479   3.730   7.625   6.333  0.3152  0.3378  0.6174
  108MOL     H619480   3.920   0.110   6.194  2.7623 -1.6984 -0.2585
  108MOL     H719481   4.022   0.177   6.396  0.5803 -0.6722 -3.3201
  108MOL     H819482   3.842   0.214   6.395  0.0841 -0.2630  0.9791
  108MOL     H919483   3.905   0.082   6.489 -0.7488 -0.9466 -0.1417
  108MOL    H1019484   3.755   7.639   6.156 -1.0348 -0.8906  0.0775
  108MOL    C1119485   4.007   7.627   6.274 -0.7837 -0.2913  0.3518
  108MOL    C1219486   4.001   7.521   6.163 -0.1390  0.2339  0.8529
  108MOL    C1319487   4.095   7.553   6.043 -0.1981 -0.1099 -0.0555
  108MOL    H1419488   4.106   7.670   6.285 -0.1449 -1.7916  0.6497
  108MOL    H1519489   3.996   7.574   6.368  0.5477 -1.6924 -0.2591
  108MOL    H1619490   3.899   7.514   6.124  0.6923 -0.6791 -1.2481
  108MOL    H1719491   4.199   7.563   6.074 -0.3091  2.1965 -0.3197
  108MOL    H1819492   4.093   7.468   5.975  0.7422 -1.3375  1.4209
  108MOL    H1919493   4.061   7.642   5.989 -2.3470 -0.7233  0.2150
  108MOL    C2019494   4.034   7.378   6.222 -0.5473  0.4007 -0.3706
  108MOL    C2119495   3.934   7.311   6.317  0.5092  0.6138  0.5947
  108MOL    C2219496   3.793   7.290   6.244 -0.4882 -0.7447  0.0634
  108MOL    H2319497   4.044   7.304   6.143  1.5997  0.4231 -0.1507
  108MOL    H2419498   4.131   7.385   6.271 -0.8648  1.7989  0.0736
  108MOL    H2519499   3.914   7.379   6.399 -0.6448  0.0206  0.8212
  108MOL    H2619500   3.748   7.377   6.196 -0.3362 -0.6544  0.0819
  108MOL    H2719501   3.800   7.210   6.171 -0.9478 -0.6809 -0.0466
  108MOL    H2819502   3.718   7.261   6.317 -0.6877 -0.5142 -0.0497
  108MOL    C2919503   3.977   7.171   6.378  0.2248 -0.6169  0.2595
  108MOL    C3019504   3.879   7.093   6.468 -0.3652  0.1962 -0.6024
  108MOL    C3119505   3.944   6.953   6.505  0.4354 -0.3036 -0.3195
  108MOL    H3219506   4.000   7.107   6.292  1.1482  0.0082  0.0326
  108MOL    H3319507   4.074   7.181   6.426  0.3477  1.2012 -0.3015
  108MOL    H3419508   3.786   7.072   6.415  0.7094 -1.9875 -1.7003
  108MOL    H3519509   4.041   6.961   6.555  0.3053 -1.1366  0.0653
  108MOL    H3619510   3.865   6.901   6.558 -0.9765  0.8752 -1.2306
  108MOL    H3719511   3.976   6.909   6.411 -0.1303 -0.1977 -0.5618
  108MOL    C3819512   3.846   7.175   6.592  0.1308 -0.5746  0.5744
  108MOL    C3919513   3.765   7.103   6.712  0.3992  0.5500  0.5232
  108MOL    C4019514   3.784   7.190   6.837  0.4240 -0.0761  0.1743
  108MOL    H4119515   3.940   7.212   6.633  0.6039 -2.8559  1.6575
  108MOL    H4219516   3.786   7.258   6.556 -0.0678 -0.1289  1.8817
  108MOL    H4319517   3.809   7.008   6.743  1.7409  1.0741  0.2559
  108MOL    H4419518   3.736   7.286   6.821 -1.0203 -1.0941 -1.7659
  108MOL    H4519519   3.741   7.147   6.927 -0.9013 -0.4723 -0.6449
  108MOL    H4619520   3.887   7.218   6.863  1.4598 -1.7409 -2.0130
  108MOL    C4719521   3.615   7.076   6.678 -0.4369 -0.4003 -0.9659
  108MOL    C4819522   3.543   6.952   6.753  0.2717 -0.0362 -0.2130
  108MOL    C4919523   3.616   6.817   6.720 -0.1305 -0.1970  0.1724
  108MOL    H5019524   3.563   7.168   6.703 -0.2703 -0.9953  1.7085
  108MOL    H5119525   3.600   7.059   6.572 -1.6709 -2.9193 -0.4227
  108MOL    H5219526   3.440   6.948   6.717 -0.1194 -2.4248  1.0556
  108MOL    H5319527   3.622   6.780   6.617 -1.2383 -0.4743  0.2093
  108MOL    H5419528   3.707   6.815   6.780  0.0050  0.1537 -0.0168
  108MOL    H5519529   3.554   6.748   6.776 -0.3522  0.2431  0.4736
  108MOL    C5619530   3.526   6.972   6.902  0.3557 -0.4660 -0.0704
  108MOL    C5719531   3.460   7.110   6.946  0.8230  0.8946  0.6341
  108MOL    C5819532   3.311   7.099   6.914  0.5175  0.5597 -0.1431
  108MOL    H5919533   3.469   6.885   6.934  0.5932 -0.3327  0.7347
  108MOL    H6019534   3.622   6.958   6.951 -0.0222 -0.1830  0.7609
  108MOL    H6119535   3.507   7.196   6.900 -1.7682  1.9643 -0.0908
  108MOL    H6219536   3.289   7.070   6.811  1.5617 -3.0521  0.5773
  108MOL    H6319537   3.254   7.026   6.971  0.5523 -0.9868 -2.0012
  108MOL    H6419538   3.255   7.187   6.945 -0.9825 -0.8243  1.1102
  108MOL    C6519539   3.487   7.126   7.102  0.4173 -0.2679  0.6687
  108MOL    C6619540   3.399   7.224   7.180  0.4558  0.2183  0.1901
  108MOL    C6719541   3.439   7.234   7.327 -0.4368  0.4777  0.3960
  108MOL    H6819542   3.459   7.034   7.153  0.5046 -0.0195  1.1746
  108MOL    H6919543   3.593   7.147   7.119  0.7475 -0.3228 -1.2309
  108MOL    H7019544   3.293   7.197   7.181  0.8436 -1.3284  1.3946
  108MOL    H7119545   3.385   7.319   7.370  1.1263  2.8544 -2.1800
  108MOL    H7219546   3.405   7.149   7.386  1.0856 -0.0364  0.5492
  108MOL    H7319547   3.547   7.237   7.334 -0.3660  3.1747 -1.1038
  108MOL    C7419548   3.413   7.371   7.118  0.2222 -0.9195  0.5264
  108MOL    C7519549   3.332   7.494   7.172 -0.3020 -0.4466  0.8050
  108MOL    C7619550   3.359   7.617   7.087  0.2382 -0.2136  0.1653
  108MOL    H7719551   3.516   7.406   7.124 -0.0914  0.6148 -2.3802
  108MOL    H7819552   3.399   7.377   7.010  0.6054  0.3150  0.5338
  108MOL    H7919553   3.356   7.518   7.275  1.1475 -0.6723  0.5273
  108MOL    H8019554   3.315   7.597   6.989  2.8943 -0.4266 -1.0361
  108MOL    H8119555   3.305   0.003   7.131  0.3278  0.3884 -0.8422
  108MOL    H8219556   3.467   7.631   7.087  0.1998  0.0804  0.0030
  108MOL    C8319557   3.179   7.459   7.155  0.3394 -0.4120 -0.5070
  108MOL    C8419558   3.066   7.564   7.170 -0.3177  0.2766 -0.3344
  108MOL    C8519559   2.924   7.520   7.134 -0.1802  0.0301 -0.1841
  108MOL    H8619560   3.161   7.415   7.057 -0.5310  0.0148 -0.5380
  108MOL    H8719561   3.148   7.379   7.223 -2.4846 -0.1437 -1.3860
  108MOL    H8819562   3.079   7.641   7.094 -0.0949  0.2512 -0.3233
  108MOL    H8919563   2.858   7.598   7.097 -1.2763 -0.6313  0.3558
  108MOL    H9019564   2.937   7.435   7.067 -1.7879 -0.8857  0.6279
  108MOL    H9119565   2.874   7.477   7.221  0.8673  0.9700  0.9094
  108MOL    C9219566   3.077   7.616   7.318 -1.1671  0.4815  0.2322
  108MOL    C9319567   2.979   0.021   7.372  0.0993  0.6036 -0.1149
  108MOL    C9419568   2.938   7.685   7.516 -0.7466 -0.1849  0.5395
  108MOL    H9519569   3.067   7.529   7.383  1.5057 -0.1097 -0.0825
  108MOL    H9619570   3.177   7.656   7.337 -0.3028 -1.0148 -1.0900
  108MOL    H9719571   2.896   0.020   7.302  0.4944 -2.9542 -0.6319
  108MOL    H9819572   2.855   0.055   7.540 -0.3097  0.3402  0.5913
  108MOL    H9919573   2.912   7.580   7.513 -0.9865 -0.1954  2.5314
  108MOL   H10019574   3.019   0.013   7.584 -1.3451 -1.8785  1.8957
  108MOL   C10119575   3.031   0.160   7.346  0.0548 -0.4907 -0.2578
  108MOL   C10219576   2.935   0.277   7.358 -0.5318  0.5333  0.1252
  108MOL   C10319577   2.997   0.404   7.425  0.5755 -0.1483  0.7702
  108MOL   H10419578   3.109   0.176   7.421  0.0213  1.3124 -0.5830
  108MOL   H10519579   3.088   0.184   7.257  1.3789 -0.3545  0.6207
  108MOL   H10619580   2.852   0.249   7.422 -2.5980  1.4399 -2.0646
  108MOL   H10719581   3.059   0.389   7.514 -0.4425  0.3003  1.5707
  108MOL   H10819582   3.061   0.450   7.350 -0.8361  1.3009  0.4541
  108MOL   H10919583   2.924   0.481   7.449  2.1723  0.6091  3.5436
  108MOL   C11019584   2.878   0.327   7.228 -0.8802 -0.1474  0.5361
  108MOL   C11119585   2.800   0.230   7.134  0.0686  0.1442  1.1613
  108MOL   C11219586   2.671   0.179   7.208  0.2170 -0.4350  0.0046
  108MOL   H11319587   2.805   0.407   7.239 -1.4272 -0.4784 -0.6131
  108MOL   H11419588   2.958   0.369   7.167 -1.9189  1.2425  0.1287
  108MOL   H11519589   2.866   0.146   7.116 -1.0927 -0.6556  0.5341
  108MOL   H11619590   2.609   0.103   7.160  0.0736 -0.5541  0.3762
  108MOL   H11719591   2.697   0.153   7.311  1.5008 -0.5533 -0.3332
  108MOL   H11819592   2.597   0.258   7.206  0.5568 -0.1321 -1.1254
  108MOL   C11919593   2.757   0.302   7.004 -0.0819  0.6092  0.1554
  108MOL   C12019594   2.683   0.232   6.891  0.3589  0.9475 -0.5188
  108MOL   C12119595   2.639   0.337   6.788  0.0181  0.8358  0.1226
  108MOL   H12219596   2.687   0.379   7.036 -2.0754 -1.2739  0.4669
  108MOL   H12319597   2.849   0.347   6.968 -0.7806  0.5918 -1.7645
  108MOL   H12419598   2.601   0.167   6.924  1.2861 -2.4660 -4.5460
  108MOL   H12519599   2.563   0.405   6.828 -0.7193 -0.1023  0.3430
  108MOL   H12619600   2.727   0.394   6.757 -0.5779  1.2924 -0.7400
  108MOL   H12719601   2.590   0.291   6.703  1.7833 -0.5929 -0.1294
  108MOL   C12819602   2.779   0.121   6.828  0.7148  1.1008 -0.3574
  108MOL   C12919603   2.912   0.155   6.761 -0.1031 -0.9079 -0.3222
  108MOL   C13019604   3.015   0.047   6.790 -0.0145  0.6240  0.2388
  108MOL   H13119605   2.799   0.049   6.907 -1.3151  1.4728  0.5239
  108MOL   H13219606   2.717   0.075   6.750 -0.2927 -0.7920  1.5040
  108MOL   H13319607   2.941   0.244   6.817  0.4058 -1.5428  0.4394
  108MOL   H13419608   3.016   0.052   6.899 -1.6681 -0.4506  0.3147
  108MOL   H13519609   2.984   7.646   6.755  0.6222  0.4792  0.0717
  108MOL   H13619610   3.118   0.071   6.760 -0.5231  1.1706 -1.1294
  108MOL   C13719611   2.896   0.192   6.602  0.5449 -0.8246  0.1000
  108MOL   C13819612   3.009   0.274   6.546 -0.0023 -0.7873  0.2704
  108MOL   C13919613   2.992   0.282   6.398 -0.3446  0.1305  0.3651
  108MOL   H14019614   2.897   0.101   6.542 -1.9732 -0.3183 -0.7667
  108MOL   H14119615   2.799   0.239   6.584  1.5615  1.3993  0.2517
  108MOL   H14219616   3.097   0.216   6.577 -0.6904 -2.6655 -1.2416
  108MOL   H14319617   3.074   0.334   6.348 -0.7413 -0.5667 -1.0440
  108MOL   H14419618   2.982   0.186   6.347 -0.3853 -0.4825  1.5187
  108MOL   H14519619   2.907   0.345   6.371  1.2151  2.2391  0.2100
  108MOL   C14619620   3.031   0.414   6.604  0.3775  0.0367  0.1498
  108MOL   C14719621   3.182   0.444   6.636  0.2553  0.1616 -0.1838
  108MOL   C14819622   3.252   0.480   6.513 -0.0735 -0.0494  0.3701
  108MOL   H14919623   2.977   0.495   6.556  0.2910 -0.1404 -0.0492
  108MOL   H15019624   2.976   0.413   6.698 -2.1650  0.8470 -1.2869
  108MOL   H15119625   3.231   0.357   6.681  1.0719  1.1216  0.7955
  108MOL   H15219626   3.351   0.514   6.544  0.5669 -0.6369 -1.0081
  108MOL   H15319627   3.257   0.395   6.445  2.6012  0.0269  0.4083
  108MOL   H15419628   3.197   0.556   6.459 -3.0494 -1.3777  1.4445
  108MOL   C15519629   3.206   0.544   6.756  0.1700 -0.3483  0.5479
  108MOL   C15619630   3.166   0.502   6.896  0.0719  0.3264  0.1590
  108MOL   C15719631   3.240   0.372   6.939 -0.2950  0.3851 -0.2126
  108MOL   H15819632   3.310   0.574   6.768 -0.1696  0.8085  0.7028
  108MOL   H15919633   3.153   0.633   6.722  1.6676 -0.5468 -2.4303
  108MOL   H16019634   3.060   0.476   6.901  0.1346  0.1342  0.5382
  108MOL   H16119635   3.345   0.381   6.912 -0.1112 -1.1702 -0.1083
  108MOL   H16219636   3.231   0.355   7.047 -2.5577 -0.0021 -0.4384
  108MOL   H16319637   3.197   0.288   6.884  2.2168 -1.8791  1.0944
  108MOL   C16419638   3.194   0.613   6.994 -0.0723  0.1277 -0.6103
  108MOL   C16519639   3.098   0.734   6.983 -0.0245  0.5987  0.1627
  108MOL   C16619640   2.971   0.691   7.067 -0.3736 -0.6258  0.3365
  108MOL   H16719641   3.196   0.577   7.097  0.5881 -0.5628 -0.8619
  108MOL   H16819642   3.300   0.637   6.980 -0.0257  0.2394 -0.0497
  108MOL   H16919643   3.058   0.747   6.882 -0.3234 -0.1341  0.1847
  108MOL   H17019644   2.994   0.675   7.172  0.6227  2.3681  0.5967
  108MOL   H17119645   2.888   0.762   7.063  1.3083  1.2803 -1.9232
  108MOL   H17219646   2.927   0.596   7.035 -1.9263  0.1893  0.0219
  108MOL   C17319647   3.161   0.864   7.031 -0.1492  0.5959 -0.5849
  108MOL   C17419648   3.120   0.979   6.941 -0.0399  0.1499 -0.0119
  108MOL   C17519649   3.136   1.115   7.001 -0.4204  0.0975 -0.2343
  108MOL   H17619650   3.128   0.888   7.132 -1.1530  1.8587 -1.1811
  108MOL   H17719651   3.270   0.862   7.022 -0.1733 -0.6421 -0.5845
  108MOL   H17819652   3.013   0.979   6.919  0.0915 -1.8971 -0.7666
  108MOL   H17919653   3.071   1.120   7.089 -0.0032 -1.8344  0.2133
  108MOL   H18019654   3.242   1.138   7.014 -0.8259  2.1221 -0.3207
  108MOL   H18119655   3.103   1.184   6.924  1.7107  0.4300 -0.8746
  108MOL   H18219656   3.175   0.975   6.847  1.3116  3.1607  0.6035
  109MOL     C119657   0.981   2.011   4.737  0.0938 -0.0825  0.1280
  109MOL     C219658   0.908   1.945   4.621 -0.2891  0.1578  0.2113
  109MOL     C319659   0.783   1.873   4.686 -0.0745  1.3209  0.1318
  109MOL     H419660   0.936   2.106   4.766  1.8538  1.4593 -1.9923
  109MOL     H519661   1.083   2.029   4.702 -0.3330 -1.5857 -1.9889
  109MOL     H619662   0.983   1.875   4.584 -1.4384  0.5079 -2.9126
  109MOL     H719663   0.719   1.819   4.616  0.0049 -0.5531  1.4862
  109MOL     H819664   0.818   1.810   4.767  1.1077 -0.3115 -1.5921
  109MOL     H919665   0.717   1.945   4.736  0.0580 -0.2188  2.5761
  109MOL    H1019666   0.997   1.950   4.825 -2.6638 -0.0894  0.6702
  109MOL    C1119667   0.871   2.046   4.510 -1.0002 -0.6448 -0.0429
  109MOL    C1219668   0.985   2.139   4.461 -0.3163 -0.7747 -0.1634
  109MOL    C1319669   1.076   2.072   4.370  0.6961 -0.2554  0.0783
  109MOL    H1419670   0.834   1.984   4.429  0.1795  0.3976 -1.3928
  109MOL    H1519671   0.783   2.102   4.543 -0.4942  0.0790  0.0918
  109MOL    H1619672   1.056   2.164   4.540  0.7016 -0.7019 -1.1006
  109MOL    H1719673   1.161   2.128   4.333 -0.4517 -0.1868 -2.5804
  109MOL    H1819674   1.109   1.978   4.413  1.6525  0.2235  0.3990
  109MOL    H1919675   1.022   2.048   4.278  1.1938 -0.6475 -0.1135
  109MOL    C2019676   0.932   2.271   4.401  1.0164  0.3600  0.0212
  109MOL    C2119677   0.905   2.374   4.516  0.2414  0.2655 -0.0654
  109MOL    C2219678   1.032   2.443   4.562 -0.1609  0.4590  0.6050
  109MOL    H2319679   1.003   2.321   4.334 -1.6512  0.9219 -2.4570
  109MOL    H2419680   0.851   2.244   4.334 -1.4481 -0.1534  3.1350
  109MOL    H2519681   0.865   2.313   4.597 -1.5113  1.6141  0.1137
  109MOL    H2619682   1.021   2.518   4.641  0.9705 -0.8929  2.0753
  109MOL    H2719683   1.116   2.378   4.587 -0.2578  0.5022  1.0371
  109MOL    H2819684   1.078   2.501   4.482 -0.6569 -2.1935 -1.6626
  109MOL    C2919685   0.786   2.473   4.482  0.2420  0.1514  0.5037
  109MOL    C3019686   0.643   2.411   4.483  0.0799 -0.3143  0.1558
  109MOL    C3119687   0.598   2.374   4.622 -0.2132  0.0430  0.4445
  109MOL    H3219688   0.794   2.551   4.558 -2.2329  1.8580 -0.9131
  109MOL    H3319689   0.808   2.513   4.383 -1.5671 -2.7233 -1.1153
  109MOL    H3419690   0.637   2.322   4.421 -0.4765 -0.9364  1.0881
  109MOL    H3519691   0.595   2.460   4.690 -1.9108 -1.1309  1.8865
  109MOL    H3619692   0.501   2.324   4.616 -1.4701  2.4963 -0.9542
  109MOL    H3719693   0.672   2.307   4.665  0.9649  1.2220  0.2877
  109MOL    C3819694   0.537   2.516   4.433 -0.1632 -0.3893  0.6339
  109MOL    C3919695   0.528   2.515   4.276 -0.1533  0.3250 -0.4441
  109MOL    C4019696   0.454   2.383   4.238  0.0833 -0.0498 -0.1158
  109MOL    H4119697   0.439   2.508   4.480  1.0016 -1.1444  3.0583
  109MOL    H4219698   0.565   2.618   4.457 -0.6590  0.6311 -2.9544
  109MOL    H4319699   0.630   2.509   4.238  0.0394  2.1373 -0.2560
  109MOL    H4419700   0.424   2.383   4.133 -0.1912 -0.5973 -0.0398
  109MOL    H4519701   0.526   2.302   4.235  2.1456  1.7987 -3.0131
  109MOL    H4619702   0.368   2.370   4.303  0.3940  2.0243  0.7816
  109MOL    C4719703   0.460   2.640   4.213 -0.1018  0.2689 -0.2178
  109MOL    C4819704   0.312   2.686   4.253 -0.1503  0.0603  0.2375
  109MOL    C4919705   0.312   2.824   4.321 -0.2796  0.1973 -0.7437
  109MOL    H5019706   0.529   2.721   4.237  0.4462 -0.4207  0.5937
  109MOL    H5119707   0.465   2.624   4.106  2.7547 -1.5619  0.1159
  109MOL    H5219708   0.269   2.615   4.324 -1.3350  0.3530 -0.1780
  109MOL    H5319709   0.358   2.901   4.259 -0.4519  0.7559 -0.1756
  109MOL    H5419710   0.216   2.862   4.356 -0.8068  0.3611 -2.3135
  109MOL    H5519711   0.370   2.811   4.413 -2.0029  0.3819  0.3800
  109MOL    C5619712   0.225   2.706   4.137  0.2916 -1.0361  0.4719
  109MOL    C5719713   0.190   2.575   4.060  0.4159 -0.3203 -0.0893
  109MOL    C5819714   0.106   2.488   4.158 -0.4525  0.3967  0.1546
  109MOL    H5919715   0.128   2.747   4.168  0.6649  0.4546 -0.2913
  109MOL    H6019716   0.269   2.767   4.058  2.1991 -2.4874  0.4017
  109MOL    H6119717   0.283   2.523   4.038  1.3233  1.2474 -0.0052
  109MOL    H6219718   0.023   2.543   4.201 -1.0483  0.0077 -0.4867
  109MOL    H6319719   0.058   2.411   4.098 -0.6761  0.4655  0.2477
  109MOL    H6419720   0.170   2.436   4.229 -2.0277 -1.1238  0.4757
  109MOL    C6519721   0.126   2.609   3.925  0.3848 -0.4156  0.8653
  109MOL    C6619722   0.232   2.629   3.808  0.4451 -0.8786  0.4932
  109MOL    C6719723   0.267   2.489   3.750 -0.0120 -0.7413 -0.0627
  109MOL    H6819724   0.045   2.540   3.904  0.0380  1.1462 -3.3989
  109MOL    H6919725   0.068   2.701   3.933 -0.3564 -0.6289 -1.7247
  109MOL    H7019726   0.325   2.663   3.853 -0.4882  0.2155  1.6359
  109MOL    H7119727   0.293   2.417   3.826 -0.6854 -0.5146  0.3890
  109MOL    H7219728   0.180   2.443   3.703 -2.0059  1.2005  1.6084
  109MOL    H7319729   0.353   2.479   3.684  0.4920 -0.9451  0.6319
  109MOL    C7419730   0.196   2.726   3.690 -0.0276  0.2398 -0.0264
  109MOL    C7519731   0.185   2.872   3.730  0.1705  0.4104 -0.4828
  109MOL    C7619732   0.323   2.934   3.747 -0.2779 -0.1589  0.3855
  109MOL    H7719733   0.273   2.718   3.612  0.1128  2.5031 -0.1507
  109MOL    H7819734   0.096   2.701   3.655  0.2463  0.3049 -0.8720
  109MOL    H7919735   0.129   2.881   3.823  0.8856 -0.5264  0.0419
  109MOL    H8019736   0.385   2.927   3.657 -0.5276 -0.9557  0.2750
  109MOL    H8119737   0.322   3.033   3.793  0.5757 -0.3827  0.9005
  109MOL    H8219738   0.371   2.872   3.822 -0.5669 -0.5622  0.2375
  109MOL    C8319739   0.090   2.959   3.636  0.2153  0.5238  0.2582
  109MOL    C8419740   0.008   3.071   3.700  0.3106 -0.2731  0.4389
  109MOL    C8519741   7.657   3.163   3.582  0.1237 -0.3953 -0.2527
  109MOL    H8619742   0.151   3.007   3.559  3.1792 -1.7933  1.0552
  109MOL    H8719743   0.021   2.893   3.584 -0.8370  1.4937  0.4014
  109MOL    H8819744   0.065   3.133   3.769 -1.4981  1.6889  0.2411
  109MOL    H8919745   7.637   3.110   3.489  0.6606  2.8329 -2.2617
  109MOL    H9019746   7.570   3.226   3.601  1.2288  2.1263 -3.1822
  109MOL    H9119747   0.045   3.223   3.552 -1.2222  1.8378  0.2285
  109MOL    C9219748   7.576   3.017   3.770 -0.8825 -0.1418 -0.0452
  109MOL    C9319749   7.540   3.097   3.898  0.0843  0.1845 -0.1311
  109MOL    C9419750   7.392   3.066   3.935 -1.0768  0.4642 -0.1896
  109MOL    H9519751   7.506   3.015   3.686 -0.2087  1.2194 -0.6484
  109MOL    H9619752   7.588   2.914   3.802 -0.8560  0.4309  1.8073
  109MOL    H9719753   7.549   3.197   3.856  0.4143  0.9351  1.6798
  109MOL    H9819754   7.369   3.100   4.036  1.9979 -1.5268  1.2486
  109MOL    H9919755   7.324   3.113   3.864 -0.9907  0.7631 -0.0745
  109MOL   H10019756   7.370   2.959   3.937  1.4865 -0.0727  2.2252
  109MOL   C10119757   7.648   3.063   4.009 -0.3866  0.1141 -0.2901
  109MOL   C10219758   7.630   3.140   4.140 -0.1722 -0.0785 -0.3288
  109MOL   C10319759   0.013   3.090   4.248  0.0050  0.1861  0.1247
  109MOL   H10419760   7.636   2.956   4.019  1.4500  0.0151  1.0086
  109MOL   H10519761   0.053   3.083   3.978 -0.2786  0.6699  0.4099
  109MOL   H10619762   7.527   3.118   4.167  0.6208 -2.3848  0.9496
  109MOL   H10719763   0.002   3.155   4.335  2.3087  0.7263  0.0224
  109MOL   H10819764   7.679   2.988   4.268 -2.2120  1.0301  1.2034
  109MOL   H10919765   0.119   3.094   4.224 -0.4272 -2.8655 -2.7525
  109MOL   C11019766   7.642   3.295   4.122  0.4112 -0.2850 -0.2887
  109MOL   C11119767   7.559   3.385   4.209 -0.1903 -0.4144 -1.0597
  109MOL   C11219768   7.600   3.533   4.208  0.2622 -0.0706 -0.5577
  109MOL   H11319769   0.051   3.312   4.139  0.7542 -1.0317 -1.6212
  109MOL   H11419770   7.633   3.331   4.020 -1.3032 -0.4491 -0.1968
  109MOL   H11519771   7.575   3.359   4.313  0.6332 -0.5865 -1.2242
  109MOL   H11619772   7.572   3.590   4.120 -1.1051 -0.1205 -0.1680
  109MOL   H11719773   7.567   3.584   4.298 -1.3764 -1.1625 -0.5087
  109MOL   H11819774   0.011   3.532   4.221  0.2007 -1.3473  0.0091
  109MOL   C11919775   7.406   3.386   4.167 -0.1549  0.1316 -0.0276
  109MOL   C12019776   7.296   3.384   4.286 -0.7357 -0.4644  0.7620
  109MOL   C12119777   7.288   3.498   4.389  0.4565  0.0001 -0.1234
  109MOL   H12219778   7.380   3.458   4.089  0.7202 -1.0612 -1.4319
  109MOL   H12319779   7.399   3.289   4.119 -1.0419  0.4549 -0.5531
  109MOL   H12419780   7.308   3.292   4.343  0.3219 -0.2163  0.9340
  109MOL   H12519781   7.213   3.473   4.464  1.9802 -0.1849  1.3638
  109MOL   H12619782   7.376   3.507   4.452  1.0350 -1.8466 -0.6117
  109MOL   H12719783   7.266   3.594   4.343  2.7919  0.3569 -0.5908
  109MOL   C12819784   7.152   3.393   4.229  0.1706 -0.4494 -0.3592
  109MOL   C12919785   7.101   3.271   4.155 -0.3513 -0.0378  0.3210
  109MOL   C13019786   7.099   3.135   4.228 -0.4755  0.3359 -0.3908
  109MOL   H13119787   7.079   3.408   4.309  1.3719  0.2292  0.6224
  109MOL   H13219788   7.145   3.486   4.173 -1.3896  0.5493  1.4368
  109MOL   H13319789   7.163   3.258   4.066 -0.2715 -1.9122  0.6428
  109MOL   H13419790   7.028   3.155   4.308 -0.8495 -0.3471 -0.5519
  109MOL   H13519791   7.062   3.060   4.159  0.6615 -0.0927 -0.5534
  109MOL   H13619792   7.189   3.098   4.278 -0.0289 -0.3742 -1.6917
  109MOL   C13719793   6.954   3.302   4.093 -0.0275  0.7942 -0.6270
  109MOL   C13819794   6.947   3.392   3.970 -0.5616  0.5452  0.3685
  109MOL   C13919795   6.988   3.316   3.843 -0.3195  0.2132  0.5275
  109MOL   H14019796   6.911   3.206   4.066 -2.0172  0.7691  2.3513
  109MOL   H14119797   6.892   3.337   4.175  0.1100 -1.6725  0.5805
  109MOL   H14219798   7.004   3.485   3.972 -0.0273  0.2611 -1.0743
  109MOL   H14319799   7.089   3.276   3.843  0.9158  3.2669 -0.3784
  109MOL   H14419800   6.922   3.230   3.826 -0.2616  0.3871 -0.5909
  109MOL   H14519801   6.994   3.383   3.758  1.8128 -0.2952  0.2524
  109MOL   C14619802   6.800   3.436   3.974 -0.5299  0.0454 -0.5834
  109MOL   C14719803   6.761   3.536   3.871  0.7960 -0.4057 -0.3158
  109MOL   C14819804   6.610   3.541   3.864 -0.4832  0.4122  0.1943
  109MOL   H14919805   6.740   3.345   3.966 -0.8369  0.3067 -1.3165
  109MOL   H15019806   6.775   3.467   4.076  0.3045 -0.1256 -0.3285
  109MOL   H15119807   6.780   3.499   3.771  1.3499 -0.1135 -0.3209
  109MOL   H15219808   6.579   3.439   3.841  0.5142  0.1181  0.1565
  109MOL   H15319809   6.569   3.571   3.961 -2.5043  0.9284 -0.7943
  109MOL   H15419810   6.572   3.602   3.782 -1.3851 -0.8101 -0.3159
  109MOL   C15519811   6.819   3.684   3.880 -0.1407  0.1617 -0.4285
  109MOL   C15619812   6.801   3.768   3.749  0.3204 -0.6263 -0.0977
  109MOL   C15719813   6.832   3.920   3.788 -0.3816 -0.6560  0.7406
  109MOL   H15819814   6.760   3.732   3.957 -0.7159  0.3532 -0.9841
  109MOL   H15919815   6.922   3.696   3.916 -0.7229  4.4487  0.1294
  109MOL   H16019816   6.695   3.765   3.724 -0.0146  0.0962  1.1850
  109MOL   H16119817   6.781   3.994   3.726  0.9849 -0.4446 -0.1526
  109MOL   H16219818   6.787   3.944   3.884  1.3979  1.4636  1.0747
  109MOL   H16319819   6.934   3.951   3.805 -0.8054  0.4950  1.1933
  109MOL   C16419820   6.888   3.719   3.635 -0.5581  0.2377  0.1932
  109MOL   C16519821   6.894   3.813   3.512  0.1252 -0.1857  0.4535
  109MOL   C16619822   7.006   3.766   3.423 -0.7222  0.7003  0.0285
  109MOL   H16719823   6.989   3.697   3.667  0.2687  1.3286 -1.5907
  109MOL   H16819824   6.864   3.616   3.609  1.5239 -0.0032 -0.8730
  109MOL   H16919825   6.910   3.920   3.529  2.0603 -0.0103 -2.2402
  109MOL   H17019826   7.012   3.660   3.398  0.3438  0.5717  0.8038
  109MOL   H17119827   7.004   3.823   3.330 -1.4215 -1.6666 -1.4481
  109MOL   H17219828   7.103   3.790   3.466 -0.9680  1.5778  0.1017
  109MOL   C17319829   6.761   3.806   3.440 -0.1617  0.5183 -0.1688
  109MOL   C17419830   6.707   3.671   3.410  0.3123 -0.1605 -0.0344
  109MOL   C17519831   6.603   3.682   3.307  0.0005  0.4010 -0.1822
  109MOL   H17619832   6.687   3.872   3.486  0.4814  2.1279 -1.4234
  109MOL   H17719833   6.779   3.860   3.348 -1.0584  0.2791 -0.4834
  109MOL   H17819834   6.648   3.632   3.493 -0.8170 -0.8471 -1.1475
  109MOL   H17919835   6.568   3.579   3.303 -2.6833  1.3088 -1.6995
  109MOL   H18019836   6.522   3.753   3.324 -1.4268 -1.0556 -0.7810
  109MOL   H18119837   6.637   3.688   3.204 -0.7722 -0.6882 -0.5096
  109MOL   H18219838   6.780   3.601   3.370  0.0814  0.9266 -2.4696
  110MOL     C119839   4.447   1.253   4.124 -0.6960  0.6214 -0.0503
  110MOL     C219840   4.499   1.389   4.088 -0.4186 -0.2520 -0.1870
  110MOL     C319841   4.379   1.489   4.060 -0.2937  0.0682 -0.2244
  110MOL     H419842   4.396   1.243   4.219 -0.9804  0.2840 -0.2359
  110MOL     H519843   4.526   1.178   4.117  0.3820  1.5032  2.2109
  110MOL     H619844   4.566   1.392   4.002 -2.9150 -0.5833 -2.2311
  110MOL     H719845   4.314   1.446   3.984 -0.4027 -0.9742  0.4555
  110MOL     H819846   4.321   1.497   4.152 -1.4417 -2.7180 -0.6641
  110MOL     H919847   4.414   1.585   4.022 -0.7149  1.6291  3.1382
  110MOL    H1019848   4.371   1.236   4.047 -0.4585 -2.7407  0.3877
  110MOL    C1119849   4.584   1.443   4.209 -0.4782 -0.0804 -0.1324
  110MOL    C1219850   4.699   1.363   4.266 -0.5747  0.2844 -0.3529
  110MOL    C1319851   4.812   1.342   4.164  0.4136 -0.2348 -0.0025
  110MOL    H1419852   4.634   1.533   4.172 -0.6984 -0.9087 -2.5240
  110MOL    H1519853   4.514   1.480   4.283 -0.2431 -1.1418  0.6333
  110MOL    H1619854   4.662   1.262   4.284  1.8690 -0.4919  0.4979
  110MOL    H1719855   4.887   1.420   4.171  0.5758 -0.6561  3.8762
  110MOL    H1819856   4.856   1.243   4.179 -1.3982 -1.4710 -2.4436
  110MOL    H1919857   4.777   1.342   4.061  0.7803  1.7251 -0.1349
  110MOL    C2019858   4.753   1.406   4.406 -0.4167 -0.3972 -0.3610
  110MOL    C2119859   4.657   1.394   4.525 -0.3596 -0.2748  0.0436
  110MOL    C2219860   4.586   1.258   4.520 -0.8153  0.1234  0.1620
  110MOL    H2319861   4.849   1.357   4.422  0.0551  0.4580 -0.5819
  110MOL    H2419862   4.768   1.513   4.393  0.9065 -0.7083 -1.4672
  110MOL    H2519863   4.580   1.469   4.508  0.0310  0.2997  0.7960
  110MOL    H2619864   4.651   1.177   4.484 -1.1818 -0.2568  0.3513
  110MOL    H2719865   4.541   1.223   4.613 -1.2266 -1.1693 -0.5091
  110MOL    H2819866   4.505   1.270   4.448 -0.7863 -0.3297  0.0511
  110MOL    C2919867   4.712   1.434   4.670 -0.4104 -0.2002 -0.2747
  110MOL    C3019868   4.795   1.564   4.679  0.4969 -0.1960 -0.5867
  110MOL    C3119869   4.705   1.690   4.655  0.3728 -0.2115  0.0538
  110MOL    H3219870   4.642   1.420   4.753  0.2934 -0.8680  0.2124
  110MOL    H3319871   4.791   1.361   4.684  1.7318  2.1202  0.0323
  110MOL    H3419872   4.875   1.553   4.606 -0.1604 -1.4050 -1.1521
  110MOL    H3519873   4.766   1.779   4.641 -0.8034  0.7400  0.8591
  110MOL    H3619874   4.648   1.671   4.563  0.7382 -0.1663 -0.1823
  110MOL    H3719875   4.632   1.701   4.735 -0.1619 -0.5941 -0.3729
  110MOL    C3819876   4.855   1.579   4.821 -0.1459  0.0311 -0.1581
  110MOL    C3919877   4.993   1.660   4.816 -1.0027  0.1242 -0.1603
  110MOL    C4019878   5.022   1.725   4.955 -0.4178 -0.3677 -0.2802
  110MOL    H4119879   4.784   1.634   4.883 -0.2558 -0.6773  0.3474
  110MOL    H4219880   4.869   1.481   4.867 -2.7315  0.8402  2.4865
  110MOL    H4319881   4.995   1.735   4.737  0.9995  1.4570  1.1324
  110MOL    H4419882   4.940   1.782   4.999 -0.4894  1.1053 -2.2489
  110MOL    H4519883   5.043   1.643   5.024  3.1522  0.2307 -0.5474
  110MOL    H4619884   5.110   1.788   4.971 -1.1933  0.6140  0.1281
  110MOL    C4719885   5.118   1.574   4.771  0.2416  0.0238  0.4595
  110MOL    C4819886   5.256   1.643   4.760 -0.1742  0.5762 -0.1595
  110MOL    C4919887   5.362   1.527   4.761  0.3996  0.0633 -0.0596
  110MOL    H5019888   5.118   1.481   4.828 -1.6650  0.3578  1.0453
  110MOL    H5119889   5.104   1.539   4.668  2.1736  2.0156 -0.5336
  110MOL    H5219890   5.281   1.704   4.847 -0.6816 -0.2701  0.5883
  110MOL    H5319891   5.342   1.451   4.837  0.9199  1.0771  1.0848
  110MOL    H5419892   5.345   1.469   4.670  1.3762  0.3031 -0.3923
  110MOL    H5519893   5.467   1.552   4.773 -0.5248  3.7856  0.8938
  110MOL    C5619894   5.273   1.715   4.628 -0.5044  0.3397  0.1351
  110MOL    C5719895   5.358   1.851   4.626 -0.4888 -0.0643 -0.1449
  110MOL    C5819896   5.304   1.950   4.728  0.3819 -0.3355  0.1889
  110MOL    H5919897   5.300   1.646   4.548  1.1320 -0.5929  1.4664
  110MOL    H6019898   5.172   1.747   4.601  0.2638  0.9484 -2.1754
  110MOL    H6119899   5.353   1.905   4.531  1.6650  1.2026  0.4162
  110MOL    H6219900   5.308   1.928   4.834  0.5834  0.1392  0.2824
  110MOL    H6319901   5.354   2.047   4.732 -2.2749  1.0375  2.1422
  110MOL    H6419902   5.203   1.969   4.690 -0.6776  0.6911  3.3640
  110MOL    C6519903   5.508   1.823   4.643 -0.5156  0.5712 -0.2366
  110MOL    C6619904   5.597   1.941   4.614 -0.5040 -0.4463  0.7495
  110MOL    C6719905   5.726   1.928   4.705 -0.8052  0.2490 -0.6292
  110MOL    H6819906   5.517   1.803   4.750 -0.1453  1.8271 -0.0356
  110MOL    H6919907   5.546   1.735   4.591  1.1733  0.1676  1.6411
  110MOL    H7019908   5.551   2.034   4.645  1.0011  0.2713  0.8619
  110MOL    H7119909   5.763   1.825   4.709 -1.6296 -0.0413 -0.3689
  110MOL    H7219910   5.816   1.988   4.694  0.4255 -1.3438  0.5661
  110MOL    H7319911   5.686   1.956   4.802 -2.3163 -1.2235 -0.7922
  110MOL    C7419912   5.626   1.952   4.465  0.2929  0.3885  0.7018
  110MOL    C7519913   5.683   2.087   4.422 -0.3105  0.5634  0.4434
  110MOL    C7619914   5.812   2.057   4.348  0.5908 -0.2891  0.3514
  110MOL    H7719915   5.670   1.858   4.430  1.1689  1.1735 -0.3075
  110MOL    H7819916   5.532   1.949   4.409  0.2761 -0.8736  0.7673
  110MOL    H7919917   5.718   2.132   4.515  1.2728  1.6259 -0.6479
  110MOL    H8019918   5.803   2.009   4.250 -0.4281 -1.7379  1.1308
  110MOL    H8119919   5.866   2.152   4.343  2.5719 -1.4135 -0.3064
  110MOL    H8219920   5.875   1.994   4.410  0.0842 -1.0202  0.1379
  110MOL    C8319921   5.577   2.165   4.338 -0.0190 -0.6252  0.5790
  110MOL    C8419922   5.463   2.233   4.416  0.8624 -0.2921 -0.0036
  110MOL    C8519923   5.514   2.349   4.498  0.2641  0.1881 -0.6642
  110MOL    H8619924   5.619   2.254   4.289 -0.6975  1.0604  2.9663
  110MOL    H8719925   5.539   2.115   4.249  1.5485 -0.6049 -0.1320
  110MOL    H8819926   5.428   2.164   4.493  1.9297 -3.8485 -2.5862
  110MOL    H8919927   5.609   2.313   4.538  0.1191  0.4849 -0.0439
  110MOL    H9019928   5.532   2.447   4.453 -1.4217  0.8300  0.0172
  110MOL    H9119929   5.459   2.358   4.591  1.2285 -1.7454  0.1178
  110MOL    C9219930   5.330   2.261   4.347  0.0605  0.1117  0.0068
  110MOL    C9319931   5.327   2.356   4.225 -0.0240 -0.6419 -0.7587
  110MOL    C9419932   5.327   2.279   4.091  0.3506  0.3345  0.4760
  110MOL    H9519933   5.291   2.167   4.309  0.0930 -0.0029  0.2586
  110MOL    H9619934   5.260   2.286   4.427  1.0116 -0.8469  1.1524
  110MOL    H9719935   5.421   2.412   4.225  0.0186 -0.7158 -0.0110
  110MOL    H9819936   5.336   2.348   4.007 -1.0544  1.1768  1.0028
  110MOL    H9919937   5.414   2.214   4.084  1.7053  2.0871  0.4364
  110MOL   H10019938   5.238   2.218   4.076  0.8029 -0.2552  0.1667
  110MOL   C10119939   5.196   2.432   4.225  0.5438 -1.0236  0.0758
  110MOL   C10219940   5.172   2.540   4.336  0.4321 -0.1913  0.3927
  110MOL   C10319941   5.294   2.641   4.342 -0.1916  0.6752  0.5767
  110MOL   H10419942   5.179   2.481   4.129  2.1541  2.5601  1.5150
  110MOL   H10519943   5.116   2.363   4.248 -1.3799  1.0679 -0.1663
  110MOL   H10619944   5.169   2.475   4.424  0.6341  0.8609  1.1782
  110MOL   H10719945   5.385   2.587   4.368 -0.1963  0.1451 -0.4473
  110MOL   H10819946   5.303   2.689   4.244  3.1415  1.9245  1.4581
  110MOL   H10919947   5.277   2.722   4.413 -2.6577  0.5911  0.1280
  110MOL   C11019948   5.030   2.611   4.326  0.3217  0.6462 -0.3556
  110MOL   C11119949   4.903   2.518   4.326  0.1384  0.4243 -0.8619
  110MOL   C11219950   4.879   2.458   4.472 -0.4080 -0.0434 -0.1691
  110MOL   H11319951   5.021   2.696   4.394  1.9467  0.0378  0.6476
  110MOL   H11419952   5.028   2.657   4.227  0.1984  0.2111 -0.5529
  110MOL   H11519953   4.925   2.442   4.251 -1.6314  1.2615 -2.2679
  110MOL   H11619954   4.815   2.370   4.481 -2.2056  1.3590  0.8358
  110MOL   H11719955   4.974   2.424   4.515 -1.2546  0.6012  2.2913
  110MOL   H11819956   4.841   2.535   4.539 -2.7295 -1.5647  0.3201
  110MOL   C11919957   4.772   2.579   4.285  0.0663 -0.2458 -0.9561
  110MOL   C12019958   4.757   2.622   4.134 -0.1171  0.0663 -0.2096
  110MOL   C12119959   4.736   2.505   4.037 -0.2352 -0.0190  0.8545
  110MOL   H12219960   4.683   2.517   4.298  1.5060 -2.2695 -0.5455
  110MOL   H12319961   4.763   2.659   4.358  1.3894 -2.0103  1.2019
  110MOL   H12419962   4.849   2.669   4.098  0.4591 -1.2800 -0.5235
  110MOL   H12519963   4.717   2.521   3.931  0.5860 -2.1397  0.3536
  110MOL   H12619964   4.814   2.429   4.043 -0.7611 -0.7462 -1.0302
  110MOL   H12719965   4.664   2.429   4.065  0.0217 -0.0296  1.4924
  110MOL   C12819966   4.637   2.722   4.111  0.4197 -0.1795  0.3768
  110MOL   C12919967   4.679   2.861   4.050 -0.2355 -0.0426 -0.4711
  110MOL   C13019968   4.708   2.855   3.899  0.1829 -0.1276  0.7234
  110MOL   H13119969   4.562   2.685   4.041  1.9473 -0.7411 -1.0095
  110MOL   H13219970   4.598   2.732   4.212  0.9941  0.4752  0.5335
  110MOL   H13319971   4.774   2.892   4.094 -0.6738 -0.7870  1.0655
  110MOL   H13419972   4.769   2.769   3.870  0.2978  0.3248 -0.4072
  110MOL   H13519973   4.613   2.854   3.846  0.4769 -1.4786  0.1910
  110MOL   H13619974   4.766   2.940   3.863  1.9408 -0.7306  2.0569
  110MOL   C13719975   4.587   2.974   4.093  0.4478  0.2148 -0.1317
  110MOL   C13819976   4.623   3.111   4.037  0.0832 -0.0553 -0.7350
  110MOL   C13919977   4.493   3.198   4.036  0.3212 -0.1102 -0.0182
  110MOL   H14019978   4.498   2.939   4.041  0.2811  0.3173  0.0872
  110MOL   H14119979   4.559   2.982   4.198 -3.8010  1.7132 -1.2829
  110MOL   H14219980   4.641   3.094   3.931 -0.0008 -0.3737 -0.6972
  110MOL   H14319981   4.514   3.293   3.987 -0.9762 -0.2298 -0.8200
  110MOL   H14419982   4.421   3.143   3.975 -1.0787  0.8409  0.7353
  110MOL   H14519983   4.465   3.213   4.140  3.4801  0.1996  0.8339
  110MOL   C14619984   4.742   3.185   4.114 -0.2621 -0.4813 -0.2880
  110MOL   C14719985   4.874   3.190   4.041 -0.3646  0.1266  0.2583
  110MOL   C14819986   4.864   3.275   3.915 -0.4394  0.3800  0.2621
  110MOL   H14919987   4.700   3.281   4.141  0.5238  0.0245 -0.8468
  110MOL   H15019988   4.751   3.149   4.216 -1.3332  0.7805  0.2497
  110MOL   H15119989   4.900   3.088   4.011 -0.6777 -0.6265  2.4895
  110MOL   H15219990   4.958   3.272   3.861 -0.9570 -0.1386 -0.6182
  110MOL   H15319991   4.784   3.240   3.850  0.7719  1.9444 -2.1164
  110MOL   H15419992   4.844   3.381   3.929 -1.2517  0.2991 -0.2154
  110MOL   C15519993   4.993   3.219   4.132  0.1130  0.1887 -0.5118
  110MOL   C15619994   5.026   3.104   4.230  1.3790 -0.6682  0.2559
  110MOL   C15719995   5.142   3.020   4.181  0.5607 -0.5270  0.8684
  110MOL   H15819996   5.083   3.252   4.080  0.5068 -1.1076 -0.6750
  110MOL   H15919997   4.969   3.305   4.195  1.8508  0.4070 -0.1130
  110MOL   H16019998   4.943   3.035   4.249 -0.1963  1.1017 -0.0181
  110MOL   H16119999   5.158   2.929   4.239 -2.1625 -1.8887 -0.4054
  110MOL   H16220000   5.120   2.980   4.082  0.4233 -0.5097  0.8934
  110MOL   H16320001   5.229   3.084   4.168  0.0807 -0.1779 -0.6653
  110MOL   C16420002   5.058   3.148   4.372  0.3288  0.2986  0.4616
  110MOL   C16520003   4.949   3.197   4.470 -0.0340 -0.1871 -0.1078
  110MOL   C16620004   4.858   3.084   4.515 -0.0847  0.2842  0.9526
  110MOL   H16720005   5.112   3.068   4.422 -0.0299 -2.1664 -2.9256
  110MOL   H16820006   5.138   3.221   4.360 -0.9282  1.8226  1.0410
  110MOL   H16920007   4.883   3.257   4.407  0.9552  1.0981  0.0508
  110MOL   H17020008   4.795   3.099   4.603  0.7302  0.0377  1.5769
  110MOL   H17120009   4.808   3.044   4.427 -0.9119 -0.5314  1.7792
  110MOL   H17220010   4.917   2.993   4.528  0.0263 -0.1610 -2.3363
  110MOL   C17320011   5.006   3.277   4.588 -0.4643  0.2041  0.4774
  110MOL   C17420012   5.103   3.209   4.685 -0.3395 -0.4845 -0.0794
  110MOL   C17520013   5.132   3.298   4.802 -0.0167 -0.2994  0.5943
  110MOL   H17620014   5.062   3.353   4.532  1.9761  1.2916  4.2393
  110MOL   H17720015   4.915   3.313   4.635 -0.6317  1.2845 -0.6154
  110MOL   H17820016   5.200   3.211   4.637 -0.6762  1.0762 -0.7041
  110MOL   H17920017   5.159   3.401   4.775 -2.5626  0.4287  0.7530
  110MOL   H18020018   5.037   3.306   4.854 -0.8578 -0.0895 -0.9301
  110MOL   H18120019   5.208   3.251   4.865  1.4536 -0.8369 -1.5138
  110MOL   H18220020   5.074   3.106   4.710 -0.5304 -0.3592  0.2224
  111MOL     C120021   1.256   0.578   3.256 -0.4704  0.1848  0.3600
  111MOL     C220022   1.225   0.539   3.402 -0.6572 -0.3482 -0.1420
  111MOL     C320023   1.189   0.657   3.483  0.1409 -0.0349  0.3148
  111MOL     H420024   1.312   0.496   3.211 -0.2773 -0.1075  1.1253
  111MOL     H520025   1.320   0.666   3.262 -1.0695  0.5555  1.3761
  111MOL     H620026   1.318   0.511   3.452 -0.7609  0.6768  0.6339
  111MOL     H720027   1.252   0.742   3.456 -0.8679  0.4572 -0.5617
  111MOL     H820028   1.088   0.688   3.458 -0.6111 -0.9288  2.1912
  111MOL     H920029   1.189   0.639   3.590 -1.3777 -2.1714 -0.0138
  111MOL    H1020030   1.163   0.584   3.199 -0.5632 -0.0954  0.4795
  111MOL    C1120031   1.124   0.424   3.410 -0.3461 -0.0657 -0.5255
  111MOL    C1220032   1.170   0.281   3.382 -0.9458  0.5280  0.2957
  111MOL    C1320033   1.252   0.225   3.501 -0.1659  0.4694 -0.5032
  111MOL    H1420034   1.084   0.421   3.511 -2.3112 -3.3748 -1.3357
  111MOL    H1520035   1.036   0.444   3.348  0.0959  1.8403 -0.5738
  111MOL    H1620036   1.222   0.296   3.288 -1.3700  2.1661  0.3183
  111MOL    H1720037   1.285   0.122   3.488 -0.8111  0.4069 -1.8025
  111MOL    H1820038   1.342   0.285   3.509  0.2529 -0.2095 -0.1049
  111MOL    H1920039   1.190   0.225   3.591  1.2060 -1.5756  0.4739
  111MOL    C2020040   1.055   0.191   3.360  0.3294 -0.6327  0.0367
  111MOL    C2120041   0.972   0.206   3.225  0.5210 -0.0782  0.7579
  111MOL    C2220042   1.063   0.197   3.093  0.3771 -0.5610 -0.3097
  111MOL    H2320043   1.085   0.087   3.367 -0.2177 -0.8367 -0.5531
  111MOL    H2420044   0.990   0.217   3.444  0.4518 -0.3393  0.0408
  111MOL    H2520045   0.929   0.306   3.231 -1.8146 -1.1186  1.9686
  111MOL    H2620046   1.134   0.115   3.094  0.9041 -0.1099 -0.5385
  111MOL    H2720047   0.999   0.183   3.005  1.1226 -3.8421 -0.3934
  111MOL    H2820048   1.121   0.286   3.070  2.2761 -1.5553  0.4887
  111MOL    C2920049   0.848   0.120   3.213 -0.3346  1.1586  0.7332
  111MOL    C3020050   0.751   0.126   3.330 -0.3702  0.5594  0.2752
  111MOL    C3120051   0.717   0.270   3.375 -0.3782  0.5118 -0.1743
  111MOL    H3220052   0.800   0.148   3.120  1.9146 -0.3912 -0.9438
  111MOL    H3320053   0.891   0.020   3.203  2.1049  2.0996  1.3748
  111MOL    H3420054   0.800   0.081   3.416  1.3622 -0.1410 -1.0598
  111MOL    H3520055   0.800   0.337   3.398  0.3669 -0.4881  0.0887
  111MOL    H3620056   0.647   0.321   3.309  1.0825  2.3019 -0.3586
  111MOL    H3720057   0.666   0.264   3.471  0.5760 -0.1904  0.3038
  111MOL    C3820058   0.622   0.059   3.275  0.2965 -0.9712  0.5287
  111MOL    C3920059   0.503   0.043   3.364 -0.7275 -1.1633  0.0325
  111MOL    C4020060   0.386   7.659   3.301  0.3552 -0.1892  0.1981
  111MOL    H4120061   0.592   0.111   3.184  1.3327 -0.3129  0.5422
  111MOL    H4220062   0.658   7.659   3.241  1.3664 -0.6613  0.7351
  111MOL    H4320063   0.452   0.137   3.386 -0.2914 -0.5284 -1.6102
  111MOL    H4420064   0.302   7.657   3.370 -1.2928  0.9912 -1.7041
  111MOL    H4520065   0.337   0.010   3.216 -0.0460  2.3822  1.8448
  111MOL    H4620066   0.410   7.557   3.271  1.8642 -0.0039  0.7450
  111MOL    C4720067   0.541   7.668   3.498  0.0747  0.0526 -0.3355
  111MOL    C4820068   0.524   0.059   3.625  1.2467 -0.1950 -0.6370
  111MOL    C4920069   0.382   0.066   3.676  0.3382 -0.6848 -0.4627
  111MOL    H5020070   0.488   7.573   3.488  1.7499 -0.9179 -0.2893
  111MOL    H5120071   0.646   7.640   3.502  0.0699  0.1700  0.7512
  111MOL    H5220072   0.563   0.159   3.605 -1.2106  1.0583  0.5310
  111MOL    H5320073   0.366   0.137   3.756 -0.7344  0.8341 -1.9929
  111MOL    H5420074   0.315   0.117   3.607  0.3790 -1.4509 -1.0814
  111MOL    H5520075   0.340   7.664   3.697  0.4313 -0.7754 -0.7041
  111MOL    C5620076   0.615   7.697   3.735 -0.5777  0.0652 -0.3384
  111MOL    C5720077   0.754   0.072   3.753  0.3045  0.5176 -0.2418
  111MOL    C5820078   0.752   0.218   3.802  0.2387  0.0879 -0.0817
  111MOL    H5920079   0.576   7.684   3.836 -1.0555 -0.1453 -0.5443
  111MOL    H6020080   0.648   7.597   3.707 -0.1119  0.3423 -0.7785
  111MOL    H6120081   0.803   0.063   3.656 -1.2361 -0.3121 -0.9523
  111MOL    H6220082   0.652   0.260   3.787  0.7768  1.4893  0.2382
  111MOL    H6320083   0.768   0.223   3.909  1.6424 -2.2334 -0.1446
  111MOL    H6420084   0.821   0.281   3.746  0.0142  0.5173  0.1268
  111MOL    C6520085   0.842   7.679   3.849 -0.2875 -0.3583  0.5139
  111MOL    C6620086   0.999   0.001   3.839  0.4751 -0.1774 -0.5461
  111MOL    C6720087   1.035   0.135   3.912  0.6345  0.0998 -0.5070
  111MOL    H6820088   0.807   7.694   3.951 -0.6291 -0.6602  0.4421
  111MOL    H6920089   0.819   7.573   3.842 -3.7721  0.3200  0.5005
  111MOL    H7020090   1.031   7.696   3.734  0.2950  1.6451 -0.6564
  111MOL    H7120091   1.001   0.137   4.016 -2.0383 -3.3825 -1.2182
  111MOL    H7220092   1.143   0.134   3.924  0.5751 -1.8026 -0.0773
  111MOL    H7320093   1.008   0.233   3.872  0.7682  0.6713  0.7653
  111MOL    C7420094   1.078   7.593   3.914 -0.9745  0.2448  0.3522
  111MOL    C7520095   1.084   7.450   3.846  0.1567  0.2784 -0.0157
  111MOL    C7620096   1.177   7.453   3.721 -0.0366 -0.0831 -0.0768
  111MOL    H7720097   1.182   7.620   3.933 -0.2756 -2.7181  0.9778
  111MOL    H7820098   1.038   7.567   4.012 -5.1401 -0.8611 -1.5623
  111MOL    H7920099   0.984   7.429   3.806  0.4176  2.6020 -2.0260
  111MOL    H8020100   1.187   7.357   3.670 -0.9769 -1.4158  2.1431
  111MOL    H8120101   1.166   7.531   3.646 -0.6736  0.8594  0.9736
  111MOL    H8220102   1.280   7.467   3.752  0.2821  1.6757 -1.8446
  111MOL    C8320103   1.120   7.333   3.957  0.3926 -0.3284 -0.6038
  111MOL    C8420104   1.097   7.187   3.907 -0.4817 -1.1979 -0.8149
  111MOL    C8520105   1.153   7.105   4.021 -0.0563  0.1023 -0.7360
  111MOL    H8620106   1.225   7.353   3.974  0.4408 -0.8096 -0.3343
  111MOL    H8720107   1.070   7.353   4.052  1.1317  1.4149 -0.5658
  111MOL    H8820108   1.151   7.167   3.814  0.5979 -0.8904 -0.2583
  111MOL    H8920109   1.094   7.125   4.111  1.7930 -2.5054  1.1179
  111MOL    H9020110   1.148   6.997   4.005 -1.6253  0.2503 -1.3646
  111MOL    H9120111   1.256   7.136   4.035 -0.6387  1.6749  0.1345
  111MOL    C9220112   0.949   7.159   3.878  0.0252  0.1152  0.1018
  111MOL    C9320113   0.911   7.133   3.733  0.2032  0.3524  0.2978
  111MOL    C9420114   0.977   6.998   3.692  0.1697  0.2114 -0.2297
  111MOL    H9520115   0.917   7.082   3.949 -0.1368  0.1919  0.1114
  111MOL    H9620116   0.891   7.242   3.918 -0.2359  0.2079 -0.4771
  111MOL    H9720117   0.962   7.200   3.665  2.4076 -0.8175  0.7439
  111MOL    H9820118   0.935   6.918   3.752 -1.0075  0.3629 -0.8374
  111MOL    H9920119   0.964   6.972   3.587  0.3241  1.9396 -0.6896
  111MOL   H10020120   1.085   6.997   3.710  0.0344 -0.1289  0.5771
  111MOL   C10120121   0.757   7.128   3.712 -0.8264  0.7413 -0.5008
  111MOL   C10220122   0.701   7.273   3.682 -0.0119  0.4196  0.7134
  111MOL   C10320123   0.712   7.302   3.528 -0.5844 -0.4707  0.2836
  111MOL   H10420124   0.720   7.064   3.632  1.1728 -0.5629 -0.3940
  111MOL   H10520125   0.706   7.082   3.797  0.0441  1.8797  0.6565
  111MOL   H10620126   0.773   7.344   3.722 -0.3507  0.5732  1.0588
  111MOL   H10720127   0.668   7.220   3.470 -0.9531  0.7953 -1.2429
  111MOL   H10820128   0.676   7.400   3.497  0.7669  0.2981  1.0959
  111MOL   H10920129   0.815   7.291   3.497 -0.6811  1.9707 -1.0049
  111MOL   C11020130   0.561   7.307   3.740 -0.7234  0.0867 -0.1964
  111MOL   C11120131   0.436   7.213   3.711 -0.5016 -0.2302  0.1090
  111MOL   C11220132   0.338   7.226   3.833 -0.4745 -0.1433  0.4792
  111MOL   H11320133   0.589   7.303   3.846 -1.4741 -1.0246 -0.0282
  111MOL   H11420134   0.527   7.409   3.720 -0.8309 -0.2343 -1.7181
  111MOL   H11520135   0.457   7.106   3.714  0.0327 -0.1293 -0.0299
  111MOL   H11620136   0.382   7.209   3.931 -0.5777 -0.1026  0.5327
  111MOL   H11720137   0.289   7.324   3.833 -0.7820 -0.2958  0.7935
  111MOL   H11820138   0.259   7.152   3.823  1.4899 -1.9772 -2.0922
  111MOL   C11920139   0.364   7.250   3.581  0.3734  0.6131 -0.6821
  111MOL   C12020140   0.231   7.172   3.540 -1.1357 -1.1247 -0.4289
  111MOL   C12120141   0.153   7.247   3.431 -0.1831  0.3898 -0.5049
  111MOL   H12220142   0.332   7.354   3.580 -0.6408  0.3080 -1.5329
  111MOL   H12320143   0.436   7.261   3.499  0.1676 -0.6113 -1.0364
  111MOL   H12420144   0.169   7.165   3.629  0.0003 -3.2213  0.2471
  111MOL   H12520145   0.192   7.224   3.332  0.8080  0.9822 -0.2519
  111MOL   H12620146   0.047   7.221   3.429  0.3133 -1.8187 -0.1943
  111MOL   H12720147   0.161   7.355   3.430 -1.3927  0.4889 -1.9665
  111MOL   C12820148   0.265   7.032   3.501 -0.3683  0.4682  0.1929
  111MOL   C12920149   0.140   6.935   3.497 -0.5481 -0.0039  0.4082
  111MOL   C13020150   0.161   6.816   3.404 -0.1870  0.0677 -0.5252
  111MOL   H13120151   0.325   7.030   3.410  0.9949 -2.2831  1.0852
  111MOL   H13220152   0.334   6.985   3.570 -1.2868 -1.0600  0.0940
  111MOL   H13320153   0.067   6.998   3.448 -0.5330  1.9812  2.8317
  111MOL   H13420154   0.079   6.748   3.383 -0.9170  0.8080 -0.1060
  111MOL   H13520155   0.198   6.851   3.308  0.1201  1.5282  0.1065
  111MOL   H13620156   0.233   6.748   3.450 -1.0619 -1.7154 -1.7412
  111MOL   C13720157   0.078   6.886   3.634 -0.1632 -1.1684 -0.4675
  111MOL   C13820158   7.639   6.816   3.630 -0.0271  0.3875 -0.3034
  111MOL   C13920159   7.638   6.685   3.718 -0.6035  0.5358  0.1387
  111MOL   H14020160   0.152   6.826   3.687 -0.2542 -0.9157 -0.0533
  111MOL   H14120161   0.077   6.965   3.710 -1.2439  2.1553 -3.7739
  111MOL   H14220162   7.629   6.780   3.528 -1.5703  0.2924 -0.1276
  111MOL   H14320163   7.557   6.615   3.696  0.3951 -0.3426 -0.7476
  111MOL   H14420164   0.031   6.626   3.706 -0.8705  0.4538 -1.5959
  111MOL   H14520165   7.633   6.710   3.825  1.0436 -1.1552  0.6273
  111MOL   C14620166   7.519   6.896   3.675 -0.1864  0.3626 -0.2122
  111MOL   C14720167   7.475   7.024   3.602  0.4376 -0.2858  0.2999
  111MOL   C14820168   7.449   7.000   3.452 -0.1872 -0.0489  0.5920
  111MOL   H14920169   7.438   6.825   3.689 -0.9129  1.0379 -0.9391
  111MOL   H15020170   7.542   6.933   3.775  2.3556  0.5994 -0.8353
  111MOL   H15120171   7.556   7.095   3.619 -0.9573  1.2334  0.7649
  111MOL   H15220172   7.529   6.938   3.411 -0.8496 -1.2153  1.0403
  111MOL   H15320173   7.364   6.947   3.410  0.7160 -2.6331  1.9206
  111MOL   H15420174   7.452   7.095   3.398 -1.8013  0.2487  1.0139
  111MOL   C15520175   7.355   7.082   3.665 -0.2475  0.6117  0.2396
  111MOL   C15620176   7.302   7.226   3.615 -0.6232 -0.0436 -0.3267
  111MOL   C15720177   7.145   7.222   3.605  0.3153  0.6427  0.3014
  111MOL   H15820178   7.279   7.006   3.647  1.4183 -0.8173 -0.9727
  111MOL   H15920179   7.379   7.094   3.770  1.0337 -0.7056  0.1252
  111MOL   H16020180   7.336   7.231   3.512 -1.7037 -3.6477 -0.9281
  111MOL   H16120181   7.117   7.141   3.537 -1.5623  1.2740  0.3163
  111MOL   H16220182   7.107   7.186   3.700  0.0384  0.1112 -0.0096
  111MOL   H16320183   7.100   7.316   3.576 -3.6732 -1.1525  0.4097
  111MOL   C16420184   7.349   7.342   3.696 -0.0382  0.1669  0.4169
  111MOL   C16520185   7.495   7.385   3.686 -0.4264 -0.4375 -0.1748
  111MOL   C16620186   7.517   7.444   3.549  0.0033  0.8620 -0.5338
  111MOL   H16720187   7.304   7.432   3.654  1.4168  0.9262  0.4379
  111MOL   H16820188   7.321   7.319   3.799 -0.6090 -0.0479  0.2144
  111MOL   H16920189   7.565   7.302   3.697  0.1421 -0.4315 -3.3545
  111MOL   H17020190   7.620   7.475   3.528  0.3620  0.9223  1.2075
  111MOL   H17120191   7.497   7.377   3.465  1.7234 -1.0515  0.5442
  111MOL   H17220192   7.470   7.541   3.532 -0.2249  1.0400  1.0660
  111MOL   C17320193   7.523   7.488   3.802  0.2682  0.1983  0.4247
  111MOL   C17420194   7.672   7.535   3.803  0.1072 -0.0517 -0.1047
  111MOL   C17520195   0.011   7.623   3.919 -0.5521 -0.1272 -0.5114
  111MOL   H17620196   7.458   7.575   3.803 -1.2953 -0.9567  1.0914
  111MOL   H17720197   7.509   7.434   3.896  0.2799  1.1789  0.9962
  111MOL   H17820198   0.002   7.580   3.707 -0.5203 -1.0379 -0.7508
  111MOL   H17920199   7.658   0.022   3.909 -2.0906 -0.8361  0.2636
  111MOL   H18020200   7.672   7.583   4.013 -3.4350  1.7276 -0.7781
  111MOL   H18120201   0.119   7.635   3.922 -0.5311  0.1437 -1.7743
  111MOL   H18220202   0.041   7.449   3.803  0.3323  0.1153  1.4039
  112MOL     C120203   1.399   3.776   4.112 -0.2669 -0.1891 -1.1832
  112MOL     C220204   1.319   3.905   4.107  0.0674 -0.7569 -1.2305
  112MOL     C320205   1.175   3.876   4.078 -0.7799 -0.6299 -0.5782
  112MOL     H420206   1.342   3.689   4.145 -0.9394  0.3137 -1.0245
  112MOL     H520207   1.497   3.780   4.160 -0.7271  0.4544 -0.2877
  112MOL     H620208   1.361   3.959   4.023  0.7519 -0.4185 -0.6649
  112MOL     H720209   1.178   3.809   3.992 -0.8212  0.4776 -1.4685
  112MOL     H820210   1.109   3.851   4.161  0.7804 -3.0102 -0.0321
  112MOL     H920211   1.132   3.962   4.027  0.7632  0.4228 -0.1492
  112MOL    H1020212   1.414   3.752   4.007  0.2231  1.7963 -1.5928
  112MOL    C1120213   1.330   3.987   4.236 -0.6094 -1.4457 -0.4793
  112MOL    C1220214   1.307   4.141   4.232 -0.4461 -0.1492 -0.4311
  112MOL    C1320215   1.190   4.193   4.146  0.1909 -0.5941  0.7596
  112MOL    H1420216   1.273   3.932   4.310  1.2209 -1.4064  0.9934
  112MOL    H1520217   1.435   3.977   4.265  0.4022  2.9263 -2.1942
  112MOL    H1620218   1.391   4.183   4.176  0.1786  0.0094  0.6076
  112MOL    H1720219   1.095   4.156   4.185 -1.2426  1.4672 -0.6651
  112MOL    H1820220   1.164   4.299   4.137 -0.0554 -0.7676 -0.6856
  112MOL    H1920221   1.215   4.164   4.045  1.7753  1.5004  0.5173
  112MOL    C2020222   1.293   4.203   4.378  0.9048 -0.8024  0.4471
  112MOL    C2120223   1.408   4.197   4.473  0.1813 -0.6106 -0.0300
  112MOL    C2220224   1.535   4.251   4.404 -1.4196 -0.0540  0.0061
  112MOL    H2320225   1.283   4.310   4.364  0.1643 -0.7045  1.6728
  112MOL    H2420226   1.200   4.164   4.421  1.1872  0.8351  2.5980
  112MOL    H2520227   1.436   4.097   4.505  2.3624  0.7392  2.5427
  112MOL    H2620228   1.557   4.178   4.326  1.4131 -0.1170  0.8101
  112MOL    H2720229   1.516   4.347   4.356 -0.2303  0.4547  0.5361
  112MOL    H2820230   1.617   4.267   4.474 -0.2871 -3.1267 -0.5662
  112MOL    C2920231   1.370   4.271   4.602  0.4559 -0.5566  0.1785
  112MOL    C3020232   1.345   4.185   4.730  0.3355 -0.6944 -0.3410
  112MOL    C3120233   1.482   4.138   4.785  0.3081  0.4215 -0.1340
  112MOL    H3220234   1.445   4.348   4.619  0.4937 -0.8124  1.2202
  112MOL    H3320235   1.285   4.336   4.581  0.5791 -0.7851 -1.0765
  112MOL    H3420236   1.283   4.101   4.698 -1.3068  0.4878 -0.3169
  112MOL    H3520237   1.545   4.105   4.702 -0.8537  0.1632 -0.9216
  112MOL    H3620238   1.545   4.219   4.820 -1.0543  0.8700  1.2936
  112MOL    H3720239   1.477   4.053   4.853  0.4106  0.8389  0.3955
  112MOL    C3820240   1.275   4.264   4.846  0.0094  0.4880 -0.3492
  112MOL    C3920241   1.214   4.190   4.967  0.5124  0.5250  0.0463
  112MOL    C4020242   1.180   4.276   5.089 -0.5655 -0.7706 -0.6261
  112MOL    H4120243   1.344   4.344   4.872  0.1160  0.1279  0.5140
  112MOL    H4220244   1.201   4.322   4.790 -0.3898  1.0273  0.7202
  112MOL    H4320245   1.308   4.151   5.005 -0.1423  0.9661  2.1875
  112MOL    H4420246   1.274   4.323   5.118  0.1809 -0.4475 -3.4596
  112MOL    H4520247   1.104   4.351   5.068 -0.6302 -0.5624  0.3086
  112MOL    H4620248   1.149   4.217   5.176 -0.1122  0.1233  0.1500
  112MOL    C4720249   1.097   4.099   4.926 -0.4101  0.5939  0.1187
  112MOL    C4820250   1.086   3.971   5.007  0.2291  0.0689 -0.5585
  112MOL    C4920251   0.939   3.926   5.030 -0.1396 -0.7600  0.2106
  112MOL    H5020252   1.010   4.164   4.926 -0.0565  1.0745 -0.3385
  112MOL    H5120253   1.099   4.070   4.821 -0.6698 -2.9061  1.0164
  112MOL    H5220254   1.125   3.994   5.106  0.6187  0.0162 -0.6996
  112MOL    H5320255   0.916   3.832   5.080  0.0932 -1.4428 -0.9517
  112MOL    H5420256   0.900   4.016   5.078 -2.7354 -0.8222 -1.7041
  112MOL    H5520257   0.898   3.911   4.930  0.6390 -1.8391  0.0393
  112MOL    C5620258   1.160   3.851   4.944 -0.3860 -0.1296  0.5543
  112MOL    C5720259   1.178   3.726   5.041 -0.0970  0.2137  0.4408
  112MOL    C5820260   1.115   3.598   4.983 -0.2468  0.1296 -0.1835
  112MOL    H5920261   1.101   3.835   4.853  0.6223  2.2633 -0.5745
  112MOL    H6020262   1.258   3.884   4.911 -0.5530 -0.7151 -0.5677
  112MOL    H6120263   1.118   3.740   5.131 -0.5720  2.9908 -0.2517
  112MOL    H6220264   1.137   3.527   5.062  2.3507  1.9176  0.7630
  112MOL    H6320265   1.006   3.605   4.974 -0.2347 -1.4846 -1.7479
  112MOL    H6420266   1.164   3.561   4.894 -1.7366 -1.2169 -0.4715
  112MOL    C6520267   1.324   3.692   5.080  0.1158 -0.0369  0.0380
  112MOL    C6620268   1.404   3.794   5.163 -0.8899 -0.0138 -0.2732
  112MOL    C6720269   1.333   3.813   5.300  0.0599  0.0417  0.0775
  112MOL    H6820270   1.309   3.598   5.133  2.3071  0.4448  1.5463
  112MOL    H6920271   1.383   3.659   4.994 -0.4324 -2.1843  0.4570
  112MOL    H7020272   1.416   3.887   5.108 -1.1541 -0.5469 -1.2381
  112MOL    H7120273   1.288   3.728   5.350  1.3702 -0.5138  0.3152
  112MOL    H7220274   1.394   3.870   5.370  0.4866 -1.2676  0.7826
  112MOL    H7320275   1.252   3.885   5.284 -1.5362 -1.5299  1.0109
  112MOL    C7420276   1.545   3.735   5.177 -0.2483  0.1270  0.3395
  112MOL    C7520277   1.648   3.841   5.225  0.3516  0.1421 -0.1675
  112MOL    C7620278   1.767   3.761   5.292  0.1523 -0.2693  0.8597
  112MOL    H7720279   1.547   3.651   5.247  1.7987 -1.0949 -1.1207
  112MOL    H7820280   1.589   3.694   5.086 -2.4249 -0.3720 -0.5090
  112MOL    H7920281   1.617   3.905   5.307  0.5960  0.4693 -0.3282
  112MOL    H8020282   1.788   3.682   5.220 -0.8324 -0.2810  0.5632
  112MOL    H8120283   1.854   3.822   5.313  0.0931 -0.0647  0.5208
  112MOL    H8220284   1.738   3.722   5.389 -1.1905  2.7376  1.7387
  112MOL    C8320285   1.699   3.924   5.105 -0.8930 -0.6561  0.6578
  112MOL    C8420286   1.753   4.060   5.145  0.0881  0.1805  0.7393
  112MOL    C8520287   1.876   4.086   5.048  0.8187 -0.1117 -0.3705
  112MOL    H8620288   1.770   3.861   5.051 -0.2466  0.9080 -0.3589
  112MOL    H8720289   1.619   3.930   5.031 -0.8345  0.6210  0.7039
  112MOL    H8820290   1.791   4.052   5.247  1.1852  0.0801  0.3371
  112MOL    H8920291   1.952   4.009   5.060  1.4895  0.8066  1.3773
  112MOL    H9020292   1.851   4.094   4.942 -1.7215  0.2653  0.2127
  112MOL    H9120293   1.920   4.183   5.071  0.7556  0.6313 -3.1447
  112MOL    C9220294   1.652   4.179   5.142 -0.3814 -0.2903  0.4142
  112MOL    C9320295   1.706   4.302   5.215 -0.2928 -0.6174  0.8448
  112MOL    C9420296   1.638   4.422   5.159 -0.4462  1.0039  0.4931
  112MOL    H9520297   1.647   4.206   5.036  4.6843  1.7350  0.5593
  112MOL    H9620298   1.554   4.144   5.173 -0.6066  1.8867  2.3394
  112MOL    H9720299   1.813   4.309   5.192 -0.0702 -2.2486  1.3040
  112MOL    H9820300   1.530   4.409   5.167 -0.7125  3.1831  0.7938
  112MOL    H9920301   1.669   4.511   5.214  1.6705  1.2111 -0.9805
  112MOL   H10020302   1.643   4.430   5.050 -0.8046  1.1522  0.4873
  112MOL   C10120303   1.677   4.294   5.369 -0.1547 -0.7923  0.4820
  112MOL   C10220304   1.796   4.321   5.463 -0.0587  0.1266  0.0982
  112MOL   C10320305   1.893   4.201   5.466 -0.0544  0.6075 -0.5244
  112MOL   H10420306   1.590   4.359   5.379 -0.3268 -1.0268  0.5114
  112MOL   H10520307   1.650   4.192   5.394  0.3486 -0.3666  2.9421
  112MOL   H10620308   1.751   4.317   5.562 -0.4987  1.5317 -0.0348
  112MOL   H10720309   1.941   4.193   5.369 -0.1655 -1.0177 -0.4582
  112MOL   H10820310   1.966   4.214   5.546  1.9007  0.2266 -2.2032
  112MOL   H10920311   1.848   4.104   5.485 -1.4631  1.2332 -0.5580
  112MOL   C11020312   1.871   4.458   5.455 -0.5151 -0.7545  0.3654
  112MOL   C11120313   1.792   4.581   5.491 -0.9392 -0.1241 -0.1771
  112MOL   C11220314   1.746   4.586   5.640  0.1922  0.6355  0.0365
  112MOL   H11320315   1.948   4.461   5.532 -0.7747  1.0345  0.5715
  112MOL   H11420316   1.927   4.458   5.361  1.4772 -1.6403  1.5220
  112MOL   H11520317   1.698   4.578   5.438 -1.1216  1.9494 -0.0078
  112MOL   H11620318   1.674   4.666   5.655 -0.2063 -0.0028  1.7176
  112MOL   H11720319   1.697   4.495   5.677  4.0763 -1.2459  0.8208
  112MOL   H11820320   1.828   4.597   5.711 -0.6861 -0.5948  1.2938
  112MOL   C11920321   1.863   4.711   5.443  0.2791 -0.6144  0.3085
  112MOL   C12020322   1.782   4.839   5.454 -0.5249  0.0155  0.4431
  112MOL   C12120323   1.881   4.962   5.436 -0.1210  0.2120 -0.2130
  112MOL   H12220324   1.957   4.731   5.493  1.0358  1.2131 -1.7514
  112MOL   H12320325   1.884   4.696   5.337 -3.1812 -3.8326 -0.0374
  112MOL   H12420326   1.744   4.860   5.553  0.2899  0.7737  0.6099
  112MOL   H12520327   1.934   4.962   5.341  0.3045  3.0882 -0.0217
  112MOL   H12620328   1.821   5.053   5.432 -0.3101  0.1715  1.1650
  112MOL   H12720329   1.958   4.972   5.513 -1.3044 -0.3589  1.0725
  112MOL   C12820330   1.660   4.859   5.362  0.6142  0.0362 -0.0569
  112MOL   C12920331   1.519   4.894   5.425 -0.0704 -0.4412 -0.6993
  112MOL   C13020332   1.511   5.034   5.485 -0.2150  0.0199 -0.3143
  112MOL   H13120333   1.689   4.936   5.291  0.9207 -1.0674 -1.1544
  112MOL   H13220334   1.644   4.766   5.307  0.0112  1.0494 -1.6375
  112MOL   H13320335   1.515   4.816   5.502 -1.9481  0.7727  0.4602
  112MOL   H13420336   1.433   5.029   5.560  1.5558 -2.7385  1.4284
  112MOL   H13520337   1.607   5.061   5.529  0.2174  0.5867 -1.5702
  112MOL   H13620338   1.488   5.103   5.403 -0.4881  0.6177  0.2635
  112MOL   C13720339   1.398   4.862   5.328  0.4782 -0.8232  0.1404
  112MOL   C13820340   1.367   4.716   5.292  0.5942  0.0061 -0.3285
  112MOL   C13920341   1.354   4.630   5.418  0.6745  0.7484  0.1574
  112MOL   H14020342   1.304   4.897   5.370  0.7176  0.9050 -0.7054
  112MOL   H14120343   1.424   4.929   5.246 -1.4786  1.6480  1.4854
  112MOL   H14220344   1.454   4.679   5.237  1.5115  1.5131  0.0693
  112MOL   H14320345   1.447   4.628   5.475 -0.3027 -0.1913  1.7533
  112MOL   H14420346   1.273   4.660   5.486  0.1017 -1.4578  0.4936
  112MOL   H14520347   1.340   4.528   5.382 -2.1143  0.7974  0.9607
  112MOL   C14620348   1.241   4.697   5.205 -0.3670  0.3894  0.3203
  112MOL   C14720349   1.223   4.782   5.072 -0.6492 -0.2012  0.0200
  112MOL   C14820350   1.326   4.731   4.973 -0.4986 -0.8434 -0.4433
  112MOL   H14920351   1.228   4.591   5.187  1.4126 -0.1306  1.8852
  112MOL   H15020352   1.153   4.727   5.263  0.2753  0.2090  1.4019
  112MOL   H15120353   1.252   4.885   5.095 -1.0579  0.0472 -0.5605
  112MOL   H15220354   1.425   4.755   5.011 -2.0967  3.7985  1.0261
  112MOL   H15320355   1.330   4.622   4.972  0.9020 -0.8078  0.0418
  112MOL   H15420356   1.322   4.776   4.874 -0.1892 -0.6788 -0.3799
  112MOL   C15520357   1.083   4.777   5.010  0.5744  0.0319  0.2772
  112MOL   C15620358   0.970   4.816   5.109  0.1712 -0.0236  0.9183
  112MOL   C15720359   0.997   4.955   5.166  0.4516  0.0730 -0.5094
  112MOL   H15820360   1.072   4.841   4.922 -3.1970  0.2218  0.8042
  112MOL   H15920361   1.064   4.678   4.969 -2.7615  0.6649  0.1203
  112MOL   H16020362   0.962   4.734   5.181 -0.7051  0.1855  1.0590
  112MOL   H16120363   1.019   5.032   5.092  2.6964  0.3568  0.4169
  112MOL   H16220364   0.914   4.988   5.228  1.4055  0.4442  0.5651
  112MOL   H16320365   1.081   4.954   5.234  0.8671  1.3434 -0.9872
  112MOL   C16420366   0.833   4.813   5.030  0.0644  0.1167 -0.1154
  112MOL   C16520367   0.765   4.685   4.985 -0.2628 -0.2484  0.1917
  112MOL   C16620368   0.753   4.574   5.087  0.9081 -0.0069  0.7253
  112MOL   H16720369   0.761   4.880   5.076  0.2438  0.5138 -0.4022
  112MOL   H16820370   0.851   4.852   4.929  1.1605  1.1055  0.4556
  112MOL   H16920371   0.839   4.640   4.919  2.1477  1.7784  1.3902
  112MOL   H17020372   0.709   4.480   5.054 -1.0938  0.4207  2.0945
  112MOL   H17120373   0.850   4.565   5.135  1.5117 -1.0050 -0.6558
  112MOL   H17220374   0.680   4.607   5.161 -1.9557 -0.8106 -1.6153
  112MOL   C17320375   0.643   4.698   4.901  0.2424  0.2679 -0.7339
  112MOL   C17420376   0.655   4.772   4.763 -0.1912  0.0359  0.1446
  112MOL   C17520377   0.538   4.736   4.678  0.8459  0.0082  0.6470
  112MOL   H17620378   0.615   4.594   4.884 -0.8906  0.3452  0.5396
  112MOL   H17720379   0.574   4.752   4.967 -1.5415 -0.7899 -1.6794
  112MOL   H17820380   0.751   4.743   4.721 -0.3461  2.5634 -2.0803
  112MOL   H17920381   0.550   4.805   4.595 -1.9772  0.0724  0.2608
  112MOL   H18020382   0.534   4.629   4.656  1.3832 -0.5181  2.9013
  112MOL   H18120383   0.444   4.765   4.724  0.3878  0.7880 -0.7725
  112MOL   H18220384   0.662   4.880   4.773 -1.8400  0.2632 -0.9757
  113MOL     C120385   1.886   3.605   6.295 -0.1273 -0.2928  0.1552
  113MOL     C220386   1.769   3.618   6.393 -0.2554  0.0014 -0.3704
  113MOL     C320387   1.752   3.773   6.422  0.1800  0.6490  0.3576
  113MOL     H420388   1.925   3.503   6.302  0.7855  0.0452  0.1177
  113MOL     H520389   1.970   3.667   6.327  0.4253  0.5614 -2.7498
  113MOL     H620390   1.802   3.568   6.484 -0.4411 -1.4239 -1.0729
  113MOL     H720391   1.844   3.813   6.464  0.1247 -1.1913  2.2911
  113MOL     H820392   1.718   3.827   6.334 -0.9831 -0.4589  0.1136
  113MOL     H920393   1.683   3.780   6.506  0.3911 -0.4364  0.6289
  113MOL    H1020394   1.855   3.610   6.191 -0.5632 -2.6784  0.1475
  113MOL    C1120395   1.655   3.540   6.338  0.0886 -0.1046 -0.8091
  113MOL    C1220396   1.526   3.520   6.418 -0.3394 -0.2769 -0.2470
  113MOL    C1320397   1.561   3.456   6.554  0.1372 -0.9273 -0.3958
  113MOL    H1420398   1.623   3.572   6.239 -1.8370 -0.0940 -0.1857
  113MOL    H1520399   1.700   3.443   6.318  0.7098  0.4660 -2.2709
  113MOL    H1620400   1.465   3.456   6.354 -1.4303  1.1969 -0.7207
  113MOL    H1720401   1.602   3.522   6.630 -0.8349  1.0448 -1.5398
  113MOL    H1820402   1.503   3.373   6.593  0.0873 -0.5328  0.3822
  113MOL    H1920403   1.654   3.400   6.545  0.8126 -0.0906  1.1840
  113MOL    C2020404   1.445   3.649   6.436 -0.7890  0.0217  0.7435
  113MOL    C2120405   1.296   3.628   6.472  0.5031  0.7719  0.1450
  113MOL    C2220406   1.219   3.760   6.482 -0.3427 -1.0068 -0.7370
  113MOL    H2320407   1.484   3.698   6.525  1.1878 -1.3595  0.6801
  113MOL    H2420408   1.460   3.717   6.352  0.2045 -0.8592  0.1794
  113MOL    H2520409   1.296   3.578   6.569  1.6902  1.0437  0.2866
  113MOL    H2620410   1.134   3.762   6.550 -0.5972  0.8210 -1.0694
  113MOL    H2720411   1.289   3.832   6.524 -1.8530 -0.1934  0.4583
  113MOL    H2820412   1.181   3.794   6.386  0.0133 -1.2895 -0.9784
  113MOL    C2920413   1.215   3.531   6.378 -0.0263  0.2904  0.2775
  113MOL    C3020414   1.065   3.514   6.407  0.2149 -0.1418  0.0375
  113MOL    C3120415   0.992   3.406   6.312  0.0115  0.5319  0.0089
  113MOL    H3220416   1.211   3.560   6.273 -0.3563  0.8992  0.4589
  113MOL    H3320417   1.258   3.432   6.397 -0.9588 -0.6194 -2.0797
  113MOL    H3420418   1.026   3.615   6.396 -0.6190 -0.4981 -0.3479
  113MOL    H3520419   1.033   3.306   6.332 -0.8272  0.1843  0.0161
  113MOL    H3620420   0.888   3.415   6.342  0.0405  0.5709  0.0978
  113MOL    H3720421   1.003   3.431   6.207 -0.8150 -2.6703 -0.9042
  113MOL    C3820422   1.040   3.472   6.554  0.1007 -0.2654 -0.1522
  113MOL    C3920423   0.897   3.460   6.602  0.0398  0.8922  0.2169
  113MOL    C4020424   0.854   3.309   6.606  0.0858  0.4770  0.5669
  113MOL    H4120425   1.099   3.384   6.578 -0.9016 -0.9160 -0.0492
  113MOL    H4220426   1.087   3.552   6.612  1.6438 -2.7090  2.0870
  113MOL    H4320427   0.835   3.495   6.519 -1.9968 -0.1226  1.2554
  113MOL    H4420428   0.907   3.252   6.529 -1.9537 -1.5155  0.5706
  113MOL    H4520429   0.868   3.249   6.696 -1.0401 -2.7956 -1.3576
  113MOL    H4620430   0.748   3.308   6.583  0.5799 -0.4486 -1.7818
  113MOL    C4720431   0.878   3.526   6.744 -0.2521  0.1611 -0.5879
  113MOL    C4820432   0.741   3.509   6.811 -0.9274  0.2202  0.1488
  113MOL    C4920433   0.739   3.538   6.961  0.1878  0.2937 -0.2672
  113MOL    H5020434   0.954   3.478   6.806  1.0718  1.4370 -1.2079
  113MOL    H5120435   0.914   3.628   6.742  1.7404 -0.5067 -0.4109
  113MOL    H5220436   0.710   3.408   6.787 -0.4009 -0.1904  1.1573
  113MOL    H5320437   0.753   3.642   6.990  1.3503 -0.1123  0.6607
  113MOL    H5420438   0.644   3.514   7.008  0.7198 -0.3970  0.4823
  113MOL    H5520439   0.808   3.469   7.011  0.7005 -1.2439 -3.0007
  113MOL    C5620440   0.641   3.605   6.740 -0.9713  0.0679  0.2974
  113MOL    C5720441   0.498   3.622   6.797  0.5477 -0.0645  0.1074
  113MOL    C5820442   0.430   3.751   6.735 -0.0449  0.2842  0.6937
  113MOL    H5920443   0.689   3.702   6.745  0.2865 -0.6531  3.1115
  113MOL    H6020444   0.639   3.576   6.635  1.0390 -0.6613  0.4345
  113MOL    H6120445   0.515   3.634   6.904  2.7086  1.1646 -0.3430
  113MOL    H6220446   0.350   3.787   6.798  1.3369  2.4819  1.2683
  113MOL    H6320447   0.498   3.836   6.750  0.0567  0.2768  0.3044
  113MOL    H6420448   0.400   3.746   6.630  1.7160 -0.3899  0.1941
  113MOL    C6520449   0.407   3.503   6.756 -0.7171 -0.0299  0.3785
  113MOL    C6620450   0.291   3.469   6.853  0.0447  0.5557 -0.1198
  113MOL    C6720451   0.190   3.373   6.785  0.0066  0.1514 -0.3110
  113MOL    H6820452   0.372   3.535   6.657 -0.5258 -0.2296  0.2483
  113MOL    H6920453   0.464   3.411   6.753 -1.9021 -0.8016  1.3799
  113MOL    H7020454   0.241   3.561   6.883  0.0667 -0.0611  1.8932
  113MOL    H7120455   0.152   3.414   6.692 -2.9228  4.7132  2.7109
  113MOL    H7220456   0.238   3.277   6.765  1.5122  0.1012  3.2338
  113MOL    H7320457   0.107   3.366   6.855 -0.8035  0.8573 -1.2008
  113MOL    C7420458   0.348   3.409   6.981 -0.0825 -0.2340 -0.1844
  113MOL    C7520459   0.248   3.406   7.099 -0.6700 -0.1957 -0.1754
  113MOL    C7620460   0.297   3.288   7.186  0.0399 -0.6564  0.7633
  113MOL    H7720461   0.398   3.317   6.951  1.1170  0.5898 -0.7806
  113MOL    H7820462   0.440   3.452   7.019  1.0467 -2.9631  0.2638
  113MOL    H7920463   0.146   3.384   7.068 -0.6936 -1.2578  0.6459
  113MOL    H8020464   0.379   3.313   7.253  0.0721  0.6558  0.2496
  113MOL    H8120465   0.211   3.269   7.251  0.1588  1.7310  1.6655
  113MOL    H8220466   0.318   3.198   7.129  0.1023 -0.0480 -0.1730
  113MOL    C8320467   0.253   3.549   7.164 -0.1727  0.1532  0.0175
  113MOL    C8420468   0.127   3.569   7.243 -0.1542 -0.1309  0.4552
  113MOL    C8520469   0.136   3.683   7.349 -0.4032  0.1500 -1.2603
  113MOL    H8620470   0.338   3.558   7.231  0.0928  0.8642 -0.4154
  113MOL    H8720471   0.255   3.630   7.092 -0.3660  2.0573  2.1165
  113MOL    H8820472   0.102   3.473   7.288  3.7513 -1.5676 -0.2860
  113MOL    H8920473   0.046   3.699   7.408  0.8863  0.4001  0.6930
  113MOL    H9020474   0.218   3.670   7.420 -0.1429 -0.4783 -1.6683
  113MOL    H9120475   0.151   3.785   7.313 -1.2369  1.4386  1.8083
  113MOL    C9220476   0.012   3.608   7.145 -0.7388  0.3804 -0.2513
  113MOL    C9320477   7.571   3.615   7.213 -0.5165 -0.6758 -0.3606
  113MOL    C9420478   7.475   3.669   7.102 -0.3180  0.1262 -0.5472
  113MOL    H9520479   0.030   3.708   7.105 -0.5596  1.0225  1.4132
  113MOL    H9620480   0.006   3.544   7.057 -1.8322  0.1395 -0.0042
  113MOL    H9720481   7.575   3.690   7.291 -0.7985 -2.9026  1.8409
  113MOL    H9820482   7.461   3.601   7.019  0.3671 -1.9625  1.0165
  113MOL    H9920483   7.378   3.691   7.146 -0.5007  0.9056 -1.3255
  113MOL   H10020484   7.510   3.759   7.051 -0.4571 -0.4717 -1.6883
  113MOL   C10120485   7.528   3.484   7.271  1.5659 -0.1035 -0.2932
  113MOL   C10220486   7.524   3.473   7.427  0.1787  0.1267  0.4610
  113MOL   C10320487   7.418   3.564   7.485  0.4258 -0.2692 -0.6226
  113MOL   H10420488   7.428   3.465   7.233  1.0022  0.9844  0.6261
  113MOL   H10520489   7.594   3.404   7.235 -0.4262 -3.1251  2.4254
  113MOL   H10620490   7.623   3.505   7.459  0.4747 -0.7997  0.5008
  113MOL   H10720491   7.438   3.670   7.468 -0.0613  0.4441  2.9024
  113MOL   H10820492   7.316   3.561   7.447 -0.3753  0.4041  1.4251
  113MOL   H10920493   7.394   3.555   7.591 -0.3292  2.8464 -0.4801
  113MOL   C11020494   7.506   3.333   7.487 -0.5145  1.5433  0.3424
  113MOL   C11120495   7.619   3.223   7.464  0.2961  0.0328  0.8447
  113MOL   C11220496   0.047   3.251   7.545 -0.1276 -0.3081 -0.3664
  113MOL   H11320497   7.501   3.339   7.596  0.3688 -0.3024  0.4982
  113MOL   H11420498   7.411   3.289   7.458 -0.2344  0.6307  0.8085
  113MOL   H11520499   7.644   3.223   7.357  2.1506 -1.9727  1.2439
  113MOL   H11620500   0.110   3.337   7.523 -0.1748 -0.2010 -0.0735
  113MOL   H11720501   0.023   3.242   7.651  2.9640 -0.2280  0.3975
  113MOL   H11820502   0.119   3.171   7.521 -1.0183 -0.8778 -1.1868
  113MOL   C11920503   7.575   3.073   7.481 -0.1219 -0.4579  0.0717
  113MOL   C12020504   7.456   3.021   7.392 -0.4124 -0.1352  0.7451
  113MOL   C12120505   7.460   3.076   7.248  0.6579  0.4765 -0.6023
  113MOL   H12220506   7.657   3.004   7.461  1.8532  0.7327  3.6398
  113MOL   H12320507   7.554   3.050   7.585  0.5414 -0.3043  0.2436
  113MOL   H12420508   7.363   3.047   7.444  1.2945  0.1351  3.8050
  113MOL   H12520509   7.551   3.046   7.196  0.7425  2.0491 -1.4046
  113MOL   H12620510   7.375   3.049   7.185  0.6003 -2.7039  0.7356
  113MOL   H12720511   7.467   3.185   7.240  0.4491  0.4177 -1.6376
  113MOL   C12820512   7.458   2.869   7.371  0.4416  0.1005 -0.1605
  113MOL   C12920513   7.448   2.786   7.493  0.2540 -0.0347 -0.5442
  113MOL   C13020514   7.317   2.805   7.573 -0.4481 -0.3425 -0.4900
  113MOL   H13120515   7.390   2.827   7.298  2.0373  0.3480 -1.8355
  113MOL   H13220516   7.558   2.855   7.331  0.5988 -1.2889  0.7001
  113MOL   H13320517   7.526   2.827   7.557 -0.6158 -0.1221  0.5996
  113MOL   H13420518   7.235   2.794   7.501 -0.9015 -1.8588  0.2455
  113MOL   H13520519   7.307   2.730   7.651 -0.3047  0.0758 -0.0652
  113MOL   H13620520   7.301   2.897   7.629 -0.3644 -0.0592 -0.9300
  113MOL   C13720521   7.456   2.632   7.470 -0.5475  0.3386 -0.2243
  113MOL   C13820522   7.591   2.575   7.411 -0.6144 -0.1866  0.3306
  113MOL   C13920523   7.593   2.578   7.261  0.5337 -0.6069  0.0352
  113MOL   H14020524   7.452   2.590   7.571 -0.2719  2.0780  0.5318
  113MOL   H14120525   7.369   2.600   7.413 -0.2369 -2.4182  0.7835
  113MOL   H14220526   7.607   2.470   7.436  1.9158 -0.1549 -1.0504
  113MOL   H14320527   7.684   2.536   7.218 -0.0836  0.6991 -2.6879
  113MOL   H14420528   7.518   2.508   7.224 -0.3796  0.4607 -0.1603
  113MOL   H14520529   7.578   2.670   7.205  0.6639 -1.0146 -0.6757
  113MOL   C14620530   0.022   2.639   7.474  0.6853  0.6217 -0.5341
  113MOL   C14720531   0.038   2.614   7.627  0.5817 -0.0808  0.3222
  113MOL   C14820532   0.037   2.460   7.676  0.1283  0.1969 -0.2025
  113MOL   H14920533   0.112   2.601   7.426 -0.8254 -1.5410 -1.7571
  113MOL   H15020534   0.028   2.747   7.461  2.6381  0.6717  0.6357
  113MOL   H15120535   7.654   2.657   7.686  0.3669 -0.2319  0.1386
  113MOL   H15220536   0.121   2.405   7.634 -0.5751 -0.8163 -0.3276
  113MOL   H15320537   0.041   2.448   0.087  2.8733 -1.3663 -0.4354
  113MOL   H15420538   7.645   2.409   7.639 -0.3161  0.7945  0.0256
  113MOL   C15520539   0.172   2.676   7.672 -0.4079  0.0915  0.1579
  113MOL   C15620540   0.192   2.830   7.670  0.4254 -0.4413  0.1222
  113MOL   C15720541   0.115   2.890   0.089 -0.1547  0.1268  0.8843
  113MOL   H15820542   0.192   2.640   0.076 -1.4003 -2.1033 -0.3916
  113MOL   H15920543   0.253   2.629   7.615 -0.6079 -0.1041  0.0315
  113MOL   H16020544   0.135   2.880   7.591  1.2272 -0.0443 -0.2105
  113MOL   H16120545   0.105   2.997   0.072  0.4078  0.1618  0.7505
  113MOL   H16220546   0.022   2.838   0.113  0.3023 -2.0109 -1.7532
  113MOL   H16320547   0.179   2.875   0.176  0.1330  0.1344  0.6753
  113MOL   C16420548   0.338   2.865   7.670  0.5658 -0.5587 -0.2129
  113MOL   C16520549   0.416   2.841   7.534 -0.0195 -0.4301 -0.0784
  113MOL   C16620550   0.386   2.963   7.449  0.2706 -0.2146  0.0306
  113MOL   H16720551   0.356   2.967   0.006 -4.5651 -0.1885  1.7988
  113MOL   H16820552   0.387   2.801   0.047 -1.0308  0.7850  2.0831
  113MOL   H16920553   0.379   2.751   7.484 -0.3119 -0.1303 -0.4045
  113MOL   H17020554   0.413   2.956   7.344  1.7719  1.1061  0.2996
  113MOL   H17120555   0.282   2.996   7.444 -0.0256 -1.4163 -2.3320
  113MOL   H17220556   0.431   3.049   7.500  0.5222  0.0549 -0.6452
  113MOL   C17320557   0.570   2.821   7.567  0.1737  0.1120 -0.8331
  113MOL   C17420558   0.656   2.778   7.447 -0.5442  0.1787 -0.3939
  113MOL   C17520559   0.803   2.743   7.484 -0.3228 -1.3393 -0.5578
  113MOL   H17620560   0.624   2.909   7.601  0.6296 -0.5052  0.0525
  113MOL   H17720561   0.587   2.745   7.644  1.4163 -0.0856 -1.3023
  113MOL   H17820562   0.656   2.860   7.376 -0.9623  0.1084 -0.4766
  113MOL   H17920563   0.800   2.641   7.520  1.1624 -1.8378 -1.8022
  113MOL   H18020564   0.874   2.759   7.403  2.0166 -1.4124  1.4117
  113MOL   H18120565   0.841   2.820   7.552 -1.0922 -0.5994 -0.9444
  113MOL   H18220566   0.608   2.692   7.399 -1.0954  0.1150  0.2567
  114MOL     C120567   6.713   0.940   2.869 -0.2278 -0.1123 -0.3469
  114MOL     C220568   6.766   0.981   3.010  0.3184  0.4455  0.6378
  114MOL     C320569   6.647   1.022   3.097  0.2778 -0.2571  0.3166
  114MOL     H420570   6.641   0.859   2.876  1.7200 -1.8076  0.9222
  114MOL     H520571   6.797   0.914   2.804  1.9757  1.8698  1.6008
  114MOL     H620572   6.827   1.071   3.006  1.3549 -0.2583  0.4774
  114MOL     H720573   6.585   0.940   3.134  0.9797 -1.3814 -0.9248
  114MOL     H820574   6.686   1.083   3.178  2.4689 -0.1105 -0.7972
  114MOL     H920575   6.587   1.086   3.032 -0.3483 -0.1107  1.0355
  114MOL    H1020576   6.667   1.027   2.823  0.4624 -0.4919 -1.7717
  114MOL    C1120577   6.845   0.864   3.068 -0.2366 -0.6721 -0.2703
  114MOL    C1220578   6.992   0.868   3.017  0.6716 -0.3742 -0.0954
  114MOL    C1320579   7.077   0.976   3.087  0.2788  0.2431  0.3609
  114MOL    H1420580   6.843   0.878   3.176 -0.5508 -1.7366 -0.1356
  114MOL    H1520581   6.798   0.772   3.033 -0.1479 -1.3613  1.3687
  114MOL    H1620582   6.998   0.881   2.909  0.9118 -2.6997 -0.3980
  114MOL    H1720583   7.175   0.985   3.039 -0.3028 -1.1203 -1.1220
  114MOL    H1820584   7.036   1.076   3.073  0.5012  0.3999  0.8286
  114MOL    H1920585   7.088   0.966   3.195 -1.0254 -2.1592  0.2895
  114MOL    C2020586   7.075   0.736   3.032  0.0466 -0.5861 -1.1285
  114MOL    C2120587   7.016   0.613   2.954  0.4980 -0.7685 -0.1423
  114MOL    C2220588   7.013   0.636   2.805 -0.1579 -0.5487 -0.5568
  114MOL    H2320589   7.174   0.752   2.989  0.8565  0.3147  1.0116
  114MOL    H2420590   7.099   0.704   3.133 -1.0387 -3.4090 -1.7121
  114MOL    H2520591   6.912   0.601   2.983  0.5246 -2.2770 -0.6123
  114MOL    H2620592   6.963   0.730   2.781  0.6787 -0.1469 -0.7313
  114MOL    H2720593   7.119   0.636   2.780  0.4639  3.0348  1.6755
  114MOL    H2820594   6.968   0.552   2.753 -2.9209 -1.6917  3.4317
  114MOL    C2920595   7.080   0.482   2.998  0.0639 -0.4095  0.1401
  114MOL    C3020596   7.045   0.349   2.923 -0.0776 -0.1467  0.3190
  114MOL    C3120597   7.142   0.241   2.961  0.1916  0.5119 -0.1528
  114MOL    H3220598   7.183   0.503   2.968 -0.0445 -0.6943 -0.4334
  114MOL    H3320599   7.072   0.478   3.106 -3.5213 -1.2117 -0.0922
  114MOL    H3420600   7.044   0.366   2.815 -2.3031  0.9622  0.4818
  114MOL    H3520601   7.122   0.196   3.058  1.7708  0.8988  0.3609
  114MOL    H3620602   7.158   0.171   2.879  0.1728  1.6699 -1.1587
  114MOL    H3720603   7.240   0.285   2.976  1.0857 -1.7734  0.8679
  114MOL    C3820604   6.900   0.321   2.966 -0.3480  0.6569  1.0817
  114MOL    C3920605   6.821   0.209   2.892  0.2155  0.5001  0.2471
  114MOL    C4020606   6.706   0.155   2.985 -0.0545 -0.6166  0.1953
  114MOL    H4120607   6.897   0.303   3.074 -1.5465  1.1070  1.1245
  114MOL    H4220608   6.835   0.408   2.961 -2.6334 -1.1283 -1.6991
  114MOL    H4320609   6.894   0.130   2.877  0.6761  1.0043 -0.1401
  114MOL    H4420610   6.631   0.227   3.017 -0.0873 -0.7510  0.4222
  114MOL    H4520611   6.656   0.081   2.922 -0.1767  0.5870 -1.1481
  114MOL    H4620612   6.742   0.108   3.076  1.7835 -0.7388 -0.5646
  114MOL    C4720613   6.772   0.253   2.752  1.4096 -0.4614 -0.5049
  114MOL    C4820614   6.730   0.138   2.651  0.3769 -0.6973  0.1928
  114MOL    C4920615   6.650   0.193   2.534 -0.6660  0.0355 -0.1574
  114MOL    H5020616   6.686   0.320   2.762  2.1909  0.2815  1.3830
  114MOL    H5120617   6.838   0.320   2.698  3.8059 -2.0957  0.3198
  114MOL    H5220618   6.662   0.074   2.707 -1.9384  0.7404 -0.9156
  114MOL    H5320619   6.601   0.119   2.470 -0.8615  0.4397 -0.4767
  114MOL    H5420620   6.568   0.257   2.566  0.4851  1.0385  0.8466
  114MOL    H5520621   6.716   0.267   2.487 -0.4336  1.5271  2.3998
  114MOL    C5620622   6.854   0.063   2.600  0.5852 -0.8039  0.2572
  114MOL    C5720623   6.827   7.637   2.517  0.3935  0.3814  0.4327
  114MOL    C5820624   6.953   7.592   2.445  0.1798 -0.6103 -0.1905
  114MOL    H5920625   6.908   0.139   2.544 -0.5895 -1.0795 -1.2620
  114MOL    H6020626   6.920   0.030   2.681  1.6759  0.6305 -0.0231
  114MOL    H6120627   6.763   7.666   2.433 -1.4221  0.6293  1.8789
  114MOL    H6220628   6.999   7.664   2.377  1.6003 -0.7742  0.5568
  114MOL    H6320629   7.034   7.545   2.501  0.9181 -0.7195 -1.3163
  114MOL    H6420630   6.922   7.518   2.371 -1.0063  0.5190 -0.8485
  114MOL    C6520631   6.749   7.524   2.589  0.4350 -1.1764 -0.0272
  114MOL    C6620632   6.628   7.473   2.515 -0.1388 -0.0002 -0.4525
  114MOL    C6720633   6.664   7.411   2.375  0.3785  0.6543 -0.2526
  114MOL    H6820634   6.812   7.437   2.608  1.3872  0.0823  3.0327
  114MOL    H6920635   6.733   7.554   2.693  1.3046  0.3636 -0.3267
  114MOL    H7020636   6.567   7.561   2.497 -0.0941  0.5154  1.7369
  114MOL    H7120637   6.717   7.316   2.382 -1.6112 -0.3724  1.3645
  114MOL    H7220638   6.568   7.392   2.328  0.9423  1.1543 -1.6452
  114MOL    H7320639   6.720   7.477   2.309 -1.3585  2.7107  0.2614
  114MOL    C7420640   6.548   7.375   2.599  0.8814 -0.1372  0.1856
  114MOL    C7520641   6.458   7.439   2.707  0.7827 -0.2003  0.1976
  114MOL    C7620642   6.330   7.505   2.647  0.0553  0.1559 -0.2700
  114MOL    H7720643   6.492   7.327   2.519  2.1993 -1.5713  0.1016
  114MOL    H7820644   6.608   7.297   2.645 -0.3958 -0.4236  1.4051
  114MOL    H7920645   6.514   7.519   2.756  1.0707 -3.1240  4.9957
  114MOL    H8020646   6.347   7.557   2.553  0.5230 -1.1937 -0.9352
  114MOL    H8120647   6.246   7.438   2.633 -0.7567  0.1315  4.0347
  114MOL    H8220648   6.296   7.579   2.720  0.6289  0.6104 -0.4605
  114MOL    C8320649   6.410   7.337   2.810 -0.0726 -0.4512 -0.2625
  114MOL    C8420650   6.354   7.398   2.940  0.7294  0.4019 -0.3858
  114MOL    C8520651   6.218   7.344   2.977  0.3267 -0.5009  0.8886
  114MOL    H8620652   6.340   7.269   2.761  0.4373 -0.9938 -0.2412
  114MOL    H8720653   6.489   7.265   2.832 -0.7780 -0.5952  1.9429
  114MOL    H8820654   6.352   7.507   2.938  2.0766  0.4349 -0.3896
  114MOL    H8920655   6.221   7.243   3.018  1.5300 -1.3399 -1.2203
  114MOL    H9020656   6.177   7.399   3.062 -0.4653 -0.4533  0.4850
  114MOL    H9120657   6.140   7.358   2.902  1.7075  0.8528 -0.2989
  114MOL    C9220658   6.453   7.348   3.057 -0.3020 -0.3216 -0.1011
  114MOL    C9320659   6.442   7.421   3.193 -0.2245  0.6071 -0.8973
  114MOL    C9420660   6.435   7.310   3.303 -0.7688 -0.3002  0.1669
  114MOL    H9520661   6.450   7.239   3.059 -2.8334 -0.4481 -4.5458
  114MOL    H9620662   6.554   7.362   3.021 -0.8714 -1.8241 -2.3760
  114MOL    H9720663   6.344   7.469   3.196 -0.6501 -0.1964 -1.6058
  114MOL    H9820664   6.530   7.257   3.305 -0.3620  0.3770 -0.6299
  114MOL    H9920665   6.422   7.342   3.406  1.2396 -0.1830  0.4096
  114MOL   H10020666   6.349   7.247   3.279 -1.1521  0.2025  0.2106
  114MOL   C10120667   6.552   7.533   3.209  0.0494  0.2844  1.0251
  114MOL   C10220668   6.538   7.608   3.342 -0.7280 -0.4383  0.0935
  114MOL   C10320669   6.671   7.678   3.377 -0.2066 -0.9492  0.0128
  114MOL   H10420670   6.653   7.491   3.203  0.0572  0.6584 -4.8110
  114MOL   H10520671   6.556   7.599   3.123 -0.0912  1.8918  2.2351
  114MOL   H10620672   6.525   7.535   3.421 -1.2312  2.3384  2.6581
  114MOL   H10720673   6.686   0.059   3.302 -0.5561 -1.8493 -1.0085
  114MOL   H10820674   6.664   0.032   3.473 -2.1710 -0.6444 -0.2664
  114MOL   H10920675   6.753   7.608   3.378  1.9381  1.4000 -2.7665
  114MOL   C11020676   6.412   0.011   3.358 -0.1224  1.0279  0.1047
  114MOL   C11120677   6.387   0.077   3.496 -0.0963 -0.6937 -0.1364
  114MOL   C11220678   6.277   0.180   3.471  0.0857 -0.3160 -0.4207
  114MOL   H11320679   6.419   0.089   3.281  0.1872  1.3928  0.5000
  114MOL   H11420680   6.321   7.656   3.328 -1.1549  3.4106 -1.0886
  114MOL   H11520681   6.477   0.128   3.532 -0.7075  0.4528 -0.2320
  114MOL   H11620682   6.181   0.130   3.460  0.7234 -1.9611  1.1762
  114MOL   H11720683   6.269   0.249   3.555 -1.2178 -0.2934 -0.5598
  114MOL   H11820684   6.294   0.241   3.382  3.3099 -3.1335 -1.8611
  114MOL   C11920685   6.335   7.672   3.603  0.1101  0.2276 -0.0042
  114MOL   C12020686   6.373   0.011   3.749 -0.0467  0.2069 -0.2975
  114MOL   C12120687   6.282   0.122   3.815  0.0723 -0.3843 -0.5945
  114MOL   H12220688   6.227   7.656   3.596 -0.0418  0.6710  1.1058
  114MOL   H12320689   6.379   7.576   3.579  1.6421  0.7785  0.5045
  114MOL   H12420690   6.473   0.055   3.740  0.0906 -0.4973 -2.5048
  114MOL   H12520691   6.311   0.156   3.914 -0.6302  0.8781 -0.7990
  114MOL   H12620692   6.275   0.213   3.755 -0.3471  0.1860  0.3032
  114MOL   H12720693   6.177   0.093   3.806 -0.0476 -0.2463  0.3620
  114MOL   C12820694   6.383   7.576   3.827  0.1924 -0.4203 -0.0507
  114MOL   C12920695   6.443   7.584   3.966 -0.1901 -0.3006  0.6676
  114MOL   C13020696   6.383   7.472   4.054  0.3378  0.9427 -0.5048
  114MOL   H13120697   6.282   7.539   3.843 -1.3392  3.1374 -1.0672
  114MOL   H13220698   6.445   7.503   3.775  0.6835 -0.2134  0.2413
  114MOL   H13320699   6.421   7.682   4.008  1.0766  0.9786 -1.5773
  114MOL   H13420700   6.429   7.458   4.152 -0.9074  1.1928  0.1379
  114MOL   H13520701   6.275   7.485   4.066  0.2455 -0.5866  0.6168
  114MOL   H13620702   6.401   7.377   4.003 -1.2600  0.3025  0.0666
  114MOL   C13720703   6.597   7.561   3.968  0.3091 -0.8186  0.2692
  114MOL   C13820704   6.691   7.680   3.945 -0.4082  0.0865  1.1661
  114MOL   C13920705   6.662   0.100   4.039  0.8527 -0.3102 -0.0967
  114MOL   H14020706   6.614   7.506   4.060  1.8884  0.7848  0.9421
  114MOL   H14120707   6.627   7.491   3.889 -0.2593  0.5188 -1.1674
  114MOL   H14220708   6.690   0.030   3.847  0.8226 -2.5337 -0.1560
  114MOL   H14320709   6.569   0.152   4.013  1.3553  0.8126  0.3278
  114MOL   H14420710   6.647   0.058   4.138 -2.2814  0.4298 -0.1827
  114MOL   H14520711   6.752   0.162   4.041  1.5485 -1.2448 -1.6027
  114MOL   C14620712   6.836   7.629   3.970 -0.6846 -0.1124 -0.4969
  114MOL   C14720713   6.894   7.521   3.869  0.1575 -1.3341 -0.4973
  114MOL   C14820714   6.857   7.554   3.729  0.6923  0.5087 -0.2871
  114MOL   H14920715   6.903   0.017   3.977 -0.1627 -0.5842  0.4601
  114MOL   H15020716   6.844   7.589   4.071  2.2177  0.8482 -0.2798
  114MOL   H15120717   6.846   7.426   3.893 -2.3482 -0.4387 -1.8012
  114MOL   H15220718   6.847   7.661   3.709  0.1225  0.0287 -2.7129
  114MOL   H15320719   6.933   7.529   3.655  1.4889 -2.0346  1.3069
  114MOL   H15420720   6.768   7.498   3.701  0.8449 -1.3082  2.6267
  114MOL   C15520721   7.046   7.500   3.890  0.0915 -0.5014  0.2390
  114MOL   C15620722   7.079   7.441   4.026  0.0381 -0.4644  0.2995
  114MOL   C15720723   7.057   7.282   4.021 -0.1099  0.3750 -0.4108
  114MOL   H15820724   7.096   7.441   3.813  0.6280  1.6386 -1.1009
  114MOL   H15920725   7.096   7.595   3.871 -0.9674  0.0951  0.3414
  114MOL   H16020726   7.013   7.480   4.103  0.3888  0.3508  0.1900
  114MOL   H16120727   7.064   7.234   4.118  1.5001  0.5680 -0.4148
  114MOL   H16220728   6.958   7.247   3.992 -0.4740  1.0036  0.0624
  114MOL   H16320729   7.121   7.228   3.950  1.6081  1.0962  0.5591
  114MOL   C16420730   7.217   7.475   4.083  0.2989 -0.3691  0.5225
  114MOL   C16520731   7.225   7.619   4.146  0.7405  0.5180  0.1296
  114MOL   C16620732   7.170   7.630   4.294  0.7390 -0.9956 -0.6470
  114MOL   H16720733   7.236   7.411   4.169  1.1664 -1.8247 -0.7166
  114MOL   H16820734   7.299   7.466   4.012  1.4898  1.3802  1.6331
  114MOL   H16920735   7.166   7.680   4.078  0.2542 -1.1392 -0.9717
  114MOL   H17020736   7.153   0.039   4.308 -2.7842 -1.7547  1.5924
  114MOL   H17120737   7.072   7.588   4.317  1.1779 -2.0202 -0.6210
  114MOL   H17220738   7.242   7.597   4.369  1.2331  0.6575 -0.3838
  114MOL   C17320739   7.369   7.679   4.130  0.0821  0.2090 -0.0760
  114MOL   C17420740   7.413   0.123   4.172  0.9609  0.2322 -0.0951
  114MOL   C17520741   7.544   0.129   4.254 -0.2712 -0.0050 -0.3414
  114MOL   H17620742   7.433   7.605   4.179  0.5492  0.8992  0.3699
  114MOL   H17720743   7.395   7.670   4.025  1.0830 -0.1598  0.1893
  114MOL   H17820744   7.342   0.182   4.230  1.8736  0.1182  1.1538
  114MOL   H17920745   7.557   0.220   4.312 -1.1798 -0.3335  0.3889
  114MOL   H18020746   7.549   0.053   4.332  2.0943  0.7123  0.2606
  114MOL   H18120747   7.633   0.111   4.194  0.7196  2.5058  0.3132
  114MOL   H18220748   7.416   0.182   4.080 -1.4398  0.4228 -0.0771
  115MOL     C120749   1.987   1.240   2.835  0.2908  0.0075  0.4826
  115MOL     C220750   1.972   1.210   2.979 -0.5862 -0.0733 -0.9007
  115MOL     C320751   1.855   1.118   3.012 -0.1748  0.2582  0.4429
  115MOL     H420752   2.015   1.150   2.781 -1.8204  1.1822 -2.7431
  115MOL     H520753   2.046   1.325   2.801  0.8883 -1.3619 -2.0029
  115MOL     H620754   1.946   1.302   3.032 -1.4952 -0.0950 -1.3024
  115MOL     H720755   1.880   1.018   2.976  0.5658  0.1565  1.2177
  115MOL     H820756   1.833   1.104   3.118  3.3234 -0.5968  1.0998
  115MOL     H920757   1.760   1.148   2.967 -0.1788  1.5965  1.3120
  115MOL    H1020758   1.885   1.246   2.796  0.0139  0.2948  1.2397
  115MOL    C1120759   2.102   1.157   3.042  0.0379 -0.6265 -0.3062
  115MOL    C1220760   2.213   1.262   3.055  0.4089  0.5458  0.2644
  115MOL    C1320761   2.171   1.360   3.166  0.2049 -0.5977  0.1139
  115MOL    H1420762   2.080   1.120   3.143 -0.8374  0.2084 -0.1858
  115MOL    H1520763   2.127   1.069   2.982 -0.8122 -0.8132 -0.3960
  115MOL    H1620764   2.223   1.323   2.965 -0.4268  1.2954  0.6750
  115MOL    H1720765   2.256   1.426   3.182  0.5493 -1.0701  0.2214
  115MOL    H1820766   2.080   1.418   3.146  0.3625  0.4822  2.2687
  115MOL    H1920767   2.154   1.298   3.254  0.0672  1.7944  1.8250
  115MOL    C2020768   2.347   1.192   3.097  0.5264 -0.4164  0.1911
  115MOL    C2120769   2.438   1.146   2.974  0.6356 -0.6747 -0.3766
  115MOL    C2220770   2.479   1.261   2.886  0.2681  0.3245 -0.0676
  115MOL    H2320771   2.406   1.246   3.171  0.2160 -0.6390  0.6061
  115MOL    H2420772   2.330   1.102   3.157 -1.1856 -1.3459 -1.6202
  115MOL    H2520773   2.378   1.072   2.922 -0.4273 -0.0131 -0.1194
  115MOL    H2620774   2.404   1.308   2.822 -0.6922 -2.0772 -0.7911
  115MOL    H2720775   2.518   1.338   2.953  0.0177 -0.7690  1.3768
  115MOL    H2820776   2.563   1.223   2.828  2.1499  1.5907  1.7563
  115MOL    C2920777   2.561   1.069   3.033 -0.0865 -0.2178 -0.2209
  115MOL    C3020778   2.659   1.008   2.933 -0.4252 -0.7152  0.2023
  115MOL    C3120779   2.779   0.964   3.012 -0.1560  0.1998 -0.0610
  115MOL    H3220780   2.615   1.150   3.082  0.3262 -1.2528  1.0583
  115MOL    H3320781   2.533   1.003   3.115 -0.1755 -0.4056 -0.4026
  115MOL    H3420782   2.701   1.078   2.861  1.3592 -0.1537  1.7594
  115MOL    H3520783   2.857   0.928   2.945 -0.3249 -0.5353  0.1230
  115MOL    H3620784   2.811   1.049   3.072 -1.0373  0.5381 -0.0652
  115MOL    H3720785   2.759   0.878   3.076  0.9517  0.3554  0.5148
  115MOL    C3820786   2.589   0.893   2.850  0.0993 -0.0869 -0.7557
  115MOL    C3920787   2.678   0.831   2.742 -0.5846  0.1214 -0.2980
  115MOL    C4020788   2.701   0.681   2.761 -0.7465  0.5405 -0.0633
  115MOL    H4120789   2.544   0.822   2.919  0.5233  1.1952  0.8872
  115MOL    H4220790   2.505   0.932   2.792  1.4944  2.1386 -1.3473
  115MOL    H4320791   2.773   0.884   2.750 -0.0512 -1.0173  0.9082
  115MOL    H4420792   2.758   0.681   2.853 -0.3992 -1.1428 -0.2775
  115MOL    H4520793   2.606   0.634   2.783 -0.4947 -0.1512 -0.4350
  115MOL    H4620794   2.760   0.638   2.680 -0.8335  0.7133 -0.2185
  115MOL    C4720795   2.626   0.852   2.595 -0.2434 -1.0481  1.0396
  115MOL    C4820796   2.528   0.751   2.535  0.4112 -0.1192  0.1398
  115MOL    C4920797   2.393   0.735   2.617  0.3987  0.1822 -0.0773
  115MOL    H5020798   2.589   0.954   2.598  1.4244 -0.3531 -0.9699
  115MOL    H5120799   2.719   0.853   2.538  0.7987 -2.3038  2.6655
  115MOL    H5220800   2.582   0.657   2.522  0.7528 -0.0179  0.8232
  115MOL    H5320801   2.415   0.707   2.720  1.4082 -1.8893 -0.8307
  115MOL    H5420802   2.341   0.830   2.627  1.3207  0.9768 -2.6047
  115MOL    H5520803   2.332   0.655   2.575  1.2040  0.7590 -2.3712
  115MOL    C5620804   2.488   0.790   2.392  0.5403  0.0638 -0.5441
  115MOL    C5720805   2.597   0.833   2.295 -0.4410  0.1186  0.0911
  115MOL    C5820806   2.693   0.716   2.270 -0.7503 -0.2223  0.0179
  115MOL    H5920807   2.429   0.707   2.355  1.1952 -0.4080 -0.5417
  115MOL    H6020808   2.422   0.877   2.397 -0.2044 -0.2547 -3.6915
  115MOL    H6120809   2.645   0.929   2.315  1.0101 -0.5500 -0.1408
  115MOL    H6220810   2.765   0.743   2.193 -2.4095 -0.3583 -1.5970
  115MOL    H6320811   2.734   0.661   2.356 -0.5675 -0.1900 -0.0479
  115MOL    H6420812   2.638   0.627   2.240 -1.1418 -0.8495  2.4682
  115MOL    C6520813   2.522   0.871   2.162  0.6274  0.2477  0.2384
  115MOL    C6620814   2.601   0.921   2.032  0.2591  0.0898 -0.3494
  115MOL    C6720815   2.512   0.887   1.910  0.1596  0.3529  0.9011
  115MOL    H6820816   2.445   0.797   2.137  0.3345  0.6518 -0.0582
  115MOL    H6920817   2.464   0.958   2.193  0.0099 -0.2759  0.5643
  115MOL    H7020818   2.684   0.851   2.031 -1.3899 -1.9636  0.8337
  115MOL    H7120819   2.564   0.902   1.815 -1.7035 -1.6633 -0.4805
  115MOL    H7220820   2.468   0.787   1.917  0.6269  0.1294  0.6977
  115MOL    H7320821   2.425   0.951   1.912 -1.1216 -1.2939 -0.7015
  115MOL    C7420822   2.673   1.059   2.027 -0.0606  0.2648 -0.0260
  115MOL    C7520823   2.782   1.096   1.916  0.2080  0.0034  0.0010
  115MOL    C7620824   2.814   1.252   1.917  0.4770 -0.4115  0.1925
  115MOL    H7720825   2.599   1.139   2.021 -2.1533 -1.3641  3.0883
  115MOL    H7820826   2.727   1.079   2.119  2.1756 -0.8337 -1.0437
  115MOL    H7920827   2.739   1.065   1.821  1.3272 -0.4048 -0.3762
  115MOL    H8020828   2.903   1.279   1.975  2.3866 -1.3850 -2.1744
  115MOL    H8120829   2.851   1.284   1.820 -1.1396 -0.6590 -0.5017
  115MOL    H8220830   2.726   1.315   1.929 -1.1630 -2.6642  0.1911
  115MOL    C8320831   2.915   1.019   1.939  0.0487  0.0122 -0.1144
  115MOL    C8420832   3.011   1.017   1.825  0.1798  0.5149  0.4244
  115MOL    C8520833   3.127   1.112   1.855 -0.1658  0.6491 -0.1434
  115MOL    H8620834   2.951   1.053   2.036  1.3392 -1.9246  0.1091
  115MOL    H8720835   2.882   0.916   1.949  0.0014  0.0057 -0.3221
  115MOL    H8820836   2.972   1.061   1.733 -2.5015 -2.8857 -0.1274
  115MOL    H8920837   3.085   1.210   1.873  0.8789  1.0879 -0.0713
  115MOL    H9020838   3.196   1.073   1.929  1.7221  1.0437 -1.6598
  115MOL    H9120839   3.187   1.133   1.766  1.1557  2.0284  1.0629
  115MOL    C9220840   3.069   0.874   1.805  0.0754  0.2166  0.2570
  115MOL    C9320841   2.980   0.784   1.704 -1.0114 -0.5487 -0.4381
  115MOL    C9420842   2.846   0.748   1.770 -0.2981 -0.2348 -0.5311
  115MOL    H9520843   3.163   0.895   1.755  0.1653  0.4893  0.5429
  115MOL    H9620844   3.096   0.819   1.896  3.5912 -0.2323 -1.0057
  115MOL    H9720845   3.042   0.696   1.690 -0.7693 -0.1889 -1.6328
  115MOL    H9820846   2.859   0.695   1.865  1.4625 -1.8119 -1.6266
  115MOL    H9920847   2.773   0.827   1.787 -0.9510 -0.4949 -2.0825
  115MOL   H10020848   2.802   0.682   1.696 -0.6963 -0.3763 -0.1673
  115MOL   C10120849   2.952   0.846   1.567 -0.4152  0.7602 -0.7116
  115MOL   C10220850   3.073   0.896   1.490 -0.1818 -0.2843 -0.0953
  115MOL   C10320851   3.181   0.787   1.466 -0.1333 -0.0753  0.3921
  115MOL   H10420852   2.885   0.779   1.515 -1.5567  0.7294  0.7812
  115MOL   H10520853   2.883   0.930   1.573 -2.1169 -0.5969 -1.2190
  115MOL   H10620854   3.132   0.977   1.533  0.1939 -0.5783 -0.0556
  115MOL   H10720855   3.199   0.730   1.558  0.6486  0.4839  0.5818
  115MOL   H10820856   3.148   0.711   1.394  0.1269  0.5326 -0.3726
  115MOL   H10920857   3.279   0.823   1.436 -0.9155  1.9719  0.2423
  115MOL   C11020858   3.027   0.962   1.353 -0.4428 -0.6366 -0.0480
  115MOL   C11120859   3.139   1.006   1.253  0.9054 -0.2177 -1.2039
  115MOL   C11220860   3.068   1.053   1.123  0.5100 -0.1609  0.2093
  115MOL   H11320861   2.968   0.882   1.309 -1.0572 -0.6314  0.7632
  115MOL   H11420862   2.964   1.050   1.361  0.1708 -0.1913 -0.0299
  115MOL   H11520863   3.199   0.918   1.229 -0.6509 -0.7141 -3.3842
  115MOL   H11620864   3.140   1.092   1.052  0.3630 -1.3459 -0.6140
  115MOL   H11720865   3.031   0.965   1.069 -0.5656  0.7068 -0.4867
  115MOL   H11820866   2.982   1.120   1.133  0.2733 -0.0625 -2.1243
  115MOL   C11920867   3.216   1.127   1.313 -0.2428  0.2744  0.1591
  115MOL   C12020868   3.337   1.174   1.229  0.2470  0.3731  0.1875
  115MOL   C12120869   3.298   1.311   1.163 -0.8100 -0.6926  0.6334
  115MOL   H12220870   3.143   1.205   1.332  0.3268  1.0874 -0.9106
  115MOL   H12320871   3.251   1.097   1.412  0.2115  0.6042  0.1012
  115MOL   H12420872   3.355   1.095   1.156 -2.4149 -1.8278  1.8212
  115MOL   H12520873   3.293   1.398   1.229  1.5641  1.0465 -1.3469
  115MOL   H12620874   3.357   1.322   1.071  0.9869 -3.0816  1.4624
  115MOL   H12720875   3.201   1.288   1.120 -0.5025 -0.5059 -0.1834
  115MOL   C12820876   3.463   1.203   1.315 -0.2574  0.1990 -0.3732
  115MOL   C12920877   3.530   1.084   1.394 -0.1457 -0.8345  0.2598
  115MOL   C13020878   3.592   0.984   1.292  0.8264 -0.1287 -0.4290
  115MOL   H13120879   3.530   1.255   1.248  0.0343 -2.8902 -2.5863
  115MOL   H13220880   3.425   1.279   1.384  1.2500 -0.6454  1.4333
  115MOL   H13320881   3.450   1.038   1.452  0.8556 -0.2165  2.1969
  115MOL   H13420882   3.665   0.925   1.347  1.7584  0.7947 -0.6635
  115MOL   H13520883   3.523   0.919   1.238 -0.5819  1.3293 -0.4149
  115MOL   H13620884   3.657   1.026   1.215 -1.1753  1.7730 -1.1301
  115MOL   C13720885   3.634   1.146   1.494  0.2175  0.0718 -0.2350
  115MOL   C13820886   3.569   1.214   1.619 -0.5670  0.2732 -0.0126
  115MOL   C13920887   3.539   1.092   1.710  0.0157 -0.0774 -0.3262
  115MOL   H14020888   3.710   1.075   1.527 -0.1305 -0.8720 -1.4307
  115MOL   H14120889   3.693   1.221   1.440  3.6627 -0.8954  1.9985
  115MOL   H14220890   3.476   1.263   1.588 -0.5127 -0.2689 -1.0640
  115MOL   H14320891   3.455   1.039   1.666 -1.7595  1.3573  1.2468
  115MOL   H14420892   3.622   1.023   1.728  0.8809  1.3144  1.1882
  115MOL   H14520893   3.512   1.117   1.813  1.6622 -1.2279  0.4078
  115MOL   C14620894   3.655   1.321   1.695 -0.0601  0.3075  0.0440
  115MOL   C14720895   3.681   1.449   1.613  0.3549  0.1877 -0.5276
  115MOL   C14820896   3.544   1.522   1.584 -0.1197  0.2443  1.2863
  115MOL   H14920897   3.608   1.336   1.792  0.4548  2.1548  0.0212
  115MOL   H15020898   3.749   1.272   1.718 -0.0454  0.1097 -0.4367
  115MOL   H15120899   3.736   1.423   1.523  2.7659  0.2834  0.8921
  115MOL   H15220900   3.499   1.466   1.502 -0.4881  0.8951  1.0398
  115MOL   H15320901   3.487   1.528   1.677 -3.1196  1.0605 -0.5485
  115MOL   H15420902   3.562   1.620   1.538 -1.8331  0.2233  0.5128
  115MOL   C15520903   3.763   1.558   1.702  0.7384  0.2910  0.4024
  115MOL   C15620904   3.904   1.513   1.745  0.0601 -0.1634 -0.0033
  115MOL   C15720905   3.986   1.450   1.625 -0.0203  0.2799  0.6588
  115MOL   H15820906   3.780   1.640   1.632  1.1851 -0.1877 -0.0544
  115MOL   H15920907   3.705   1.587   1.789 -3.0790 -1.5099 -1.4019
  115MOL   H16020908   3.897   1.437   1.823  0.5187  2.1934  2.3696
  115MOL   H16120909   4.089   1.425   1.648 -1.0687 -2.3142  2.7190
  115MOL   H16220910   3.951   1.354   1.586 -1.1979  2.0130 -2.7952
  115MOL   H16320911   3.989   1.526   1.547  0.6330 -0.1286  0.2795
  115MOL   C16420912   3.987   1.628   1.813 -0.1673 -0.3250  0.1616
  115MOL   C16520913   3.920   1.710   1.925 -0.7917  0.0745  0.0291
  115MOL   C16620914   3.894   1.621   2.047 -0.1639  0.4226 -0.1865
  115MOL   H16720915   4.075   1.589   1.863 -1.2185 -3.1515 -0.0514
  115MOL   H16820916   4.018   1.696   1.733 -2.2202  1.7882  1.0843
  115MOL   H16920917   3.822   1.751   1.900 -0.3766  0.7795 -0.4750
  115MOL   H17020918   3.820   1.547   2.016  0.4117  0.9329 -2.9540
  115MOL   H17120919   3.981   1.568   2.086 -0.0217  0.7388 -0.0806
  115MOL   H17220920   3.851   1.672   2.133  1.8515  1.2129  0.3703
  115MOL   C17320921   4.012   1.828   1.963 -0.3505  0.2637 -0.1433
  115MOL   C17420922   3.956   1.925   2.069  0.0373  0.0067 -0.4513
  115MOL   C17520923   4.063   2.019   2.113  0.1758 -0.1808 -0.0254
  115MOL   H17620924   4.101   1.780   2.005 -1.5118 -1.8912 -0.0866
  115MOL   H17720925   4.040   1.900   1.886  1.6961  0.3056  0.5980
  115MOL   H17820926   3.920   1.876   2.159 -1.4834  0.2876 -0.8916
  115MOL   H17920927   4.123   2.058   2.031 -0.4863  2.6336  0.7773
  115MOL   H18020928   4.032   2.100   2.179  1.4315 -2.0329  2.9719
  115MOL   H18120929   4.126   1.958   2.179 -0.8775 -0.0882  1.0960
  115MOL   H18220930   3.870   1.981   2.032 -0.8130 -0.8414  0.2527
  116MOL     C120931   3.826   6.422   7.369  0.5270  0.2344 -0.5596
  116MOL     C220932   3.942   6.403   7.272 -0.1263 -0.0819 -0.1319
  116MOL     C320933   3.988   6.542   7.219 -0.1730 -0.9403  0.2851
  116MOL     H420934   3.791   6.330   7.415  2.7527 -0.3963 -0.0338
  116MOL     H520935   3.739   6.474   7.329 -1.3400  0.3490  3.4391
  116MOL     H620936   3.912   6.354   7.180 -1.1629  1.7895 -0.8252
  116MOL     H720937   4.019   6.604   7.303 -1.5139  0.5667 -0.3004
  116MOL     H820938   4.074   6.527   7.154  0.3055  1.2009  0.3790
  116MOL     H920939   3.910   6.588   7.159  1.3134  1.0573 -0.1810
  116MOL    H1020940   3.857   6.482   7.454  0.2574  0.3177 -0.5216
  116MOL    C1120941   4.064   6.325   7.339  0.1913  0.5601 -0.3690
  116MOL    C1220942   4.060   6.172   7.314 -0.4770  0.3282  0.6004
  116MOL    C1320943   3.959   6.099   7.397  0.0629 -0.5021  0.2974
  116MOL    H1420944   4.151   6.363   7.285  0.0178  0.0169 -1.0285
  116MOL    H1520945   4.077   6.358   7.442 -1.3542  0.8553 -0.2672
  116MOL    H1620946   4.155   6.137   7.355  0.6362  0.4182 -1.8060
  116MOL    H1720947   3.967   5.991   7.386  0.5471 -0.6707  2.1686
  116MOL    H1820948   3.976   6.125   7.501 -2.0847  2.3958 -0.0186
  116MOL    H1920949   3.858   6.132   7.373  0.3758  0.0693 -0.2467
  116MOL    C2020950   4.057   6.133   7.162 -0.8068  0.7593 -0.4609
  116MOL    C2120951   4.166   6.161   7.053 -0.1265  0.0884 -0.0147
  116MOL    C2220952   4.296   6.102   7.093 -0.0854 -0.9004  0.4228
  116MOL    H2320953   4.061   6.025   7.174  0.1481  0.6122 -1.8586
  116MOL    H2420954   3.957   6.147   7.123 -2.3218 -2.9264  1.9135
  116MOL    H2520955   4.178   6.269   7.045  0.5299 -0.1641 -3.4415
  116MOL    H2620956   4.327   6.148   7.187  2.2783  1.4767 -1.4538
  116MOL    H2720957   4.297   5.994   7.102 -1.8168 -0.9649 -0.0152
  116MOL    H2820958   4.375   6.125   7.022  0.1549 -0.3580  0.8584
  116MOL    C2920959   4.126   6.104   6.918  0.1225  0.0672  0.3697
  116MOL    C3020960   4.141   6.194   6.794  0.2622  0.1633  0.1606
  116MOL    C3120961   4.282   6.243   6.765  0.5172 -0.1526 -0.7275
  116MOL    H3220962   4.175   6.009   6.893  0.1142  0.0537  0.4045
  116MOL    H3320963   4.022   6.071   6.920  0.0846  0.0930 -0.8956
  116MOL    H3420964   4.075   6.278   6.817  0.3720  0.1699  0.4466
  116MOL    H3520965   4.279   6.304   6.675  3.1326 -1.4827 -1.7732
  116MOL    H3620966   4.315   6.307   6.847 -2.1384  0.3634  0.0052
  116MOL    H3720967   4.350   6.162   6.741  1.8152  0.3494  1.1866
  116MOL    C3820968   4.087   6.120   6.669 -0.0544  0.2877 -0.3703
  116MOL    C3920969   4.038   6.211   6.548  0.0480  0.1347  0.0575
  116MOL    C4020970   4.053   6.132   6.415  0.5992  0.4755 -0.0046
  116MOL    H4120971   4.163   6.046   6.642  0.7490  0.4485  1.3980
  116MOL    H4220972   3.994   6.070   6.695 -0.2195  1.7457  1.9323
  116MOL    H4320973   4.104   6.299   6.542 -0.4708  0.3607 -2.9414
  116MOL    H4420974   3.999   6.037   6.424 -0.0367  0.8507  0.1979
  116MOL    H4520975   4.005   6.178   6.328  0.3097  1.4626  0.6735
  116MOL    H4620976   4.158   6.108   6.401  0.0321 -0.9262 -2.0841
  116MOL    C4720977   3.893   6.260   6.562 -0.5198 -0.3807  0.3738
  116MOL    C4820978   3.871   6.402   6.635  0.4212 -1.1368 -0.3020
  116MOL    C4920979   3.902   6.517   6.542  0.5780 -0.2460 -0.3472
  116MOL    H5020980   3.846   6.251   6.464 -2.0151  1.4559  0.8858
  116MOL    H5120981   3.833   6.192   6.623 -1.0230 -0.4704 -0.2186
  116MOL    H5220982   3.951   6.407   6.710  0.4983  0.6726 -0.5002
  116MOL    H5320983   3.826   6.539   6.467  0.9167 -0.8153 -0.8611
  116MOL    H5420984   3.912   6.598   6.613  1.4055 -0.2053 -0.5079
  116MOL    H5520985   3.997   6.507   6.489  0.7093  2.9341 -0.7944
  116MOL    C5620986   3.729   6.427   6.693  0.6011  0.3767 -0.4066
  116MOL    C5720987   3.677   6.337   6.804 -0.1125  0.0953 -0.1986
  116MOL    C5820988   3.777   6.322   6.916  0.2727 -0.6965 -0.2679
  116MOL    H5920989   3.721   6.527   6.734 -0.2531 -0.2588  0.9998
  116MOL    H6020990   3.659   6.426   6.609  0.2059  0.9126 -0.0824
  116MOL    H6120991   3.663   6.239   6.758 -1.8983  0.0595  0.3714
  116MOL    H6220992   3.869   6.272   6.885  0.9176  0.4250 -0.2051
  116MOL    H6320993   3.802   6.416   6.966 -1.5492 -0.7017  0.7043
  116MOL    H6420994   3.740   6.260   6.998 -0.1704 -0.9633 -0.6654
  116MOL    C6520995   3.547   6.392   6.873  0.0083  1.0525  0.0063
  116MOL    C6620996   3.413   6.375   6.784 -0.2816 -0.6319 -0.8037
  116MOL    C6720997   3.378   6.227   6.746  0.3705 -0.9711 -0.5496
  116MOL    H6820998   3.527   6.331   6.961  0.1863  1.2954  0.2163
  116MOL    H6920999   3.558   6.500   6.886  1.7459  1.0857 -1.4305
  116MOL    H7021000   3.430   6.420   6.687  1.3138  1.8375  0.5526
  116MOL    H7121001   3.295   6.236   6.676  0.3837 -1.0940 -0.5823
  116MOL    H7221002   3.461   6.173   6.699  0.4999 -2.6162  1.4630
  116MOL    H7321003   3.345   6.164   6.829 -1.3815 -0.6518 -0.9756
  116MOL    C7421004   3.303   6.442   6.879  0.4596 -0.1018 -0.0253
  116MOL    C7521005   3.295   6.594   6.879  0.0144  0.4765  0.0717
  116MOL    C7621006   3.272   6.644   6.733  0.1152 -0.2694 -0.0630
  116MOL    H7721007   3.204   6.403   6.853 -0.6418  2.6937 -0.2865
  116MOL    H7821008   3.316   6.406   6.981 -0.8744  1.6752  0.7984
  116MOL    H7921009   3.393   6.631   6.913  0.8411 -1.3369 -0.2842
  116MOL    H8021010   3.235   6.744   6.711  3.1818  0.2986 -3.1350
  116MOL    H8121011   3.361   6.621   6.674  1.1428  1.1204  0.8966
  116MOL    H8221012   3.201   6.572   6.695 -0.3916  0.6253 -0.8350
  116MOL    C8321013   3.186   6.660   6.973  0.0919  0.4421  0.4171
  116MOL    C8421014   3.240   6.705   7.113 -0.4699 -0.4925  0.0224
  116MOL    C8521015   3.137   6.803   7.187 -0.0337  0.2813  1.1792
  116MOL    H8621016   3.130   6.735   6.917 -0.3867  0.9652  1.5823
  116MOL    H8721017   3.109   6.584   6.985  1.1821 -0.5316  1.4547
  116MOL    H8821018   3.326   6.768   7.092  0.2140 -1.6489 -0.7734
  116MOL    H8921019   3.172   6.831   7.286 -1.8294  2.9668  1.0996
  116MOL    H9021020   3.112   6.887   7.122 -0.2617  0.7824  1.9070
  116MOL    H9121021   3.046   6.748   7.212  0.6187 -1.5945 -0.4605
  116MOL    C9221022   3.299   6.594   7.203 -0.1748 -0.2815 -0.5122
  116MOL    C9321023   3.393   6.639   7.319 -0.0272  0.0783 -0.3865
  116MOL    C9421024   3.420   6.532   7.424  0.4490  0.2021 -0.0758
  116MOL    H9521025   3.219   6.531   7.243  0.0617  0.0224  0.4327
  116MOL    H9621026   3.357   6.532   7.134 -1.3476 -0.2876 -1.5143
  116MOL    H9721027   3.340   6.720   7.368 -0.9248 -1.6222  1.5289
  116MOL    H9821028   3.321   6.496   7.453  1.2593 -1.8310  0.2489
  116MOL    H9921029   3.481   6.450   7.384  0.5746  0.9223 -1.3970
  116MOL   H10021030   3.473   6.576   7.509  1.0096 -1.3898  0.4224
  116MOL   C10121031   3.532   6.690   7.264  0.3299 -0.0454  0.7447
  116MOL   C10221032   3.618   6.765   7.366 -0.4703  0.0160  0.5971
  116MOL   C10321033   3.737   6.824   7.288 -0.6147  0.1828  0.2436
  116MOL   H10421034   3.588   6.609   7.218  0.4298  0.8115 -0.6411
  116MOL   H10521035   3.501   6.759   7.185 -3.5351 -3.1892 -0.6504
  116MOL   H10621036   3.661   6.684   7.425 -0.1783  0.2047  0.6419
  116MOL   H10721037   3.790   6.897   7.349 -2.4010  0.6380  1.2849
  116MOL   H10821038   3.808   6.745   7.263 -0.8823 -0.0804  0.3163
  116MOL   H10921039   3.701   6.878   7.200 -0.0390  0.7689  0.3641
  116MOL   C11021040   3.557   6.874   7.456  0.2243  0.0599  0.5570
  116MOL   C11121041   3.627   6.907   7.583 -0.1135 -0.5475 -0.6963
  116MOL   C11221042   3.578   7.053   7.635  0.2158 -0.1016  0.9027
  116MOL   H11321043   3.554   6.959   7.388 -2.4129  0.2331  0.8343
  116MOL   H11421044   3.458   6.842   7.489 -0.4202  0.6329 -0.7948
  116MOL   H11521045   3.733   6.910   7.558  0.0505 -0.8321 -0.0478
  116MOL   H11621046   3.469   7.049   7.643  0.1500  1.0313  0.6096
  116MOL   H11721047   3.631   7.074   0.030  0.5359 -0.4577  0.8004
  116MOL   H11821048   3.599   7.132   7.562 -1.7024 -0.2606  0.1416
  116MOL   C11921049   3.608   6.795   7.690 -0.2377  0.1842  0.0304
  116MOL   C12021050   3.688   6.809   0.128  0.2685 -0.0772  0.0556
  116MOL   C12121051   3.637   6.686   0.219 -0.3348  0.4406  0.4724
  116MOL   H12221052   3.502   6.775   0.002 -0.5605  0.5228 -2.6091
  116MOL   H12321053   3.638   6.695   7.658  1.3784  0.6006  0.1828
  116MOL   H12421054   3.662   6.901   0.181  0.7772 -0.3232  0.7337
  116MOL   H12521055   3.536   6.650   0.204  0.4563 -0.2783 -3.6346
  116MOL   H12621056   3.706   6.602   0.211 -0.6259  0.1217  1.3084
  116MOL   H12721057   3.639   6.730   0.319  0.2847 -0.9969  1.1049
  116MOL   C12821058   3.841   6.790   0.107 -0.5293 -0.6134 -0.6596
  116MOL   C12921059   3.923   6.920   0.108 -0.2460 -0.0141 -0.0219
  116MOL   C13021060   3.911   6.992   0.249 -0.2360  0.3863 -0.1747
  116MOL   H13121061   3.883   6.720   0.179  0.7037  0.1078 -0.6580
  116MOL   H13221062   3.854   6.738   0.011 -0.5758 -2.1205  0.1299
  116MOL   H13321063   3.887   6.985   0.028  1.6981  1.8639  0.5666
  116MOL   H13421064   3.810   7.022   0.276 -0.1606  1.1121 -0.6829
  116MOL   H13521065   3.947   6.931   0.332  0.2676 -0.6934 -1.1806
  116MOL   H13621066   3.967   7.085   0.251 -1.6598  1.5704 -6.1784
  116MOL   C13721067   4.069   6.891   0.079  0.3314 -0.3113  0.7703
  116MOL   C13821068   4.111   6.874   7.625 -0.4818  0.4960 -0.7626
  116MOL   C13921069   4.084   7.002   7.547 -0.0884 -0.9624  0.2300
  116MOL   H14021070   4.123   6.982   0.107 -0.8569  0.7269 -0.2435
  116MOL   H14121071   4.096   6.804   0.139  0.2120 -1.6686 -1.1037
  116MOL   H14221072   4.048   6.796   7.583 -0.9081 -0.3261  1.3378
  116MOL   H14321073   4.136   7.087   7.592  0.5079 -0.9382 -0.5020
  116MOL   H14421074   4.122   6.998   7.445  0.7380  1.1053  0.4372
  116MOL   H14521075   3.982   7.034   7.524  1.1567  1.7757 -1.7611
  116MOL   C14621076   4.261   6.847   7.609  0.5577 -0.0576 -0.3395
  116MOL   C14721077   4.307   6.698   7.656  0.9383 -0.4285  0.4310
  116MOL   C14821078   4.254   6.588   7.571 -0.6344 -0.0574  0.2041
  116MOL   H14921079   4.272   6.865   7.502 -4.6937  3.3426 -0.5200
  116MOL   H15021080   4.316   6.923   7.665  0.2862 -0.2992  0.2532
  116MOL   H15121081   4.263   6.670   0.054 -2.0225  0.3554 -0.6539
  116MOL   H15221082   4.286   6.606   7.469  1.5532 -1.0776  0.6675
  116MOL   H15321083   4.289   6.489   7.598  2.1647  1.0455  0.7934
  116MOL   H15421084   4.147   6.588   7.589 -0.3897 -0.2499  1.7542
  116MOL   C15521085   4.462   6.688   7.655 -1.0214 -0.0081 -0.3064
  116MOL   C15621086   4.510   6.567   0.043 -0.3534  0.0925  0.2235
  116MOL   C15721087   4.553   6.434   7.664 -0.1551 -0.6837  0.7157
  116MOL   H15821088   4.489   6.679   7.550 -1.2125  1.0615 -0.4546
  116MOL   H15921089   4.512   6.778   7.691 -2.2413  0.2405  0.8170
  116MOL   H16021090   4.428   6.526   0.103 -0.4723 -0.4152 -0.2843
  116MOL   H16121091   4.502   6.438   7.568  0.8986 -0.5625  0.1526
  116MOL   H16221092   4.661   6.428   7.648 -0.3604 -0.4716 -0.8156
  116MOL   H16321093   4.516   6.342   0.013 -0.0739 -0.8945  0.3615
  116MOL   C16421094   4.623   6.626   0.139 -0.1584  0.9408 -0.5377
  116MOL   C16521095   4.566   6.674   0.273  0.4510  0.4979 -0.1741
  116MOL   C16621096   4.670   6.657   0.375 -0.2753  0.3753 -0.0851
  116MOL   H16721097   4.688   6.540   0.158  0.3536  1.5472  0.4572
  116MOL   H16821098   4.700   6.686   0.091  2.3006 -2.0120 -0.4498
  116MOL   H16921099   4.485   6.607   0.300 -0.3300  1.8757  0.9492
  116MOL   H17021100   4.705   6.554   0.374 -0.3037  0.3694 -0.9938
  116MOL   H17121101   4.753   6.724   0.355 -0.1708  1.0030  2.3363
  116MOL   H17221102   4.636   6.676   0.477  0.5093 -1.7377  0.6068
  116MOL   C17321103   4.509   6.817   0.274  0.8665 -0.2827 -0.2133
  116MOL   C17421104   4.404   6.837   0.387  1.1168 -0.1226  0.3359
  116MOL   C17521105   4.366   6.984   0.392  0.0579 -0.1140  0.1438
  116MOL   H17621106   4.588   6.889   0.297  0.1574  0.3501  0.2587
  116MOL   H17721107   4.469   6.838   0.174 -1.0049 -0.9660  0.3706
  116MOL   H17821108   4.444   6.807   0.483  0.3601  0.3010  0.7867
  116MOL   H17921109   4.449   7.054   0.385  2.1931 -2.4045  1.8264
  116MOL   H18021110   4.301   7.003   0.306  0.4882  0.3823 -0.0755
  116MOL   H18121111   4.301   7.010   0.475  1.0011 -1.1264  1.2054
  116MOL   H18221112   4.313   6.783   0.361  0.9747  0.6677 -0.8644
  117MOL     C121113   1.684   6.579   2.079 -0.5262  0.2597 -0.2971
  117MOL     C221114   1.723   6.563   2.230  0.0242  0.0545 -0.2223
  117MOL     C321115   1.751   6.414   2.259  0.0228 -0.0179  0.5265
  117MOL     H421116   1.621   6.667   2.068  0.4661  1.0208 -0.0116
  117MOL     H521117   1.604   6.509   2.053  0.8524 -0.9432 -1.4507
  117MOL     H621118   1.637   6.600   2.286 -0.4704  3.7374 -3.2134
  117MOL     H721119   1.812   6.367   2.182 -1.2005  2.2574 -1.9197
  117MOL     H821120   1.796   6.400   2.357  0.6331  0.7848  0.3603
  117MOL     H921121   1.657   6.358   2.251 -1.1552  1.8922  0.7057
  117MOL    H1021122   1.768   6.576   2.010 -0.5845 -2.2747 -0.3231
  117MOL    C1121123   1.840   6.657   2.259  0.0930  0.1229  0.1891
  117MOL    C1221124   1.815   6.809   2.283  0.3454  0.3626 -0.4192
  117MOL    C1321125   1.743   6.843   2.408  0.2278  0.0022 -0.4510
  117MOL    H1421126   1.889   6.626   2.352  0.1674  2.5191  0.9897
  117MOL    H1521127   1.919   6.643   2.185 -0.2745 -1.2101  0.0510
  117MOL    H1621128   1.751   6.840   2.201 -1.0240  0.9277  0.8191
  117MOL    H1721129   1.649   6.790   2.421  0.9417 -0.4939  3.7466
  117MOL    H1821130   1.797   6.819   2.500 -0.8761  0.4558  0.3236
  117MOL    H1921131   1.722   6.949   2.405  1.2160  0.1535 -4.7433
  117MOL    C2021132   1.936   6.905   2.270 -0.1864  0.2405 -0.4657
  117MOL    C2121133   2.037   6.895   2.153 -0.0343  0.1228  0.4307
  117MOL    C2221134   1.973   6.922   2.016  0.0486  0.4980  0.3126
  117MOL    H2321135   1.898   7.007   2.266  2.3432  1.2823  0.7246
  117MOL    H2421136   1.991   6.887   2.362  0.4200  0.8441 -0.7052
  117MOL    H2521137   2.065   6.789   2.159  0.4846  0.1109 -1.6842
  117MOL    H2621138   2.043   6.892   1.939 -0.3729  0.0293  0.1050
  117MOL    H2721139   1.885   6.858   2.002  0.7111 -0.1072 -1.1507
  117MOL    H2821140   1.944   7.023   1.990 -0.1607  0.3873  0.1092
  117MOL    C2921141   2.155   6.981   2.180 -0.2201 -0.1033  0.2787
  117MOL    C3021142   2.287   6.902   2.176  0.1350 -0.6739  0.3273
  117MOL    C3121143   2.408   6.991   2.128  0.6040 -0.0813 -0.3304
  117MOL    H3221144   2.168   7.056   2.102 -1.6280  0.4002  0.5158
  117MOL    H3321145   2.148   7.044   2.269  1.3822 -2.4805  2.1693
  117MOL    H3421146   2.274   6.831   2.094 -0.4486 -1.4368  1.0645
  117MOL    H3521147   2.381   7.056   2.045 -0.9396  0.8017  0.8401
  117MOL    H3621148   2.437   7.056   2.211 -0.3307 -0.9181  0.6696
  117MOL    H3721149   2.493   6.929   2.098 -0.0551 -0.6161 -1.1013
  117MOL    C3821150   2.314   6.825   2.308 -0.5904  0.6965  0.1345
  117MOL    C3921151   2.367   6.678   2.287 -0.0486  0.4881 -0.2994
  117MOL    C4021152   2.521   6.682   2.282  0.8409 -0.5986  0.4383
  117MOL    H4121153   2.372   6.882   2.380  0.0024 -1.3842  1.3493
  117MOL    H4221154   2.223   6.822   2.368 -1.0127 -2.2621 -0.5830
  117MOL    H4321155   2.342   6.646   2.186  4.1353 -1.4303 -0.7893
  117MOL    H4421156   2.557   6.753   2.208  0.7211 -1.9402 -0.9298
  117MOL    H4521157   2.558   6.694   2.384  1.1541  1.4713  0.0948
  117MOL    H4621158   2.560   6.588   2.241  0.6680 -0.6387  0.3624
  117MOL    C4721159   2.326   6.561   2.384  0.7973  0.0999  0.5392
  117MOL    C4821160   2.180   6.515   2.360 -0.7527  0.5117 -1.2204
  117MOL    C4921161   2.154   6.465   2.219  0.3737  0.5592  0.3448
  117MOL    H5021162   2.392   6.477   2.363  0.6645 -0.2117  1.3324
  117MOL    H5121163   2.352   6.601   2.483 -1.1351  0.9017  0.7534
  117MOL    H5221164   2.116   6.603   2.365 -0.6014  0.5809 -0.4765
  117MOL    H5321165   2.205   6.372   2.191 -1.1387  0.0854 -0.8964
  117MOL    H5421166   2.050   6.439   2.199  1.8473 -4.6647 -1.4341
  117MOL    H5521167   2.191   6.521   2.134  1.2598 -1.6554 -0.7796
  117MOL    C5621168   2.137   6.422   2.475 -0.4891 -0.2647  0.6715
  117MOL    C5721169   2.109   6.484   2.611  0.6266  0.0961 -0.3335
  117MOL    C5821170   1.994   6.589   2.594 -0.1796  0.2143  0.3362
  117MOL    H5921171   2.039   6.383   2.447  0.0188 -0.3134 -1.0863
  117MOL    H6021172   2.195   6.329   2.478  1.4475  0.9034 -0.1290
  117MOL    H6121173   2.201   6.542   2.625  0.3162  0.8271 -1.2739
  117MOL    H6221174   1.982   6.636   2.692  1.0468 -2.0090  1.6044
  117MOL    H6321175   2.005   6.675   2.528 -2.2023  0.0269 -0.2777
  117MOL    H6421176   1.898   6.540   2.573 -0.1616  0.1608  0.3746
  117MOL    C6521177   2.097   6.384   2.735 -0.2681 -0.0681 -0.2245
  117MOL    C6621178   2.159   6.439   2.876 -0.4314  0.9492 -0.3321
  117MOL    C6721179   2.097   6.345   2.979 -0.0484 -0.0080 -0.5040
  117MOL    H6821180   1.991   6.358   2.743 -0.1248 -2.7498 -5.1847
  117MOL    H6921181   2.132   6.284   2.711  0.0076 -0.3538  1.3262
  117MOL    H7021182   2.132   6.544   2.886 -1.4289  0.6128  0.6061
  117MOL    H7121183   1.995   6.377   3.000  0.3174  1.3475 -0.7400
  117MOL    H7221184   2.086   6.245   2.937  0.4969 -1.1367  1.9398
  117MOL    H7321185   2.150   6.336   3.074 -3.0491  0.5289  1.2989
  117MOL    C7421186   2.310   6.418   2.866 -0.5981 -0.1276 -0.4401
  117MOL    C7521187   2.389   6.532   2.934 -0.2306 -0.0391 -0.7740
  117MOL    C7621188   2.348   6.553   3.077 -0.6769  0.7474 -0.5403
  117MOL    H7721189   2.355   6.328   2.908 -1.1452  0.8706  2.3701
  117MOL    H7821190   2.338   6.420   2.761 -0.3798 -0.9548 -0.4010
  117MOL    H7921191   2.368   6.623   2.878 -0.7060  0.8946  0.8912
  117MOL    H8021192   2.414   6.626   3.124 -0.1704 -0.4722  0.6807
  117MOL    H8121193   2.250   6.601   3.079 -1.7840 -1.4710  0.2862
  117MOL    H8221194   2.348   6.470   3.147 -0.3891  0.2951 -1.0747
  117MOL    C8321195   2.544   6.506   2.934  0.1758 -1.0048 -0.1044
  117MOL    C8421196   2.609   6.486   2.791 -0.5832 -0.5213 -0.2395
  117MOL    C8521197   2.585   6.598   2.691 -0.1944 -0.1050 -0.0773
  117MOL    H8621198   2.602   6.593   2.965  2.1422 -2.4514  0.3632
  117MOL    H8721199   2.569   6.435   3.013  0.2444 -0.0428  0.7476
  117MOL    H8821200   2.565   6.399   2.742  0.3413 -0.4822 -1.1713
  117MOL    H8921201   2.654   6.601   2.606 -0.6280  0.6266 -0.4060
  117MOL    H9021202   2.484   6.610   2.651 -0.8623 -0.4835  1.4932
  117MOL    H9121203   2.616   6.687   2.744  0.5695 -0.1951 -0.3564
  117MOL    C9221204   2.761   6.439   2.798  1.2008 -0.2589 -0.5283
  117MOL    C9321205   2.801   6.331   2.906 -0.1652  0.7192 -0.7044
  117MOL    C9421206   2.724   6.199   2.895  0.2606 -0.1203 -0.6453
  117MOL    H9521207   2.799   6.413   2.699 -0.8443 -1.3512 -1.0694
  117MOL    H9621208   2.814   6.531   2.820 -0.1989  0.7184 -1.1816
  117MOL    H9721209   2.762   6.364   3.003 -2.6308 -1.1362 -1.0308
  117MOL    H9821210   2.737   6.168   2.792 -0.6626 -0.7504 -0.5734
  117MOL    H9921211   2.752   6.115   2.958 -0.0559 -0.4029 -0.8829
  117MOL   H10021212   2.619   6.227   2.892  0.6421  1.4668 -0.0516
  117MOL   C10121213   2.951   6.303   2.911  0.0549  0.4179 -0.5561
  117MOL   C10221214   3.021   6.320   3.052  0.2894 -0.0588 -0.0532
  117MOL   C10321215   3.162   6.264   3.045 -0.2512 -0.3007  0.0237
  117MOL   H10421216   2.968   6.199   2.881  1.4636  1.1536 -2.4346
  117MOL   H10521217   3.011   6.366   2.844 -0.7460  0.5289 -1.1743
  117MOL   H10621218   2.958   6.256   3.115 -0.9058  1.4360  0.3172
  117MOL   H10721219   3.211   6.285   3.140 -0.0547 -1.4989  0.1917
  117MOL   H10821220   3.166   6.161   3.010  1.0065 -1.0143  2.1584
  117MOL   H10921221   3.222   6.321   2.974 -1.2695  1.9478  0.9128
  117MOL   C11021222   3.026   6.467   3.100  0.7873  0.4353  0.0218
  117MOL   C11121223   3.024   6.485   3.254  0.6695 -0.1817 -0.8418
  117MOL   C11221224   3.059   6.628   3.289 -0.3574  0.4431  0.3274
  117MOL   H11321225   3.110   6.520   3.054  2.0721 -2.0291 -0.5733
  117MOL   H11421226   2.939   6.520   3.060  1.0070 -0.3690 -1.5512
  117MOL   H11521227   3.106   6.422   3.289  1.6684  1.5401 -0.0069
  117MOL   H11621228   3.053   6.642   3.397 -0.5031  1.9971  0.1243
  117MOL   H11721229   3.156   6.641   3.241  0.1369 -1.6898  0.7008
  117MOL   H11821230   2.983   6.696   3.250 -0.2277  0.4013  0.0024
  117MOL   C11921231   2.893   6.438   3.310  0.0295 -0.7905  0.7021
  117MOL   C12021232   2.903   6.382   3.451  0.2080  0.4486 -0.7541
  117MOL   C12121233   2.774   6.392   3.532 -1.0069 -0.6620  0.0189
  117MOL   H12221234   2.827   6.524   3.312 -0.5403 -1.2001 -0.0811
  117MOL   H12321235   2.836   6.373   3.244 -1.2357  1.6329 -0.6406
  117MOL   H12421236   2.978   6.441   3.503 -1.0162  2.4661 -1.2546
  117MOL   H12521237   2.709   6.309   3.505 -0.3918 -1.3185  0.5498
  117MOL   H12621238   2.803   6.383   3.636  2.1719 -0.9505 -0.8281
  117MOL   H12721239   2.721   6.486   3.514 -1.1330 -0.8230 -0.4581
  117MOL   C12821240   2.971   6.238   3.466 -0.2448  0.2105  0.0502
  117MOL   C12921241   3.090   6.225   3.567  0.3327 -1.1623  0.0667
  117MOL   C13021242   3.059   6.277   3.711 -0.1301 -0.3624  0.1462
  117MOL   H13121243   2.902   6.167   3.511  0.9756 -1.6430 -0.9710
  117MOL   H13221244   2.984   6.188   3.370 -0.8006  0.4018 -0.1291
  117MOL   H13321245   3.171   6.286   3.527 -0.6022 -1.5117 -2.4178
  117MOL   H13421246   3.148   6.268   3.774 -0.2027  0.2146  0.3349
  117MOL   H13521247   3.047   6.385   3.717 -0.6951 -0.4815  1.3749
  117MOL   H13621248   2.973   6.236   3.763 -1.0367  2.4048  0.9441
  117MOL   C13721249   3.148   6.079   3.573  0.5540  0.0214 -0.3955
  117MOL   C13821250   3.270   6.051   3.661  0.6272 -0.0932  0.5317
  117MOL   C13921251   3.312   5.910   3.634  0.1204 -0.3012  0.6363
  117MOL   H14021252   3.065   6.009   3.587  0.5578 -0.4004 -2.2812
  117MOL   H14121253   3.168   6.051   3.469 -2.5059 -1.2224 -0.7126
  117MOL   H14221254   3.250   6.069   3.767 -1.5737 -0.1237  0.1502
  117MOL   H14321255   3.241   5.839   3.677  0.3217  0.0482  1.5719
  117MOL   H14421256   3.343   5.881   3.534  0.5760  0.8453  0.4396
  117MOL   H14521257   3.401   5.898   3.697 -0.0216 -1.5923  0.6095
  117MOL   C14621258   3.393   6.129   3.621  0.1287 -0.3903 -1.0752
  117MOL   C14721259   3.492   6.152   3.734 -0.1957 -0.1293  0.3497
  117MOL   C14821260   3.629   6.188   3.685  0.6043 -0.5856  0.4521
  117MOL   H14921261   3.440   6.097   3.528  1.7211  1.4788 -0.9591
  117MOL   H15021262   3.363   6.226   3.582  1.2118  0.6081  0.4830
  117MOL   H15121263   3.499   6.056   3.784  1.3791  0.3029  0.9626
  117MOL   H15221264   3.665   6.111   3.616  2.2441 -0.2536  0.9069
  117MOL   H15321265   3.628   6.286   3.637 -0.7349 -1.4440 -1.3354
  117MOL   H15421266   3.690   6.201   3.774 -1.3086  2.0704  1.4327
  117MOL   C15521267   3.451   6.262   3.838  0.0157 -0.5705  0.2843
  117MOL   C15621268   3.518   6.255   3.983 -0.0792  0.8554 -0.3383
  117MOL   C15721269   3.455   6.367   4.071 -0.0674  0.4116 -0.3195
  117MOL   H15821270   3.482   6.354   3.788 -1.2684 -0.7639 -0.9146
  117MOL   H15921271   3.343   6.277   3.840  0.1137  0.4139 -1.0744
  117MOL   H16021272   3.624   6.279   3.982  0.2099 -0.3204  0.5729
  117MOL   H16121273   3.470   6.459   4.015  1.6173 -0.1501 -0.8235
  117MOL   H16221274   3.355   6.349   4.109 -0.2688 -1.0980 -1.5460
  117MOL   H16321275   3.522   6.372   4.157  0.5343  1.3380 -0.8310
  117MOL   C16421276   3.493   6.119   4.056  0.0383  0.3532 -0.1387
  117MOL   C16521277   3.561   6.093   4.193 -0.1021 -0.3739  0.0055
  117MOL   C16621278   3.543   5.947   4.246  0.1929  0.0077 -0.0648
  117MOL   H16721279   3.388   6.096   4.072 -0.4740  0.8894 -2.4968
  117MOL   H16821280   3.532   6.044   3.987  0.6547 -0.7875  1.4249
  117MOL   H16921281   3.532   6.165   4.269 -0.0261  1.9015 -2.0626
  117MOL   H17021282   3.581   5.872   4.176 -1.0013 -0.9586  0.3119
  117MOL   H17121283   3.590   5.932   4.344  1.5164  1.7973 -0.3885
  117MOL   H17221284   3.438   5.924   4.260  0.0764  0.4329 -0.2275
  117MOL   C17321285   3.714   6.133   4.179  0.1687 -0.3007  0.1060
  117MOL   C17421286   3.807   6.095   4.300  0.4579 -0.3033 -0.5707
  117MOL   C17521287   3.938   6.160   4.276 -0.1581 -0.1060  0.5065
  117MOL   H17621288   3.748   6.090   4.085 -0.9286  2.8531 -1.8209
  117MOL   H17721289   3.726   6.240   4.162 -0.1009  0.5069  4.3780
  117MOL   H17821290   3.823   5.987   4.307 -0.2739 -0.5242 -2.0183
  117MOL   H17921291   4.018   6.122   4.340  0.6342 -1.0336 -1.0130
  117MOL   H18021292   3.976   6.136   4.177  0.9300 -1.8235  1.3006
  117MOL   H18121293   3.927   6.268   4.284  3.1258  0.3257  0.1220
  117MOL   H18221294   3.757   6.128   4.391  0.1153 -0.9251 -0.5258
  118MOL     C121295   5.023   4.058   3.159 -0.4799 -0.0038 -0.0373
  118MOL     C221296   4.931   3.959   3.083  0.1247 -0.1782 -0.1500
  118MOL     C321297   4.868   4.026   2.959 -0.4458 -0.3534  0.4010
  118MOL     H421298   5.114   4.091   3.110  0.5597 -0.6380  1.4386
  118MOL     H521299   5.054   4.019   3.256  1.8991 -0.2002 -0.8559
  118MOL     H621300   4.848   3.927   3.147 -0.9627 -1.1277 -1.9876
  118MOL     H721301   4.803   4.102   3.001 -0.6782 -1.8954  2.9020
  118MOL     H821302   4.943   4.084   2.904  0.8302 -0.7892  1.6610
  118MOL     H921303   4.801   3.965   2.898 -1.4679  0.0239  1.1358
  118MOL    H1021304   4.970   4.149   3.185 -1.6757 -0.5518 -0.5147
  118MOL    C1121305   5.014   3.831   3.030  0.2855  0.4068 -0.8585
  118MOL    C1221306   5.059   3.725   3.137 -0.0205 -0.7579  0.4183
  118MOL    C1321307   4.947   3.699   3.240 -0.1260 -0.2459  0.2722
  118MOL    H1421308   4.951   3.781   2.957 -1.9800  0.1757  1.1921
  118MOL    H1521309   5.105   3.872   2.986  1.8880 -1.1498  0.8675
  118MOL    H1621310   5.149   3.755   3.190  0.6880 -3.2923  0.7242
  118MOL    H1721311   4.905   3.785   3.292 -0.2208  0.9420 -1.7084
  118MOL    H1821312   4.856   3.651   3.205 -1.8863  0.5327  3.6208
  118MOL    H1921313   4.978   3.630   3.319  0.6181 -0.0493  0.1636
  118MOL    C2021314   5.093   3.590   3.069  0.2529 -0.2511 -0.1060
  118MOL    C2121315   5.212   3.597   2.982 -0.9217 -0.1197  0.1447
  118MOL    C2221316   5.355   3.609   3.051  0.0372 -0.2444  0.1676
  118MOL    H2321317   5.139   3.529   3.147 -2.2341 -2.4341 -0.2708
  118MOL    H2421318   5.007   3.543   3.022 -0.6952  1.3724  0.0070
  118MOL    H2521319   5.214   3.685   2.919  2.9867 -0.2183 -0.0105
  118MOL    H2621320   5.439   3.631   2.985  0.0300  0.3711  0.3641
  118MOL    H2721321   5.354   3.685   3.129 -1.4493 -0.1285  0.0501
  118MOL    H2821322   5.373   3.514   3.102 -0.7212 -2.0586 -2.7809
  118MOL    C2921323   5.220   3.482   2.883  0.1431 -0.3084  0.3158
  118MOL    C3021324   5.149   3.510   2.747  0.0819  0.3665 -0.5620
  118MOL    C3121325   5.246   3.566   2.649  0.0296 -1.2107  0.3575
  118MOL    H3221326   5.325   3.466   2.860  0.1799  0.7557 -0.2901
  118MOL    H3321327   5.174   3.396   2.932  0.1280 -0.5710 -0.1553
  118MOL    H3421328   5.059   3.570   2.757 -0.0875  0.2728 -1.5300
  118MOL    H3521329   5.340   3.520   2.617  0.8301  1.7395 -1.7601
  118MOL    H3621330   5.199   3.581   2.551  0.5158 -0.9628  0.1611
  118MOL    H3721331   5.274   3.667   2.678 -1.5765 -0.5088 -0.4583
  118MOL    C3821332   5.092   3.378   2.682 -0.2779 -0.7887 -0.5285
  118MOL    C3921333   4.966   3.313   2.756 -0.0567 -0.3593  0.1127
  118MOL    C4021334   4.840   3.369   2.685 -0.2371 -0.0621 -0.0411
  118MOL    H4121335   5.073   3.385   2.575  0.3522  0.7806 -0.5512
  118MOL    H4221336   5.172   3.304   2.682  1.0127  0.5667 -2.3668
  118MOL    H4321337   4.973   3.345   2.860  0.8927  0.8774 -0.3141
  118MOL    H4421338   4.760   3.332   2.749  1.7797 -2.0144  1.4149
  118MOL    H4521339   4.843   3.478   2.679  2.6209 -0.0413  1.1321
  118MOL    H4621340   4.830   3.331   2.583  0.7484 -0.5720  0.0563
  118MOL    C4721341   4.978   3.154   2.772 -0.6031 -0.5405 -0.2343
  118MOL    C4821342   4.979   3.073   2.641 -0.3968  0.2649  0.1488
  118MOL    C4921343   5.073   2.954   2.653  0.8731  0.4074  0.5196
  118MOL    H5021344   5.069   3.125   2.824 -1.9372 -0.6234  2.1037
  118MOL    H5121345   4.902   3.115   2.839 -2.4347  1.4645 -1.0765
  118MOL    H5221346   5.033   3.134   2.569  0.6135 -0.9772 -0.1619
  118MOL    H5321347   5.042   2.879   2.726  0.7735 -0.4964 -0.4481
  118MOL    H5421348   5.079   2.898   2.561 -1.0897 -1.5316  1.5209
  118MOL    H5521349   5.170   2.978   2.697  1.0675 -0.3663  0.5048
  118MOL    C5621350   4.841   3.036   2.577 -0.3112 -0.0267 -0.0512
  118MOL    C5721351   4.848   2.988   2.425 -0.0689  0.1592  0.2769
  118MOL    C5821352   4.709   2.928   2.397 -0.5258 -0.2611  0.3088
  118MOL    H5921353   4.788   2.966   2.640 -0.3482  0.6659  0.6931
  118MOL    H6021354   4.772   3.120   2.575  0.0590  0.2932  0.5431
  118MOL    H6121355   4.926   2.913   2.415 -1.4410 -1.2238 -0.2283
  118MOL    H6221356   4.689   2.841   2.460 -0.9764 -0.7075 -0.4437
  118MOL    H6321357   4.622   2.994   2.404  0.3068  1.0760 -1.4699
  118MOL    H6421358   4.698   2.880   2.300 -2.5612  0.7814 -0.0171
  118MOL    C6521359   4.877   3.100   2.326 -0.4844 -0.2461  1.2284
  118MOL    C6621360   4.970   3.058   2.203 -0.8234  0.6834 -0.0736
  118MOL    C6721361   5.113   3.021   2.251  0.4196 -0.2517  0.0815
  118MOL    H6821362   4.791   3.143   2.275 -0.7014 -0.4070  1.4625
  118MOL    H6921363   4.940   3.166   2.385  0.6983  2.1931 -2.5636
  118MOL    H7021364   4.991   3.147   2.144 -2.0445  0.1173 -1.4115
  118MOL    H7121365   5.191   3.051   2.181 -0.5739 -0.9108 -1.3355
  118MOL    H7221366   5.147   3.081   2.335 -0.1075  0.3988 -0.1606
  118MOL    H7321367   5.121   2.914   2.268 -3.1287 -0.6597 -0.3347
  118MOL    C7421368   4.913   2.953   2.107  1.0213 -0.1565 -0.5476
  118MOL    C7521369   4.783   2.983   2.029 -0.3466  0.5416 -0.0559
  118MOL    C7621370   4.808   3.092   1.923 -0.3273 -0.0515 -0.5292
  118MOL    H7721371   4.993   2.920   2.041  0.9366  1.4019 -1.4402
  118MOL    H7821372   4.896   2.858   2.158  0.8336  0.3591  0.3545
  118MOL    H7921373   4.712   3.020   2.104  1.1107  0.1169  1.5667
  118MOL    H8021374   4.897   3.070   1.864  1.1180  1.4867  1.0479
  118MOL    H8121375   4.725   3.102   1.852  0.1353  1.3644 -0.8891
  118MOL    H8221376   4.825   3.193   1.961  1.3395 -1.0946  1.5834
  118MOL    C8321377   4.725   2.850   1.960 -0.5492 -0.6584  0.6678
  118MOL    C8421378   4.582   2.851   1.895 -0.7337  0.1311 -0.6308
  118MOL    C8521379   4.553   2.713   1.849 -0.2666  0.2436 -0.1913
  118MOL    H8621380   4.800   2.826   1.885 -0.9433  1.1851 -0.3430
  118MOL    H8721381   4.715   2.771   2.034 -4.2907  1.9739  3.1451
  118MOL    H8821382   4.585   2.927   1.817 -0.5669  0.5590 -0.2146
  118MOL    H8921383   4.628   2.687   1.775 -0.3263 -1.7798  0.4283
  118MOL    H9021384   4.553   2.640   1.930 -1.2614  2.5313  1.9364
  118MOL    H9121385   4.454   2.710   1.802  0.4916 -0.2076 -1.7912
  118MOL    C9221386   4.473   2.901   2.001 -0.6842 -0.0092  0.5521
  118MOL    C9321387   4.430   3.053   1.984  0.4165  0.8818  0.1890
  118MOL    C9421388   4.322   3.053   1.871 -0.0999  0.3322  1.0451
  118MOL    H9521389   4.384   2.839   2.005 -0.2615 -0.5679  1.5670
  118MOL    H9621390   4.521   2.888   2.098 -2.0228 -0.5522  1.1395
  118MOL    H9721391   4.520   3.110   1.959  1.2403 -0.9944 -1.1944
  118MOL    H9821392   4.340   2.978   1.794 -2.2714 -1.1404  1.9252
  118MOL    H9921393   4.223   3.040   1.915 -1.2473  0.1817 -1.4459
  118MOL   H10021394   4.325   3.151   1.822  3.2023 -1.4622 -2.6061
  118MOL   C10121395   4.380   3.114   2.114  0.1876  0.5356  0.2172
  118MOL   C10221396   4.367   3.265   2.123  0.1399  0.3103  0.0142
  118MOL   C10321397   4.254   3.335   2.040 -0.1152 -0.4188 -1.2042
  118MOL   H10421398   4.284   3.072   2.145 -0.7296  0.9298 -1.9746
  118MOL   H10521399   4.458   3.081   2.183  1.8839  2.4331 -0.7462
  118MOL   H10621400   4.453   3.322   2.089  1.6847 -2.9872 -1.9424
  118MOL   H10721401   4.262   3.341   1.931 -2.1696 -0.2592 -1.3632
  118MOL   H10821402   4.163   3.277   2.056 -1.8918  2.9959  1.8071
  118MOL   H10921403   4.221   3.428   2.084  2.2006 -0.0878 -0.0806
  118MOL   C11021404   4.345   3.312   2.271  0.0498  0.0263  0.4924
  118MOL   C11121405   4.461   3.280   2.371  0.2011  0.3118  0.2841
  118MOL   C11221406   4.591   3.348   2.325  0.7045 -0.5433  0.5079
  118MOL   H11321407   4.323   3.418   2.275 -0.4014 -0.0767  0.8598
  118MOL   H11421408   4.256   3.256   2.304 -1.3552  2.6726  1.3508
  118MOL   H11521409   4.484   3.174   2.371  1.4438  0.5673  1.6046
  118MOL   H11621410   4.553   3.450   2.319 -1.3800 -1.2985  0.2970
  118MOL   H11721411   4.671   3.333   2.397 -1.1670 -0.0667  2.7541
  118MOL   H11821412   4.613   3.314   2.224 -1.0067 -1.8635  0.5551
  118MOL   C11921413   4.422   3.333   2.513 -0.1006  0.0337  0.1969
  118MOL   C12021414   4.313   3.251   2.584  0.2219  0.3475  0.0972
  118MOL   C12121415   4.373   3.149   2.686  0.5163  0.6518  0.3089
  118MOL   H12221416   4.517   3.322   2.567 -0.2729  0.7894  0.6552
  118MOL   H12321417   4.385   3.435   2.506  0.7383  0.3518  0.3371
  118MOL   H12421418   4.272   3.187   2.505  0.8869 -2.1612  1.7329
  118MOL   H12521419   4.443   3.082   2.636  0.1791 -0.3803  1.2032
  118MOL   H12621420   4.423   3.191   2.773  1.6610 -0.5590  0.2471
  118MOL   H12721421   4.292   3.083   2.717  0.4989  1.7502  2.7025
  118MOL   C12821422   4.208   3.346   2.639  0.7687 -0.5922 -0.5555
  118MOL   C12921423   4.118   3.413   2.535  0.1817 -0.7012 -0.7815
  118MOL   C13021424   3.994   3.330   2.506 -0.2318  1.1436  0.1092
  118MOL   H13121425   4.153   3.281   2.708 -1.9533  0.9257 -1.2099
  118MOL   H13221426   4.253   3.422   2.703 -0.8480 -0.9204  1.0314
  118MOL   H13321427   4.162   3.415   2.435 -2.7614  2.1406 -2.1271
  118MOL   H13421428   4.015   3.242   2.446 -3.9172  0.9138 -1.0095
  118MOL   H13521429   3.934   3.286   2.585 -1.7703 -0.0693 -1.6644
  118MOL   H13621430   3.917   3.376   2.442  1.6063  1.4974 -1.9175
  118MOL   C13721431   4.069   3.562   2.574 -0.3119 -0.3220  0.4705
  118MOL   C13821432   4.165   3.675   2.554 -0.6594 -0.1909  0.0762
  118MOL   C13921433   4.206   3.707   2.405 -0.5225 -0.1792 -0.6306
  118MOL   H14021434   3.983   3.587   2.511  0.5137 -0.4835 -0.7387
  118MOL   H14121435   4.030   3.554   2.676 -0.0779  1.3940  0.7054
  118MOL   H14221436   4.252   3.635   2.604 -1.4831 -2.5567 -0.3278
  118MOL   H14321437   4.255   3.613   2.378  1.0091  0.4499 -0.0901
  118MOL   H14421438   4.129   3.728   2.332 -2.5540 -1.4446  1.1016
  118MOL   H14521439   4.281   3.786   2.401  0.0798 -0.7807 -1.4339
  118MOL   C14621440   4.112   3.809   2.626 -0.4860  1.1554  0.1163
  118MOL   C14721441   4.075   3.812   2.775 -0.0482  0.4224  0.3175
  118MOL   C14821442   4.201   3.773   2.859 -0.8042 -0.4962 -0.6249
  118MOL   H14921443   4.188   3.882   2.600  0.6454  0.6397  1.8889
  118MOL   H15021444   4.021   3.840   2.574 -1.8814  1.4862  2.6867
  118MOL   H15121445   3.992   3.744   2.790  0.3713  0.3772  2.6043
  118MOL   H15221446   4.279   3.849   2.866 -0.8473 -0.4890 -0.1901
  118MOL   H15321447   4.173   3.762   2.964 -1.1555  0.0481 -0.6627
  118MOL   H15421448   4.252   3.681   2.829 -0.9251 -0.7156 -0.1573
  118MOL   C15521449   4.015   3.951   2.813 -0.1812  0.0587 -0.3745
  118MOL   C15621450   3.983   3.971   2.961  0.4973 -0.4035  0.8493
  118MOL   C15721451   3.911   4.114   2.977 -0.2202  0.5851  0.3257
  118MOL   H15821452   4.083   4.031   2.784 -0.3353  1.1063  2.0941
  118MOL   H15921453   3.926   3.967   2.752 -0.3171  0.4933 -0.0670
  118MOL   H16021454   4.081   3.965   3.007  1.6620 -1.3271 -1.6368
  118MOL   H16121455   3.963   4.193   2.922  2.4489 -0.9942  0.5181
  118MOL   H16221456   3.810   4.102   2.936  0.6984  1.3835 -2.2978
  118MOL   H16321457   3.898   4.148   3.080  0.6245  3.0622 -0.3444
  118MOL   C16421458   3.893   3.862   3.020 -0.1295 -0.0163 -0.6065
  118MOL   C16521459   3.865   3.866   3.169 -0.0873 -0.0040  0.0215
  118MOL   C16621460   3.748   3.769   3.197  0.5138  0.3229  0.2642
  118MOL   H16721461   3.793   3.864   2.977 -0.6218  3.5472  0.5514
  118MOL   H16821462   3.933   3.762   3.007  0.5045  0.1255  0.1995
  118MOL   H16921463   3.828   3.963   3.201 -0.2518 -0.5269  1.4319
  118MOL   H17021464   3.788   3.669   3.176  0.1619 -0.0869  1.5011
  118MOL   H17121465   3.709   3.759   3.298 -1.8901  1.3863 -0.5216
  118MOL   H17221466   3.659   3.783   3.135 -0.0296 -0.0660  0.9412
  118MOL   C17321467   3.992   3.837   3.252  0.2538 -0.6232  0.3543
  118MOL   C17421468   3.958   3.819   3.398 -0.1529  0.1316  0.3617
  118MOL   C17521469   4.065   3.861   3.501 -0.4348 -1.0762 -0.0594
  118MOL   H17621470   4.047   3.751   3.211  0.3511 -0.0689 -0.6888
  118MOL   H17721471   4.067   3.916   3.248 -1.3554  0.9397  0.8824
  118MOL   H17821472   3.931   3.714   3.401 -0.8231  0.2819 -0.1826
  118MOL   H17921473   4.158   3.804   3.489  0.3252 -0.0777  0.9040
  118MOL   H18021474   4.098   3.964   3.492  0.4289 -1.2101  1.3159
  118MOL   H18121475   4.020   3.867   3.600  0.5093  0.4524  0.2979
  118MOL   H18221476   3.870   3.882   3.410 -1.0843 -0.6064 -2.2714
  119MOL     C121477   2.774   2.682   0.080  0.4280 -0.5013  0.2348
  119MOL     C221478   2.732   2.574   7.678 -0.1950 -0.4180 -0.4186
  119MOL     C321479   2.606   2.621   7.605  0.2736 -0.3405  0.1355
  119MOL     H421480   2.695   2.690   0.154 -0.8938  0.6819 -1.2766
  119MOL     H521481   2.796   2.777   0.032 -0.3328 -0.2170  0.4400
  119MOL     H621482   2.701   2.485   0.036  0.4305 -2.0108 -2.5498
  119MOL     H721483   2.573   2.554   7.526 -1.8542 -0.0739  0.7792
  119MOL     H821484   2.525   2.625   7.678 -1.2577 -1.6805 -1.4584
  119MOL     H921485   2.628   2.720   7.565  0.6730 -1.5072 -2.6398
  119MOL    H1021486   2.863   2.646   0.132 -0.0557 -1.5768  0.3273
  119MOL    C1121487   2.845   2.541   7.574  0.0903  0.4260  0.4926
  119MOL    C1221488   2.961   2.466   7.642  0.2738  0.0059 -0.1642
  119MOL    C1321489   2.953   2.309   7.623  0.1184 -0.0766 -0.0292
  119MOL    H1421490   2.819   2.469   7.497  0.9863  0.4720  0.1443
  119MOL    H1521491   2.888   2.636   7.541  1.4432 -0.2665  0.2303
  119MOL    H1621492   2.970   2.489   0.050  1.0187 -0.9474 -0.0115
  119MOL    H1721493   2.945   2.277   7.518  1.9609  0.4461 -0.3386
  119MOL    H1821494   3.040   2.273   7.677  2.5614 -0.0622 -3.7908
  119MOL    H1921495   2.866   2.283   7.684 -0.4654  0.4947 -0.6135
  119MOL    C2021496   3.095   2.518   7.591  0.5672  0.0837 -0.3345
  119MOL    C2121497   3.233   2.460   7.637 -0.3016  0.8425 -0.3161
  119MOL    C2221498   3.342   2.523   7.545  0.1791  0.2555  0.3379
  119MOL    H2321499   3.098   2.512   7.482 -1.3663 -0.0640 -0.3953
  119MOL    H2421500   3.081   2.625   7.607  0.6603 -0.1170  1.1647
  119MOL    H2521501   3.227   2.352   7.625  2.4606  0.7221 -1.0318
  119MOL    H2621502   3.394   2.610   7.585 -0.7615  1.2862 -0.6570
  119MOL    H2721503   3.427   2.458   7.527  1.7936  2.1260  1.0472
  119MOL    H2821504   3.301   2.562   7.451  0.2158  0.2471  0.3188
  119MOL    C2921505   3.265   2.478   0.092  0.2441 -0.4813  0.6705
  119MOL    C3021506   3.394   2.409   0.140  0.2166  0.0957 -0.0349
  119MOL    C3121507   3.477   2.464   0.259  0.0846 -0.2712  0.2554
  119MOL    H3221508   3.264   2.585   0.115 -1.2670 -0.7302  1.8756
  119MOL    H3321509   3.187   2.441   0.159 -0.1429 -0.8423  0.0171
  119MOL    H3421510   3.464   2.422   0.057  0.0845 -0.4777 -0.2351
  119MOL    H3521511   3.566   2.402   0.275 -0.1358 -0.9004 -0.8818
  119MOL    H3621512   3.512   2.565   0.239 -1.5835  0.0131 -1.2790
  119MOL    H3721513   3.414   2.477   0.347 -0.9557 -0.3261 -0.4852
  119MOL    C3821514   3.365   2.258   0.160 -0.4781  0.8300 -0.7335
  119MOL    C3921515   3.437   2.161   0.058  0.7024 -0.1293 -0.2266
  119MOL    C4021516   3.592   2.167   0.069 -0.3374  0.7157 -0.3000
  119MOL    H4121517   3.378   2.229   0.264 -1.0117  0.3893 -0.7858
  119MOL    H4221518   3.257   2.247   0.144 -0.2530  1.7658 -3.0853
  119MOL    H4321519   3.408   2.200   7.657  1.9080  0.9318 -0.1780
  119MOL    H4421520   3.639   2.265   0.076  1.1205 -0.0124  0.2422
  119MOL    H4521521   3.636   2.121   0.157  0.7000 -0.2695 -1.3093
  119MOL    H4621522   3.640   2.122   7.679 -0.9225 -0.8128  0.1411
  119MOL    C4721523   3.387   2.015   0.089 -0.2116 -0.0779 -0.0089
  119MOL    C4821524   3.433   1.902   7.696 -0.5020 -0.5535 -0.3887
  119MOL    C4921525   3.419   1.773   0.076 -0.0900  0.1519  0.7228
  119MOL    H5021526   3.403   1.999   0.196 -2.3018 -0.4851  0.2741
  119MOL    H5121527   3.278   2.018   0.087 -0.1624  3.1191  0.1537
  119MOL    H5221528   3.535   1.928   7.668  0.4817 -2.2295  1.5129
  119MOL    H5321529   3.472   1.690   0.029 -1.0181 -1.0157  1.7085
  119MOL    H5421530   3.472   1.771   0.171  2.4619 -3.8178 -0.6635
  119MOL    H5521531   3.320   1.738   0.105 -0.2597  1.0118  1.2107
  119MOL    C5621532   3.365   1.882   7.563  0.0898 -0.4717 -0.5463
  119MOL    C5721533   3.434   1.794   7.453  0.3045  0.8549  0.9501
  119MOL    C5821534   3.329   1.690   7.410 -0.6190  0.8086  0.3326
  119MOL    H5921535   3.273   1.847   7.610  1.5449 -3.8176 -0.0855
  119MOL    H6021536   3.341   1.977   7.516  1.3001 -1.7980 -3.9800
  119MOL    H6121537   3.516   1.742   7.503 -1.7121  0.4730  3.9866
  119MOL    H6221538   3.373   1.626   7.333 -3.2886 -1.8934  0.9075
  119MOL    H6321539   3.310   1.624   7.495  0.6395 -0.9783 -0.7355
  119MOL    H6421540   3.243   1.745   7.371 -0.8678  0.6652  0.6775
  119MOL    C6521541   3.495   1.885   7.337  0.4683  0.3846  0.2583
  119MOL    C6621542   3.596   1.991   7.377  0.2953  0.6003  0.1773
  119MOL    C6721543   3.726   1.922   7.427 -0.0262  0.6118 -0.0400
  119MOL    H6821544   3.533   1.825   7.255 -0.2361  1.1347 -0.6299
  119MOL    H6921545   3.412   1.936   7.288 -0.0469 -0.5460  0.1612
  119MOL    H7021546   3.547   2.039   7.462 -0.9260  0.7053 -0.5827
  119MOL    H7121547   3.708   1.832   7.486  0.9040  1.4626  1.5632
  119MOL    H7221548   3.785   1.897   7.339  0.7992  0.1256  0.6452
  119MOL    H7321549   3.784   1.986   7.494  1.6315 -2.1726  1.2726
  119MOL    C7421550   3.630   2.086   7.268 -0.1131 -0.0580  0.4463
  119MOL    C7521551   3.739   2.195   7.285 -0.6498  0.5024  1.1184
  119MOL    C7621552   3.774   2.259   7.154  0.3282  0.1249 -0.1248
  119MOL    H7721553   3.654   2.023   7.182  0.2770 -0.6793  1.0073
  119MOL    H7821554   3.535   2.129   7.237 -0.8212  0.6572  3.4490
  119MOL    H7921555   3.837   2.157   7.314 -1.8150 -1.7880  2.1496
  119MOL    H8021556   3.877   2.294   7.154  1.0511 -1.9615 -0.4710
  119MOL    H8121557   3.762   2.182   7.078  2.6851  0.4536 -0.8713
  119MOL    H8221558   3.706   2.340   7.127 -1.1153 -0.1111  2.6080
  119MOL    C8321559   3.691   2.300   7.386  0.3285 -0.4432 -1.0313
  119MOL    C8421560   3.792   2.403   7.433 -0.5756  0.6440 -0.5143
  119MOL    C8521561   3.727   2.531   7.483  0.1235 -0.4675  0.6948
  119MOL    H8621562   3.607   2.351   7.339  1.1700  0.9929 -1.0141
  119MOL    H8721563   3.648   2.254   7.475 -0.3818  0.7631 -0.7447
  119MOL    H8821564   3.844   2.445   7.346  2.0641  1.5327  1.4123
  119MOL    H8921565   3.798   2.606   7.517  0.2449 -0.2013 -0.1286
  119MOL    H9021566   3.652   2.571   7.414  0.3143 -0.1142  0.6924
  119MOL    H9121567   3.662   2.503   7.566  0.3847  1.7269  1.6716
  119MOL    C9221568   3.891   2.344   7.538  0.3646 -0.4764  0.7904
  119MOL    C9321569   4.043   2.369   7.516  0.4923 -0.5436  1.4532
  119MOL    C9421570   4.083   2.517   7.513 -0.3051 -0.0964 -0.4290
  119MOL    H9521571   3.864   2.390   7.633  1.2633 -0.0393  0.8388
  119MOL    H9621572   3.870   2.238   7.552 -0.9805 -0.6819 -2.4034
  119MOL    H9721573   4.081   2.331   7.421 -0.8962  1.6894 -0.0463
  119MOL    H9821574   4.184   2.539   7.478 -0.4614  0.0459 -0.8026
  119MOL    H9921575   4.028   2.579   7.442 -0.4210 -1.3335 -1.4569
  119MOL   H10021576   4.068   2.566   7.609 -1.7526  0.1163 -0.7550
  119MOL   C10121577   4.122   2.300   7.632  0.0589  0.3267  0.6078
  119MOL   C10221578   4.088   2.153   7.668 -0.1835 -0.2874 -0.3163
  119MOL   C10321579   4.109   2.064   7.545 -0.1558 -0.1331 -0.3677
  119MOL   H10421580   4.229   2.294   7.615  0.5409  1.3679  3.1985
  119MOL   H10521581   4.101   2.347   0.030  1.7823 -1.0301  1.6848
  119MOL   H10621582   3.986   2.156   0.009 -0.5929 -0.2947 -1.3794
  119MOL   H10721583   4.213   2.075   7.513 -0.3000  0.3858 -0.6575
  119MOL   H10821584   4.077   1.960   7.535  0.0681 -0.2616  0.2323
  119MOL   H10921585   4.054   2.087   7.453  0.8216  2.1513 -0.4154
  119MOL   C11021586   4.165   2.094   0.090  0.2810  0.9364 -0.3038
  119MOL   C11121587   4.113   2.144   0.227  0.0661 -0.0407  0.5401
  119MOL   C11221588   3.987   2.069   0.269  0.4031 -0.1522 -0.3580
  119MOL   H11321589   4.160   1.986   0.081 -1.0020  0.5945  3.4465
  119MOL   H11421590   4.270   2.119   0.072  0.5378  0.7337  0.8724
  119MOL   H11521591   4.087   2.250   0.223 -1.8367 -0.4223  1.9662
  119MOL   H11621592   3.934   2.120   0.349 -0.5508  0.9484 -1.6709
  119MOL   H11721593   3.923   2.054   0.182  1.0834 -2.6658 -0.4659
  119MOL   H11821594   4.013   1.970   0.306  3.1898  0.6166 -0.1183
  119MOL   C11921595   4.222   2.127   0.330  0.7429 -0.0737  0.3200
  119MOL   C12021596   4.190   2.165   0.477  0.4198 -0.5320 -0.5590
  119MOL   C12121597   4.184   2.041   0.562  0.5510 -0.4113  0.1225
  119MOL   H12221598   4.268   2.031   0.306 -2.0902 -1.0898 -1.2875
  119MOL   H12321599   4.302   2.200   0.317 -0.4729  0.8339 -2.5641
  119MOL   H12421600   4.092   2.212   0.487  1.0209  0.2511  1.7804
  119MOL   H12521601   4.273   1.982   0.540  2.4353  3.0696 -2.1519
  119MOL   H12621602   4.170   2.054   0.670 -1.8549 -1.6047 -0.0328
  119MOL   H12721603   4.097   1.984   0.531  1.0626 -0.3319 -1.5117
  119MOL   C12821604   4.294   2.262   0.538 -0.3471 -0.5664  0.3539
  119MOL   C12921605   4.258   2.410   0.543 -0.2502  0.1767  0.4022
  119MOL   C13021606   4.346   2.494   0.637 -0.0426  0.4032 -0.0154
  119MOL   H13121607   4.298   2.239   0.644 -1.6979 -1.2926  0.2600
  119MOL   H13221608   4.394   2.268   0.496  0.5811 -0.0189  2.5745
  119MOL   H13321609   4.160   2.414   0.592 -0.6457 -0.0361 -0.3598
  119MOL   H13421610   4.348   2.460   0.740 -2.3598 -0.4417 -0.2213
  119MOL   H13521611   4.446   2.480   0.595  0.0557  0.7167  0.1167
  119MOL   H13621612   4.332   2.602   0.634  0.3305  0.4605  0.2925
  119MOL   C13721613   4.241   2.479   0.405 -0.0290 -0.2842  0.5613
  119MOL   C13821614   4.140   2.594   0.389 -0.1512 -0.1663 -1.0118
  119MOL   C13921615   4.162   2.655   0.245 -0.8926 -0.1056 -0.1490
  119MOL   H14021616   4.340   2.500   0.363  0.2789 -0.2879  1.2775
  119MOL   H14121617   4.191   2.404   0.345 -0.6721  2.1783 -2.1155
  119MOL   H14221618   4.153   2.669   0.466 -1.3819  1.9238 -2.7802
  119MOL   H14321619   4.263   2.680   0.215 -0.8175 -1.0851 -0.7409
  119MOL   H14421620   4.131   2.588   0.165  0.2740 -1.3835  0.4497
  119MOL   H14521621   4.117   2.754   0.236 -1.3022 -0.1483  1.2156
  119MOL   C14621622   3.993   2.539   0.390  0.2900 -0.1681 -0.0411
  119MOL   C14721623   3.880   2.647   0.402  0.1175  0.5956  0.7052
  119MOL   C14821624   3.814   2.670   0.270  1.0739 -0.7130 -0.1839
  119MOL   H14921625   3.970   2.472   0.307  0.0744 -0.7827  0.5158
  119MOL   H15021626   3.989   2.486   0.485 -2.4658 -0.6307 -0.3957
  119MOL   H15121627   3.924   2.745   0.417  0.7811  0.4281 -0.1047
  119MOL   H15221628   3.756   2.763   0.266 -0.0142 -1.3468  0.5321
  119MOL   H15321629   3.886   2.681   0.189  0.1236 -1.0592 -1.0961
  119MOL   H15421630   3.746   2.590   0.240  0.8127 -0.8519  0.7744
  119MOL   C15521631   3.777   2.626   0.508  0.2676  0.0333  0.1400
  119MOL   C15621632   3.681   2.746   0.548 -0.7217  0.7691 -0.3479
  119MOL   C15721633   3.588   2.696   0.660 -0.4765 -0.6274 -0.2817
  119MOL   H15821634   3.714   2.538   0.497 -0.2723  0.4259  0.0882
  119MOL   H15921635   3.832   2.595   0.597 -0.4721 -0.2943  0.4884
  119MOL   H16021636   3.625   2.763   0.456  1.5115  0.7718 -1.7560
  119MOL   H16121637   3.534   2.783   0.697  0.8091 -0.4430  1.2091
  119MOL   H16221638   3.504   2.629   0.640 -0.5146 -0.7000  0.1230
  119MOL   H16321639   3.645   2.664   0.747  1.8038  0.7689 -1.2260
  119MOL   C16421640   3.771   2.871   0.593  0.9124  0.0787 -0.3910
  119MOL   C16521641   3.697   2.998   0.634  0.7284  0.7389 -0.2346
  119MOL   C16621642   3.790   3.117   0.656 -0.0689  0.4565  0.3462
  119MOL   H16721643   3.853   2.850   0.662  1.2698  2.9287  0.1146
  119MOL   H16821644   3.828   2.901   0.505 -0.2724  0.1481 -1.1427
  119MOL   H16921645   3.643   2.967   0.723  1.9615  1.8746  0.9339
  119MOL   H17021646   3.886   3.088   0.700 -0.2529 -1.9810 -0.7278
  119MOL   H17121647   3.813   3.162   0.559  1.0215 -1.7874 -0.4920
  119MOL   H17221648   3.733   3.188   0.716  0.4577 -0.1907  1.6311
  119MOL   C17321649   3.577   3.039   0.537  0.1811  0.1711  0.2059
  119MOL   C17421650   3.505   3.172   0.566  0.7456 -0.0242 -0.0305
  119MOL   C17521651   3.401   3.216   0.461  0.3106 -0.4107  0.1944
  119MOL   H17621652   3.618   3.034   0.436 -0.0739  0.9718  0.0605
  119MOL   H17721653   3.500   2.963   0.536 -3.0194  3.2550  0.7804
  119MOL   H17821654   3.576   3.253   0.576 -1.5333  2.4202 -2.7780
  119MOL   H17921655   3.366   3.309   0.507  0.8305 -0.1608  0.0907
  119MOL   H18021656   3.433   3.246   0.361  0.9571 -1.2610  0.1441
  119MOL   H18121657   3.317   3.147   0.462  0.5552 -0.7280  2.9185
  119MOL   H18221658   3.464   3.148   0.664 -1.0658  0.7730 -0.5673
  120MOL     C121659   3.052   0.325   0.722 -0.4961 -0.5281 -0.4404
  120MOL     C221660   3.049   0.450   0.628 -0.5942 -0.0966 -0.0289
  120MOL     C321661   2.953   0.556   0.678  0.3355  0.3857  0.0341
  120MOL     H421662   2.953   0.281   0.736 -1.5543  1.7461 -0.4759
  120MOL     H521663   3.091   0.354   0.819  0.0944  1.1740 -1.1461
  120MOL     H621664   3.006   0.418   0.533 -0.7735  0.3750 -0.1085
  120MOL     H721665   2.927   0.638   0.611  0.9608 -0.3456 -1.1129
  120MOL     H821666   2.858   0.507   0.701 -0.0884  1.0992 -0.1517
  120MOL     H921667   2.985   0.604   0.771 -1.0764 -0.5479  1.0206
  120MOL    H1021668   3.121   0.258   0.671  0.1723  1.0918 -1.7515
  120MOL    C1121669   3.188   0.510   0.599 -0.8200  0.7473  0.6730
  120MOL    C1221670   3.300   0.422   0.531  0.6841 -1.1204 -0.7094
  120MOL    C1321671   3.269   0.385   0.390 -0.4764 -0.3344 -0.2051
  120MOL    H1421672   3.175   0.593   0.530 -4.0959 -1.3558 -1.3819
  120MOL    H1521673   3.226   0.559   0.688 -1.4499  3.0938 -0.3234
  120MOL    H1621674   3.321   0.330   0.585  3.0919 -0.8470 -1.1221
  120MOL    H1721675   3.227   0.470   0.336  2.5477  0.2435 -1.7171
  120MOL    H1821676   3.348   0.339   0.332 -1.1872  0.8620 -2.1802
  120MOL    H1921677   3.184   0.317   0.379 -1.1219  0.8357 -2.7864
  120MOL    C2021678   3.432   0.498   0.524 -0.2673  0.3379 -1.1970
  120MOL    C2121679   3.573   0.430   0.503 -0.1130 -0.0989 -0.1598
  120MOL    C2221680   3.677   0.540   0.458 -0.4800  0.1992 -0.1826
  120MOL    H2321681   3.419   0.586   0.461 -3.7055  0.4445 -0.3834
  120MOL    H2421682   3.446   0.537   0.625  2.8932 -1.8770 -0.6722
  120MOL    H2521683   3.557   0.361   0.420  1.5634  0.2135 -0.7738
  120MOL    H2621684   3.775   0.499   0.435 -0.4155 -0.3062  0.9511
  120MOL    H2721685   3.647   0.593   0.367 -1.7341  0.3971  0.3281
  120MOL    H2821686   3.684   0.624   0.526 -1.3851  1.1766 -1.2653
  120MOL    C2921687   3.620   0.344   0.625  0.4906 -0.5810  0.0510
  120MOL    C3021688   3.719   0.232   0.597  0.3321 -0.0291 -0.2477
  120MOL    C3121689   3.839   0.227   0.693 -0.2141  0.1366  0.1670
  120MOL    H3221690   3.659   0.421   0.691  0.5162 -0.1888 -0.4275
  120MOL    H3321691   3.532   0.300   0.673 -1.2681  1.2675 -1.4492
  120MOL    H3421692   3.771   0.267   0.507 -0.3765  1.2987 -0.1528
  120MOL    H3521693   3.919   0.167   0.650  0.8344  1.6610 -0.0074
  120MOL    H3621694   3.863   0.332   0.703 -2.0450  0.5091  0.9084
  120MOL    H3721695   3.815   0.199   0.796  4.5205  1.1798  1.6779
  120MOL    C3821696   3.665   0.086   0.582 -0.3785 -0.1358 -0.4864
  120MOL    C3921697   3.567   0.067   0.470 -0.0675 -0.0596 -0.4137
  120MOL    C4021698   3.636   0.095   0.335 -0.4228  0.4287  0.3470
  120MOL    H4121699   3.747   0.020   0.554 -0.9888 -0.5481 -1.3296
  120MOL    H4221700   3.624   0.061   0.679  0.4085  1.6934  0.3402
  120MOL    H4321701   3.484   0.134   0.491 -1.2310 -1.5440 -0.2400
  120MOL    H4421702   3.559   0.098   0.257  0.9346  0.4187 -1.0227
  120MOL    H4521703   3.685   0.192   0.321  0.8775 -0.1004  1.1866
  120MOL    H4621704   3.708   0.021   0.303 -1.1689 -0.1791  0.0513
  120MOL    C4721705   3.505   7.625   0.469  0.0073  0.0201 -0.1023
  120MOL    C4821706   3.404   7.583   0.579  0.4293 -0.5779 -0.6621
  120MOL    C4921707   3.262   7.652   0.547 -0.9918 -0.0720 -0.2009
  120MOL    H5021708   3.453   7.614   0.374 -1.6684  2.2986  0.5033
  120MOL    H5121709   3.587   7.553   0.466 -0.4842 -0.4900 -2.6067
  120MOL    H5221710   3.437   7.626   0.674 -1.5475  0.9500 -0.6356
  120MOL    H5321711   3.193   7.629   0.629  0.3151 -1.2659  0.5897
  120MOL    H5421712   3.275   0.060   0.525 -3.5902  0.3655  0.2091
  120MOL    H5521713   3.233   7.604   0.453 -1.0602  0.2906 -0.3659
  120MOL    C5621714   3.385   7.439   0.596  0.1812  0.1511  0.0470
  120MOL    C5721715   3.489   7.347   0.655 -0.8914  0.1865  0.9184
  120MOL    C5821716   3.507   7.361   0.804  0.9919 -0.3701 -0.4944
  120MOL    H5921717   3.294   7.407   0.647  0.5220 -0.5120  0.2509
  120MOL    H6021718   3.358   7.405   0.496  0.1141  1.3631 -0.3540
  120MOL    H6121719   3.582   7.390   0.617 -1.3644  2.6700  2.4130
  120MOL    H6221720   3.612   7.343   0.826  0.9871  1.4919  1.1846
  120MOL    H6321721   3.499   7.465   0.835  0.9633  0.4036 -2.9352
  120MOL    H6421722   3.444   7.292   0.860  0.7365  0.3572  0.1289
  120MOL    C6521723   3.481   7.195   0.621  0.4549  0.2169  0.7219
  120MOL    C6621724   3.494   7.157   0.472 -0.8910 -0.3345 -0.1371
  120MOL    C6721725   3.625   7.221   0.411  0.0845  0.8502  0.7266
  120MOL    H6821726   3.561   7.159   0.685  0.9466  0.0586  0.0085
  120MOL    H6921727   3.382   7.161   0.653  1.5154 -2.9342  0.7651
  120MOL    H7021728   3.416   7.205   0.412 -1.3576 -0.0992  0.6598
  120MOL    H7121729   3.622   7.330   0.418 -0.4343  0.8996 -0.1500
  120MOL    H7221730   3.720   7.184   0.452 -0.4631 -0.0852  1.1767
  120MOL    H7321731   3.620   7.193   0.306  2.2883 -0.1404  0.8616
  120MOL    C7421732   3.493   7.006   0.457  0.8129 -0.5072 -0.0298
  120MOL    C7521733   3.358   6.944   0.413 -0.3231  0.6053  0.4734
  120MOL    C7621734   3.345   6.957   0.263 -0.4132  0.8720 -0.2702
  120MOL    H7721735   3.567   6.979   0.382  0.9824  3.4785 -1.4490
  120MOL    H7821736   3.531   6.961   0.549  1.1426 -1.5913 -0.6948
  120MOL    H7921737   3.270   6.984   0.461 -0.1715  2.3556 -0.6476
  120MOL    H8021738   3.438   6.943   0.208  0.1996  0.1783  0.9162
  120MOL    H8121739   3.269   6.891   0.222 -2.1520  0.6072  3.2402
  120MOL    H8221740   3.310   7.056   0.234  1.8370  1.8773  0.3521
  120MOL    C8321741   3.341   6.797   0.455 -0.4759  0.7190  0.7279
  120MOL    C8421742   3.202   6.739   0.428  0.7917  0.2708  0.5081
  120MOL    C8521743   3.205   6.590   0.462 -0.5083  0.4617  0.1183
  120MOL    H8621744   3.418   6.737   0.407 -1.6462 -0.2969  0.0879
  120MOL    H8721745   3.366   6.792   0.561  0.8183  3.0339  0.5641
  120MOL    H8821746   3.168   6.748   0.325  0.7591 -0.6445  0.4286
  120MOL    H8921747   3.109   6.540   0.467  0.2659 -1.4283 -2.5725
  120MOL    H9021748   3.247   6.524   0.386  0.9971  0.1648  1.1820
  120MOL    H9121749   3.253   6.573   0.558  0.0157  2.3695  0.2180
  120MOL    C9221750   3.086   6.800   0.512  0.6370  0.3933  0.0024
  120MOL    C9321751   2.966   6.869   0.439  0.3493  0.6522 -0.1232
  120MOL    C9421752   2.875   6.762   0.383 -0.1641  0.3326  0.6563
  120MOL    H9521753   3.041   6.722   0.574 -1.3425  1.1730 -0.4161
  120MOL    H9621754   3.134   6.856   0.592  0.1753  0.9720 -0.1219
  120MOL    H9721755   3.006   6.915   0.348  3.8129  1.8801  1.9345
  120MOL    H9821756   2.828   6.714   0.469  0.4205  0.3397  0.9802
  120MOL    H9921757   2.786   6.800   0.332 -1.6614 -2.1358  1.3101
  120MOL   H10021758   2.939   6.693   0.328  1.3816  1.5705  0.8681
  120MOL   C10121759   2.900   6.991   0.510  0.3237  0.5958  0.1704
  120MOL   C10221760   2.992   7.098   0.577  0.1388 -0.0279  0.1619
  120MOL   C10321761   3.055   7.189   0.474  0.6740  0.5411 -0.0378
  120MOL   H10421762   2.834   7.054   0.450 -1.3358 -1.0901  0.1682
  120MOL   H10521763   2.841   6.948   0.591  2.7901  0.3656  1.9097
  120MOL   H10621764   3.064   7.043   0.638 -0.7163 -1.8479 -0.4473
  120MOL   H10721765   3.137   7.132   0.432  0.1159  0.6175 -1.2553
  120MOL   H10821766   2.976   7.220   0.405 -0.6583 -0.4253  1.0277
  120MOL   H10921767   3.087   7.288   0.505 -0.5144  0.8524  0.2317
  120MOL   C11021768   2.906   7.178   0.678  0.1467 -0.1348  0.2295
  120MOL   C11121769   2.967   7.251   0.795 -0.7435  0.0425 -0.6399
  120MOL   C11221770   2.901   7.389   0.808  0.2683 -0.3034  0.8305
  120MOL   H11321771   2.832   7.230   0.617 -1.8415 -1.8101  1.1692
  120MOL   H11421772   2.835   7.109   0.722 -2.6444  1.8057 -1.1076
  120MOL   H11521773   3.069   7.282   0.771 -0.9303  1.2769  0.1209
  120MOL   H11621774   2.957   7.431   0.892 -0.8413  1.7891  0.5642
  120MOL   H11721775   2.930   7.458   0.729 -1.9941 -0.2608  0.0109
  120MOL   H11821776   2.795   7.401   0.829 -0.0756  0.0796 -1.0885
  120MOL   C11921777   2.969   7.183   0.925  0.1890 -0.2251 -0.2215
  120MOL   C12021778   3.040   7.055   0.934 -0.2900  0.4889  0.1612
  120MOL   C12121779   3.195   7.077   0.937  0.3694  0.1136 -0.2062
  120MOL   H12221780   3.003   7.252   1.002  2.8996 -0.0627 -1.5132
  120MOL   H12321781   2.866   7.167   0.955  0.9752 -1.8461  1.7760
  120MOL   H12421782   3.021   6.989   0.849  3.6386  0.7929 -1.0587
  120MOL   H12521783   3.235   7.141   1.016  0.0203  0.9227 -0.6799
  120MOL   H12621784   3.253   6.985   0.932  0.0549 -0.1949  1.5079
  120MOL   H12721785   3.216   7.133   0.846  0.9145 -0.2091 -0.2793
  120MOL   C12821786   3.008   6.979   1.071  0.0110 -0.3221  0.6994
  120MOL   C12921787   2.859   6.928   1.077 -0.3811 -0.7919  0.6055
  120MOL   C13021788   2.821   6.835   0.954  0.3232 -0.0873 -0.0656
  120MOL   H13121789   3.064   6.886   1.081  1.2598 -0.0292 -2.8160
  120MOL   H13221790   3.039   7.035   1.159 -0.2545  2.2310 -0.7688
  120MOL   H13321791   2.786   7.008   1.067  0.4441  0.1528  1.8486
  120MOL   H13421792   2.884   6.749   0.933  2.1072  0.7477  1.7168
  120MOL   H13521793   2.716   6.804   0.951 -0.5245  2.7020 -0.5195
  120MOL   H13621794   2.819   6.901   0.867  1.0222 -0.8139 -0.6392
  120MOL   C13721795   2.823   6.851   1.211  0.0348  0.0091  0.3953
  120MOL   C13821796   2.825   6.930   1.335 -0.8141 -0.0676  0.3306
  120MOL   C13921797   2.715   7.040   1.335  0.4305  0.1293 -0.0826
  120MOL   H14021798   2.721   6.821   1.191  0.0667  0.8654 -1.1055
  120MOL   H14121799   2.878   6.757   1.211 -1.6842 -1.0146  0.1204
  120MOL   H14221800   2.924   6.975   1.346  0.3198 -2.8487  2.1025
  120MOL   H14321801   2.715   7.116   1.257 -2.5368 -3.2353 -3.5715
  120MOL   H14421802   2.617   6.993   1.335  0.1430  0.7301  0.4812
  120MOL   H14521803   2.714   7.081   1.436  0.4298 -1.1913  0.4570
  120MOL   C14621804   2.816   6.829   1.447 -0.3429  0.0482  0.5060
  120MOL   C14721805   2.940   6.806   1.541  0.5046 -0.3460  0.3926
  120MOL   C14821806   2.900   6.731   1.667 -0.1054 -0.0329  0.1749
  120MOL   H14921807   2.731   6.851   1.512  0.8469 -0.4709  2.2771
  120MOL   H15021808   2.794   6.728   1.413  1.6130 -0.1343 -0.2667
  120MOL   H15121809   2.973   6.905   1.575  1.0267 -0.1178 -0.7660
  120MOL   H15221810   2.821   6.658   1.646  2.0075 -1.9747 -1.2833
  120MOL   H15321811   2.982   6.672   1.708  1.8004  0.7269 -2.4159
  120MOL   H15421812   2.861   6.793   1.748  0.0663 -2.6434  2.3452
  120MOL   C15521813   3.060   6.747   1.462  0.7143 -0.3534 -0.2181
  120MOL   C15621814   3.197   6.806   1.498 -0.3149 -0.5360 -0.8881
  120MOL   C15721815   3.234   6.763   1.646  0.4736 -0.1147  0.5719
  120MOL   H15821816   3.065   6.638   1.453  1.5719 -0.2650 -0.9404
  120MOL   H15921817   3.032   6.767   1.358  0.7014  0.0837 -0.1284
  120MOL   H16021818   3.186   6.914   1.496 -0.3308 -0.4687  1.9185
  120MOL   H16121819   3.155   6.810   1.703 -0.0142  1.3249 -1.2555
  120MOL   H16221820   3.239   6.655   1.664  3.2608 -0.3756 -1.3716
  120MOL   H16321821   3.334   6.788   1.681  0.4866 -1.2009  1.3437
  120MOL   C16421822   3.303   6.761   1.399  0.7200 -0.3001  0.5115
  120MOL   C16521823   3.290   6.834   1.259 -0.3770  0.1862  0.0490
  120MOL   C16621824   3.338   6.983   1.268  0.3088  0.0596  0.0023
  120MOL   H16721825   3.396   6.794   1.444  0.4611  0.2491  0.6486
  120MOL   H16821826   3.297   6.652   1.400 -1.9630 -0.2457 -1.6397
  120MOL   H16921827   3.181   6.836   1.245 -0.4640 -0.5506  0.5803
  120MOL   H17021828   3.331   7.053   1.184  0.6094 -0.5645 -0.5420
  120MOL   H17121829   3.281   7.033   1.346  0.8523  0.8407 -0.0976
  120MOL   H17221830   3.442   6.978   1.300 -0.7249  0.3050  3.5883
  120MOL   C17321831   3.361   6.768   1.144 -0.8475  1.3823 -0.2407
  120MOL   C17421832   3.286   6.646   1.088  0.2850 -0.4416  0.1283
  120MOL   C17521833   3.360   6.592   0.962 -0.4883  0.7111  0.0971
  120MOL   H17621834   3.369   6.841   1.063  0.1728  0.2146 -1.2085
  120MOL   H17721835   3.465   6.737   1.157 -1.1477  0.0059 -1.0764
  120MOL   H17821836   3.187   6.668   1.048  0.6094 -1.0291 -1.0360
  120MOL   H17921837   3.306   6.510   0.913 -1.4247  0.9258  0.7491
  120MOL   H18021838   3.363   6.672   0.888 -0.1698  0.7123  0.1104
  120MOL   H18121839   3.462   6.572   0.994  0.0129 -0.3531 -2.0679
  120MOL   H18221840   3.283   6.567   1.162 -0.5420 -1.9566 -1.4871
  121MOL     C121841   5.492   2.961   4.491  0.4138  0.0696  0.0438
  121MOL     C221842   5.437   2.984   4.641 -0.8427  0.2117  0.5160
  121MOL     C321843   5.344   2.871   4.697  0.2297 -0.5289 -0.2971
  121MOL     H421844   5.413   2.940   4.418  0.2376  1.9256 -0.3147
  121MOL     H521845   5.537   2.864   4.470 -0.0880 -0.2534  0.4495
  121MOL     H621846   5.377   3.075   4.639  1.3720  1.6743 -0.5227
  121MOL     H721847   5.394   2.775   4.706 -1.9716 -1.7616 -0.9160
  121MOL     H821848   5.301   2.891   4.795  0.0096  0.1396 -0.5267
  121MOL     H921849   5.256   2.846   4.637 -0.8815 -1.1288  1.5425
  121MOL    H1021850   5.545   3.039   4.437  0.7532  0.8496  1.4874
  121MOL    C1121851   5.564   3.000   4.729  0.4322  0.1426 -0.2869
  121MOL    C1221852   5.663   3.106   4.689 -0.2080 -0.1018 -0.6993
  121MOL    C1321853   5.595   3.249   4.682 -0.3235  0.0300 -0.8362
  121MOL    H1421854   5.525   3.017   4.830 -3.5424  2.0962 -2.0580
  121MOL    H1521855   5.608   2.900   4.737  0.0923  0.0078 -0.0839
  121MOL    H1621856   5.701   3.092   4.588  0.1780  2.1666 -0.9014
  121MOL    H1721857   5.557   3.288   4.776  0.7229 -1.0331  0.0402
  121MOL    H1821858   5.665   3.327   4.649  1.3747 -2.2307 -2.7432
  121MOL    H1921859   5.520   3.252   4.604  0.5863 -1.5681 -1.7995
  121MOL    C2021860   5.779   3.108   4.784 -0.1584 -0.0542  0.1280
  121MOL    C2121861   5.883   2.990   4.776 -0.3780  0.4974 -0.0530
  121MOL    C2221862   5.974   2.998   4.641 -0.2757  0.2565 -0.3564
  121MOL    H2321863   5.844   3.193   4.766  0.0133 -0.0620  0.6965
  121MOL    H2421864   5.746   3.126   4.887 -0.9356 -1.4548  0.1385
  121MOL    H2521865   5.824   2.900   4.760  0.0237  0.4914 -1.6151
  121MOL    H2621866   5.907   2.988   4.555 -0.1260 -0.3443 -0.4072
  121MOL    H2721867   6.025   3.094   4.633  0.4897  0.0100  1.3583
  121MOL    H2821868   6.058   2.928   4.641 -2.0494 -1.9262 -1.4994
  121MOL    C2921869   5.977   2.973   4.897 -0.7434  0.1600  0.0370
  121MOL    C3021870   5.928   2.877   5.009  0.9218  0.0358 -1.0770
  121MOL    C3121871   5.946   2.727   4.963  0.5983 -0.6467 -0.0453
  121MOL    H3221872   6.066   2.928   4.852 -0.7042 -0.4149  0.6918
  121MOL    H3321873   6.008   3.068   4.941  0.9276 -1.3200  2.1419
  121MOL    H3421874   5.822   2.887   5.029  1.1475 -2.7712  1.9474
  121MOL    H3521875   5.907   2.661   5.041  0.1217 -0.2372  0.0644
  121MOL    H3621876   5.892   2.711   4.869 -0.8401  0.3371  0.5968
  121MOL    H3721877   6.053   2.708   4.952  0.9994  1.9805 -0.8318
  121MOL    C3821878   6.012   2.897   5.140 -0.2242  0.3949  0.2519
  121MOL    C3921879   5.983   3.019   5.229  0.8037 -0.2691  0.3495
  121MOL    C4021880   5.843   2.984   5.294  0.4534 -0.5921 -0.1648
  121MOL    H4121881   6.008   2.806   5.199  0.5531 -1.6238 -2.7125
  121MOL    H4221882   6.117   2.893   5.110  0.7582 -0.9828  3.5593
  121MOL    H4321883   5.961   3.106   5.167 -1.1025 -0.9572  0.0251
  121MOL    H4421884   5.858   2.907   5.370 -0.8053 -0.6460  0.0427
  121MOL    H4521885   5.800   3.070   5.345  2.0208 -0.5223  1.0834
  121MOL    H4621886   5.766   2.931   5.239  0.2353 -1.8702  1.3225
  121MOL    C4721887   6.105   3.059   5.328  0.5471 -0.6763 -0.0884
  121MOL    C4821888   6.104   3.208   5.367  0.2077 -0.2071 -0.6727
  121MOL    C4921889   5.988   3.239   5.463  0.2488 -0.1466 -0.0565
  121MOL    H5021890   6.110   2.992   5.414 -0.5871  0.1334  0.6306
  121MOL    H5121891   6.190   3.046   5.262  0.0604 -0.9203 -0.6615
  121MOL    H5221892   6.097   3.268   5.276  0.5250  0.8299 -0.0336
  121MOL    H5321893   6.000   3.164   5.541  2.8799  0.1943 -0.0785
  121MOL    H5421894   5.999   3.343   5.494 -0.1587 -0.0205 -0.3248
  121MOL    H5521895   5.889   3.232   5.417  0.4141  1.7695 -0.7355
  121MOL    C5621896   6.238   3.250   5.435 -0.4453  0.7537 -0.3865
  121MOL    C5721897   6.364   3.276   5.347  0.3915 -0.7685  0.3975
  121MOL    C5821898   6.336   3.396   5.265 -0.2857  0.5843 -0.1867
  121MOL    H5921899   6.241   3.332   5.507 -2.4317 -0.4097  1.0730
  121MOL    H6021900   6.271   3.166   5.497 -1.3396 -0.2401 -1.2361
  121MOL    H6121901   6.377   3.190   5.281  2.0085  0.5517 -1.0401
  121MOL    H6221902   6.261   3.371   5.190  1.3348  0.0100 -1.6640
  121MOL    H6321903   6.277   3.468   5.320  1.2740  1.9939 -0.3285
  121MOL    H6421904   6.421   3.444   5.216  0.2452 -1.9639 -1.9056
  121MOL    C6521905   6.495   3.297   5.427  0.6279  0.1153  0.0598
  121MOL    C6621906   6.546   3.179   5.513  0.3986  0.7809  0.8413
  121MOL    C6721907   6.580   3.069   5.407  0.1841  0.1005  0.0867
  121MOL    H6821908   6.569   3.330   5.354  1.4335 -1.3553  0.2109
  121MOL    H6921909   6.473   3.386   5.486  1.4588  1.8876 -2.2397
  121MOL    H7021910   6.469   3.120   5.563  2.1875 -1.3793  1.0987
  121MOL    H7121911   6.642   3.102   5.323  2.1812  0.9181  1.8280
  121MOL    H7221912   6.633   2.981   5.444  1.2231  0.7522  0.1627
  121MOL    H7321913   6.490   3.024   5.364  1.1614 -0.9628 -0.8980
  121MOL    C7421914   6.659   3.202   5.608 -0.0180  0.4336  0.2667
  121MOL    C7521915   6.649   3.317   5.708  0.0823  0.3799  0.4348
  121MOL    C7621916   6.530   3.289   5.801  0.0330  0.3815 -0.9333
  121MOL    H7721917   6.679   3.115   5.670 -3.2804  0.1661  1.0426
  121MOL    H7821918   6.746   3.201   5.543  0.7856  2.1815  1.2660
  121MOL    H7921919   6.625   3.409   5.656  1.5216  1.3456  1.4328
  121MOL    H8021920   6.529   3.367   5.877  3.3789 -0.1158 -0.2917
  121MOL    H8121921   6.438   3.292   5.743  0.9215 -0.4989 -2.4042
  121MOL    H8221922   6.539   3.189   5.845  1.0753  0.4402 -1.0018
  121MOL    C8321923   6.773   3.346   5.791  0.2781 -0.6749  0.0559
  121MOL    C8421924   6.824   3.491   5.810  0.0233 -0.6788 -0.0108
  121MOL    C8521925   6.729   3.586   5.885  0.7129  0.4571  0.0313
  121MOL    H8621926   6.751   3.304   5.890  0.8167  0.2326  0.5675
  121MOL    H8721927   6.853   3.295   5.738  1.9550  0.9550  0.9498
  121MOL    H8821928   6.836   3.537   5.712 -1.6709 -0.9351 -0.3600
  121MOL    H8921929   6.762   3.690   5.882  0.1448  0.6643  0.7733
  121MOL    H9021930   6.625   3.562   5.860  0.6146 -0.4644  1.2653
  121MOL    H9121931   6.715   3.550   5.987  2.9640 -1.1593 -0.2142
  121MOL    C9221932   6.968   3.493   5.866  0.2532  0.3264 -0.0306
  121MOL    C9321933   7.025   3.626   5.912 -0.3153  0.8117 -0.3770
  121MOL    C9421934   7.014   3.652   6.062 -0.3430  0.0155 -0.0663
  121MOL    H9521935   6.977   3.419   5.946  0.6797  1.2653  0.8023
  121MOL    H9621936   7.028   3.455   5.784  2.7536  1.9344  1.0207
  121MOL    H9721937   6.985   3.714   5.862  0.7819  1.5146 -0.0367
  121MOL    H9821938   6.915   3.651   6.108  0.3239  1.9125  1.4889
  121MOL    H9921939   7.076   3.580   6.114 -2.4057 -0.4272  1.8842
  121MOL   H10021940   7.053   3.748   6.096 -1.4577  0.0626  1.1093
  121MOL   C10121941   7.179   3.623   5.882 -0.4219  0.5399 -0.4534
  121MOL   C10221942   7.213   3.642   5.742 -0.2110  1.0862 -0.0631
  121MOL   C10321943   7.213   3.787   5.684 -0.3914 -0.5122 -0.4537
  121MOL   H10421944   7.231   3.704   5.933  0.8160 -0.3586 -0.2768
  121MOL   H10521945   7.233   3.537   5.920  0.1135  0.6246 -1.0027
  121MOL   H10621946   7.147   3.594   5.670 -1.0644  0.4472  1.1412
  121MOL   H10721947   7.116   3.837   5.687 -1.5408 -2.7408  1.8491
  121MOL   H10821948   7.273   3.857   5.742 -1.4999  0.2044 -0.1454
  121MOL   H10921949   7.246   3.791   5.580 -0.5381  1.8113 -0.4413
  121MOL   C11021950   7.356   3.572   5.713  0.0346  0.5091  0.0698
  121MOL   C11121951   7.352   3.418   5.710 -0.4094  0.0414  0.7155
  121MOL   C11221952   7.305   3.373   5.570 -0.2432  0.1505  0.4172
  121MOL   H11321953   7.395   3.615   5.621 -1.9090  2.9379  0.3421
  121MOL   H11421954   7.415   3.616   5.793 -1.6316  2.2786  0.3830
  121MOL   H11521955   7.288   3.378   5.789 -1.3306 -1.5456 -0.7920
  121MOL   H11621956   7.365   3.429   5.497  3.3783 -0.7845  2.5374
  121MOL   H11721957   7.316   3.265   5.560 -0.4057  0.3389 -2.1223
  121MOL   H11821958   7.200   3.398   5.563  0.0923  1.5132  0.1185
  121MOL   C11921959   7.496   3.362   5.731 -0.6233 -0.0326 -0.5043
  121MOL   C12021960   7.539   3.368   5.879  0.5345  0.4830  0.2971
  121MOL   C12121961   7.489   3.257   5.961 -0.2249  0.1123  0.0167
  121MOL   H12221962   7.502   3.257   5.702  0.1521  0.5402 -2.5206
  121MOL   H12321963   7.572   3.406   5.666 -1.1551  0.9518 -0.4626
  121MOL   H12421964   7.493   3.460   5.915 -1.5999 -1.0177  1.5080
  121MOL   H12521965   7.534   3.163   5.929 -1.5924 -0.6731  0.3436
  121MOL   H12621966   7.516   3.265   6.066  1.0642 -1.3694 -0.1787
  121MOL   H12721967   7.380   3.247   5.954 -0.2830  1.3876 -1.1704
  121MOL   C12821968   7.694   3.378   5.898 -0.2927  1.0704  0.4020
  121MOL   C12921969   0.066   3.515   5.862  0.0014  0.4161 -0.0904
  121MOL   C13021970   0.004   3.632   5.934  0.1129  0.2450 -0.3615
  121MOL   H13121971   0.026   3.344   5.998  3.2016 -1.8813 -1.5137
  121MOL   H13221972   0.041   3.302   5.834  2.5033  2.1770  0.9534
  121MOL   H13321973   0.060   3.533   5.755  3.1211  1.8814 -0.0680
  121MOL   H13421974   0.067   3.710   5.977  2.1064 -0.2137 -2.3445
  121MOL   H13521975   7.628   3.670   5.862 -0.2708  0.9059  0.3666
  121MOL   H13621976   7.644   3.595   6.019 -0.0274  1.3942  0.0641
  121MOL   C13721977   0.222   3.507   5.892  0.4378 -0.8797  0.6910
  121MOL   C13821978   0.315   3.445   5.786 -0.4687 -0.1252 -0.1391
  121MOL   C13921979   0.317   3.290   5.781 -0.5512 -0.5215 -0.2337
  121MOL   H14021980   0.257   3.609   5.909  0.5639 -0.6984 -0.6077
  121MOL   H14121981   0.233   3.453   5.986  0.0888 -1.3871  0.4489
  121MOL   H14221982   0.417   3.465   5.821 -0.3425  0.6821 -0.9607
  121MOL   H14321983   0.409   3.264   5.728 -0.1178  0.6040 -0.0691
  121MOL   H14421984   0.299   3.253   5.882 -0.7498 -0.8540 -0.3928
  121MOL   H14521985   0.233   3.259   5.719  0.9890 -0.7838 -2.2306
  121MOL   C14621986   0.308   3.504   5.641 -0.4251  0.1823  0.3055
  121MOL   C14721987   0.357   3.648   5.626  0.3676 -0.1268  0.0820
  121MOL   C14821988   0.509   3.672   5.651  0.3169 -0.3468  0.1572
  121MOL   H14921989   0.373   3.447   5.574  0.4596 -1.1428  2.2208
  121MOL   H15021990   0.205   3.485   5.611  0.5066 -2.6218 -1.3820
  121MOL   H15121991   0.305   3.719   5.690  1.7821  1.8795 -0.9553
  121MOL   H15221992   0.567   3.615   5.578 -2.4982  0.0254 -2.4962
  121MOL   H15321993   0.538   3.777   5.654 -0.4563 -0.1337  0.3856
  121MOL   H15421994   0.541   3.633   5.747  1.0259  1.2494  0.5742
  121MOL   C15521995   0.320   3.697   5.482  0.3870  0.3042 -0.2813
  121MOL   C15621996   0.163   3.727   5.475  0.1546 -0.1977  0.0620
  121MOL   C15721997   0.140   3.874   5.502  0.2855 -0.0695  0.1235
  121MOL   H15821998   0.382   3.778   5.447  2.2809 -1.3343 -0.7866
  121MOL   H15921999   0.359   3.620   5.416  2.2052  1.1526 -0.2042
  121MOL   H16022000   0.106   3.678   5.553 -1.8406  0.6455 -0.8191
  121MOL   H16122001   0.032   3.887   5.488  0.2617  0.7632  1.0620
  121MOL   H16222002   0.147   3.895   5.609 -0.6786 -0.7964  0.3445
  121MOL   H16322003   0.193   3.938   5.432  0.5940 -0.4287  0.0317
  121MOL   C16422004   0.108   3.676   5.339  0.2541 -0.1447 -0.1535
  121MOL   C16522005   0.106   3.520   5.319  0.1561  0.0951 -0.7484
  121MOL   C16622006   7.686   3.444   5.393 -0.6580  0.4206 -0.0138
  121MOL   H16722007   0.014   3.727   5.318 -0.2454 -1.1036 -0.3066
  121MOL   H16822008   0.164   3.713   5.253 -2.0255 -1.0724 -2.0955
  121MOL   H16922009   0.188   3.467   5.367 -0.7482 -0.8407 -0.2056
  121MOL   H17022010   0.009   3.353   5.451 -0.6628  0.0396 -0.6085
  121MOL   H17122011   7.647   3.508   5.473 -0.7220 -0.2075  0.4656
  121MOL   H17222012   7.603   3.421   5.326 -0.0338 -1.8598 -0.0393
  121MOL   C17322013   0.119   3.482   5.173  0.6127 -0.3609 -0.6648
  121MOL   C17422014   0.146   3.336   5.148  0.0538  0.2307  0.5377
  121MOL   C17522015   0.222   3.310   5.016  0.0570  0.2808  0.5691
  121MOL   H17622016   0.032   3.512   5.115  0.8037  2.0825  0.2643
  121MOL   H17722017   0.206   3.539   5.138  2.8067 -1.1861  3.1482
  121MOL   H17822018   0.055   3.276   5.154 -1.4776  2.6216  2.2007
  121MOL   H17922019   0.330   3.314   5.033  0.2712  0.3058 -0.7484
  121MOL   H18022020   0.205   3.208   4.981  3.0005  0.0918 -0.4812
  121MOL   H18122021   0.187   3.381   4.942  0.8007 -1.8796 -1.9293
  121MOL   H18222022   0.208   3.309   5.233  1.1271  1.1433  0.0511
  122MOL     C122023   0.175   6.586   0.816  0.2855 -0.2025  0.7320
  122MOL     C222024   0.249   6.722   0.818  0.4190  0.3899 -0.3694
  122MOL     C322025   0.405   6.698   0.809  0.7004 -0.9748  0.7358
  122MOL     H422026   0.070   6.603   0.840  0.1288 -0.8226  0.4937
  122MOL     H522027   0.225   6.523   0.889  1.3631  0.1506  0.3188
  122MOL     H622028   0.227   6.753   0.920 -2.7780  0.5053 -1.0494
  122MOL     H722029   0.430   6.632   0.725  0.2951  1.2437 -1.1931
  122MOL     H822030   0.452   6.795   0.797  0.8942 -1.2970 -1.5134
  122MOL     H922031   0.442   6.647   0.897  1.4142  0.3889  1.2385
  122MOL    H1022032   0.184   6.535   0.720  0.0966 -2.0865  1.6895
  122MOL    C1122033   0.203   6.817   0.708 -0.3970 -0.0843 -0.1103
  122MOL    C1222034   0.065   6.873   0.722  0.4860  0.0566 -0.3857
  122MOL    C1322035   0.068   6.987   0.825 -0.0138  0.9034 -0.6373
  122MOL    H1422036   0.279   6.896   0.708 -3.1394  2.6527  0.3936
  122MOL    H1522037   0.228   6.783   0.607  0.2040  2.3119 -0.8189
  122MOL    H1622038   0.003   6.787   0.746 -0.7748  1.0497 -0.0115
  122MOL    H1722039   7.664   7.028   0.834 -0.4237  0.1083 -1.5079
  122MOL    H1822040   0.088   6.953   0.926 -1.7911 -1.5563 -1.0640
  122MOL    H1922041   0.127   7.074   0.796  0.6496  1.2726  1.7336
  122MOL    C2022042   0.007   6.921   0.589  0.4223  0.6850 -0.2664
  122MOL    C2122043   7.547   6.926   0.590 -0.6263 -0.2799 -0.1862
  122MOL    C2222044   7.497   7.003   0.470  0.0566  0.3992  0.3798
  122MOL    H2322045   0.039   7.022   0.562  0.8536  0.3016 -1.2202
  122MOL    H2422046   0.029   6.858   0.503 -1.4150 -1.2953  0.6512
  122MOL    H2522047   7.527   6.992   0.674 -1.7731  0.0876 -0.7312
  122MOL    H2622048   7.500   6.934   0.386 -0.6035 -0.3801  0.9904
  122MOL    H2722049   7.397   7.045   0.479 -0.2154 -0.4007  1.1269
  122MOL    H2822050   7.562   7.084   0.438  0.4941 -0.3283 -0.5764
  122MOL    C2922051   7.484   6.785   0.596  0.2879 -0.0740  0.3269
  122MOL    C3022052   7.330   6.783   0.632  0.6728 -0.7912  0.1062
  122MOL    C3122053   7.264   6.673   0.554  0.4762 -0.1791  0.2265
  122MOL    H3222054   7.507   6.744   0.498  1.3485 -0.0012  0.5430
  122MOL    H3322055   7.533   6.717   0.667 -2.4465 -1.5058  0.9538
  122MOL    H3422056   7.288   6.873   0.585  0.0967 -1.2888 -0.3401
  122MOL    H3522057   7.298   6.686   0.451 -0.4663 -2.5393 -0.4284
  122MOL    H3622058   7.301   6.573   0.579  1.9824  0.0698 -0.9563
  122MOL    H3722059   7.155   6.678   0.562  0.3629 -0.6960 -0.9357
  122MOL    C3822060   7.303   6.767   0.788  0.3506 -0.0337 -0.1156
  122MOL    C3922061   7.363   6.875   0.879  0.0254  0.6732  0.4250
  122MOL    C4022062   7.306   7.016   0.838  0.0446 -0.6137  0.0126
  122MOL    H4122063   7.200   6.742   0.811 -0.3493 -1.2768 -4.2549
  122MOL    H4222064   7.345   6.669   0.812 -3.9982 -2.0181 -0.2237
  122MOL    H4322065   7.471   6.879   0.868 -0.1128 -0.0542 -1.3254
  122MOL    H4422066   7.310   7.051   0.735  1.0452 -0.2900  0.1599
  122MOL    H4522067   7.199   7.006   0.858 -0.0893 -1.7107 -1.2226
  122MOL    H4622068   7.345   7.092   0.906 -0.8051 -0.6115  0.5106
  122MOL    C4722069   7.331   6.851   1.030 -0.8911  0.1605 -0.1482
  122MOL    C4822070   7.393   6.726   1.096  0.7440 -0.0882 -0.4605
  122MOL    C4922071   7.543   6.756   1.117 -0.7089  0.4000 -0.3234
  122MOL    H5022072   7.358   6.936   1.093 -1.9886  0.6788 -0.3648
  122MOL    H5122073   7.222   6.855   1.028 -0.8720  0.5799 -0.4461
  122MOL    H5222074   7.382   6.637   1.034  1.5528 -1.4655  1.3312
  122MOL    H5322075   7.576   6.668   1.173 -0.4987  0.1994 -0.7583
  122MOL    H5422076   7.592   6.761   1.020 -0.0981  1.4711  0.0420
  122MOL    H5522077   7.562   6.845   1.176 -1.3323  0.5171 -0.2964
  122MOL    C5622078   7.327   6.679   1.228  0.1507 -0.2643 -0.4538
  122MOL    C5722079   7.176   6.653   1.235 -0.0390 -0.2047 -0.4183
  122MOL    C5822080   7.123   6.546   1.132  0.7129  0.8027 -0.1175
  122MOL    H5922081   7.373   6.583   1.251  1.8902  0.1268 -2.1207
  122MOL    H6022082   7.357   6.759   1.296 -0.1126  1.9440 -2.8557
  122MOL    H6122083   7.113   6.741   1.220  0.5335  0.4802  1.0574
  122MOL    H6222084   7.149   6.564   1.027 -0.7522 -1.1716 -0.8544
  122MOL    H6322085   7.177   6.456   1.160  0.0939  0.2931 -0.5525
  122MOL    H6422086   7.016   6.526   1.135  0.6656  1.1052  0.1972
  122MOL    C6522087   7.141   6.604   1.372 -0.0245  0.1516 -0.9196
  122MOL    C6622088   6.997   6.632   1.417  0.0286 -0.0228 -0.5627
  122MOL    C6722089   6.963   6.544   1.535  0.2152 -0.4104 -0.8043
  122MOL    H6822090   7.165   6.498   1.381 -1.1249  0.1192  2.0850
  122MOL    H6922091   7.197   6.661   1.447 -2.9163 -0.2937  1.7071
  122MOL    H7022092   6.938   6.594   1.333 -1.3617  2.2542 -0.6622
  122MOL    H7122093   6.973   6.436   1.525  1.4682 -0.3538 -0.3582
  122MOL    H7222094   7.032   6.584   1.610 -0.7933 -0.2637  0.0725
  122MOL    H7322095   6.861   6.559   1.570  0.5059 -0.0495 -0.0841
  122MOL    C7422096   6.960   6.779   1.451  0.5617  0.4054  0.2399
  122MOL    C7522097   6.812   6.828   1.446 -0.3280  0.0429  0.0990
  122MOL    C7622098   6.808   6.979   1.455  0.6538  0.4455  0.1283
  122MOL    H7722099   7.009   6.803   1.545 -0.8912 -0.2248  1.1842
  122MOL    H7822100   7.006   6.844   1.377  2.1894 -0.1902  0.7125
  122MOL    H7922101   6.760   6.800   1.537 -1.3699  1.1708 -0.1423
  122MOL    H8022102   6.842   7.037   1.368 -0.8607  0.5369 -0.4119
  122MOL    H8122103   6.703   7.009   1.454  1.0280  1.8696  1.3939
  122MOL    H8222104   6.855   7.027   1.541  0.2860  1.2299 -0.1026
  122MOL    C8322105   6.725   6.779   1.324  0.0387  0.0603  0.3822
  122MOL    C8422106   6.574   6.795   1.333  0.2803  0.3999  0.3738
  122MOL    C8522107   6.523   6.720   1.206 -0.4193  0.2943  0.5112
  122MOL    H8622108   6.766   6.829   1.237 -0.1051  1.0910  0.8962
  122MOL    H8722109   6.759   6.677   1.304  1.3711  0.9404 -2.0328
  122MOL    H8822110   6.542   6.898   1.321 -2.9667 -0.5275  0.4772
  122MOL    H8922111   6.416   6.729   1.186 -0.0190  1.5328 -1.2259
  122MOL    H9022112   6.569   6.768   1.119 -2.6771 -0.1641 -0.9889
  122MOL    H9122113   6.569   6.621   1.197  0.3024  0.8098 -1.9477
  122MOL    C9222114   6.500   6.743   1.453 -0.5125  0.2786 -0.6462
  122MOL    C9322115   6.488   6.827   1.592 -0.5971 -1.1442 -0.6241
  122MOL    C9422116   6.415   6.968   1.576 -0.6019  0.2899 -0.0784
  122MOL    H9522117   6.404   6.716   1.408 -2.1540 -0.0420  2.8414
  122MOL    H9622118   6.538   6.644   1.475  0.2865  0.7757  0.2657
  122MOL    H9722119   6.586   6.862   1.626 -1.9820  1.2694  0.9998
  122MOL    H9822120   6.371   7.005   1.669 -1.3407 -1.0098  0.1170
  122MOL    H9922121   6.485   7.039   1.534 -2.1253  2.6193  1.1980
  122MOL   H10022122   6.332   6.957   1.506 -1.3994 -0.8355  1.0097
  122MOL   C10122123   6.432   6.745   1.710 -0.0238  0.7226  0.2419
  122MOL   C10222124   6.499   6.615   1.751  0.4125 -0.5539 -0.6873
  122MOL   C10322125   6.649   6.611   1.785 -0.1500  0.1181  0.3476
  122MOL   H10422126   6.418   6.797   1.805  1.2649  0.5030  0.5660
  122MOL   H10522127   6.330   6.721   1.680  0.6137  0.8848 -2.1439
  122MOL   H10622128   6.492   6.557   1.659  1.1251 -1.4254 -0.2058
  122MOL   H10722129   6.704   6.668   1.710  1.7404 -1.6767  0.3040
  122MOL   H10822130   6.651   6.664   1.879  0.5371 -1.2404  1.1216
  122MOL   H10922131   6.693   6.512   1.803 -0.3169 -0.2932 -1.4007
  122MOL   C11022132   6.410   6.539   1.854 -0.5862 -0.6951  0.0515
  122MOL   C11122133   6.273   6.492   1.796  0.3413  0.4325 -0.2280
  122MOL   C11222134   6.290   6.386   1.684  0.3103 -0.3376  0.0017
  122MOL   H11322135   6.478   6.457   1.877 -0.0456 -0.8217 -1.8745
  122MOL   H11422136   6.395   6.602   1.942  0.3777 -1.9030  1.1028
  122MOL   H11522137   6.209   6.575   1.766  0.0717  0.5127  0.5826
  122MOL   H11622138   6.325   6.285   1.707 -1.9336 -1.1664 -0.0894
  122MOL   H11722139   6.192   6.364   1.642  0.6216  1.3337 -1.6495
  122MOL   H11822140   6.354   6.414   1.601  0.3772  0.5283  0.3366
  122MOL   C11922141   6.196   6.413   1.911 -0.0421 -0.7960  0.3875
  122MOL   C12022142   6.036   6.405   1.893 -0.0512 -0.5830  0.3321
  122MOL   C12122143   5.980   6.277   1.969  0.2184 -0.0257  0.4898
  122MOL   H12222144   6.253   6.326   1.940 -0.7780 -2.0296 -1.7333
  122MOL   H12322145   6.210   6.465   2.005 -2.8605 -0.0344  0.4323
  122MOL   H12422146   6.011   6.378   1.790 -0.8604 -0.2855  0.4451
  122MOL   H12522147   6.048   6.242   2.047 -0.1751  1.6050  1.5963
  122MOL   H12622148   5.878   6.297   2.002 -0.6041 -0.6890 -1.5805
  122MOL   H12722149   5.974   6.195   1.898  0.2241  1.8919 -1.7941
  122MOL   C12822150   5.955   6.535   1.944  0.0115 -0.5557  0.3943
  122MOL   C12922151   5.807   6.549   1.914 -0.9210 -0.1680  0.6136
  122MOL   C13022152   5.748   6.658   2.009  0.1661  0.3455  0.0408
  122MOL   H13122153   5.966   6.545   2.052  0.1514 -0.0846  0.3378
  122MOL   H13222154   6.000   6.625   1.902  0.2704 -0.5842  0.6100
  122MOL   H13322155   5.758   6.453   1.931  1.1652 -1.4295 -0.3303
  122MOL   H13422156   5.640   6.663   1.995  0.2306  1.0340 -0.2709
  122MOL   H13522157   5.772   6.640   2.114 -2.5014 -1.3899  0.3931
  122MOL   H13622158   5.792   6.753   1.976  0.3514  0.1544 -0.2617
  122MOL   C13722159   5.781   6.564   1.759  0.1526 -0.0174  0.7401
  122MOL   C13822160   5.633   6.559   1.722  0.5756  0.3278  0.7339
  122MOL   C13922161   5.604   6.614   1.581 -0.5516  0.0284 -0.2272
  122MOL   H14022162   5.826   6.656   1.723  1.8723 -0.4072  1.8715
  122MOL   H14122163   5.830   6.483   1.705 -0.9724  1.3445 -2.4233
  122MOL   H14222164   5.582   6.621   1.795 -0.1782  0.0909  0.4124
  122MOL   H14322165   5.651   6.711   1.570  3.1034 -1.6984 -0.6063
  122MOL   H14422166   5.657   6.544   1.516 -0.9450  0.0875 -0.6096
  122MOL   H14522167   5.497   6.611   1.561 -0.4505  1.4708 -0.9925
  122MOL   C14622168   5.584   6.415   1.726 -1.0898 -0.4524 -0.3441
  122MOL   C14722169   5.440   6.406   1.792 -0.2406 -0.6175  0.1629
  122MOL   C14822170   5.359   6.285   1.743  0.7649  0.2579 -0.1747
  122MOL   H14922171   5.598   6.358   1.634  1.2570 -2.6400  1.3145
  122MOL   H15022172   5.645   6.354   1.793 -0.8306  0.4741  0.2763
  122MOL   H15122173   5.389   6.493   1.751 -0.8668 -0.9403  0.2578
  122MOL   H15222174   5.363   6.266   1.636 -1.3789  1.0611 -0.4357
  122MOL   H15322175   5.391   6.189   1.783 -1.4098 -0.7359 -0.7063
  122MOL   H15422176   5.256   6.294   1.778 -0.0339  0.7654 -2.5578
  122MOL   C15522177   5.441   6.414   1.940  0.4467  0.1991 -0.8026
  122MOL   C15622178   5.320   6.486   2.003  0.6417 -0.2606 -0.4706
  122MOL   C15722179   5.297   6.453   2.154  0.0712  0.5483  0.3719
  122MOL   H15822180   5.454   6.314   1.982 -0.5033  0.2340 -0.4090
  122MOL   H15922181   5.535   6.452   1.981  0.3085 -4.3554  4.3288
  122MOL   H16022182   5.232   6.446   1.953  0.5924  1.7006 -2.0191
  122MOL   H16122183   5.191   6.469   2.173 -0.1660 -0.7119  0.1657
  122MOL   H16222184   5.322   6.349   2.173  1.0917  0.5031 -1.1508
  122MOL   H16322185   5.357   6.513   2.224  2.7960 -0.1944 -1.2396
  122MOL   C16422186   5.315   6.639   1.967  0.2036 -1.0748  0.4184
  122MOL   C16522187   5.232   6.747   2.043  0.0273  0.6458 -0.0503
  122MOL   C16622188   5.250   6.884   1.973 -0.6083  0.0189 -0.4721
  122MOL   H16722189   5.416   6.666   1.940  1.0220 -1.9256  2.4799
  122MOL   H16822190   5.267   6.631   1.870 -0.6522 -0.7376  0.8080
  122MOL   H16922191   5.269   6.752   2.145 -0.3196  1.0794  0.0564
  122MOL   H17022192   5.197   6.967   2.020 -1.4617 -1.3171  0.9748
  122MOL   H17122193   5.356   6.907   1.962 -0.3005 -0.8262  0.6533
  122MOL   H17222194   5.226   6.872   1.867  0.2998  0.7634 -0.7733
  122MOL   C17322195   5.080   6.718   2.071 -0.0766  0.4595  0.9080
  122MOL   C17422196   4.999   6.684   1.946  0.1160 -0.3109  0.0057
  122MOL   C17522197   4.855   6.744   1.945  0.4807  0.7492 -0.3167
  122MOL   H17622198   5.067   6.624   2.127 -0.7214 -0.7918 -1.2884
  122MOL   H17722199   5.044   6.805   2.125 -0.8034 -0.2510  1.5939
  122MOL   H17822200   4.973   6.578   1.944 -4.5037  0.7127 -0.5283
  122MOL   H17922201   4.815   6.727   2.045  1.7043  1.6260  0.3381
  122MOL   H18022202   4.869   6.851   1.928  3.0332  0.5304  0.1491
  122MOL   H18122203   4.801   6.693   1.865 -1.9111  0.7333  1.2621
  122MOL   H18222204   5.060   6.704   1.858 -1.2004  0.8768 -0.6646
  123MOL     C122205   0.459   4.710   6.624 -0.5779 -0.5306  0.1823
  123MOL     C222206   0.502   4.721   6.771  1.2220 -0.2361 -0.1945
  123MOL     C322207   0.403   4.816   6.842 -0.1383  0.9292  0.3050
  123MOL     H422208   0.543   4.657   6.579  1.1168  2.4866 -0.2803
  123MOL     H522209   0.458   4.801   6.564  3.8002 -1.4792 -1.4974
  123MOL     H622210   0.598   4.770   6.787  0.6170  1.0740 -0.5010
  123MOL     H722211   0.300   4.779   6.841 -0.6447  2.2479  1.8415
  123MOL     H822212   0.443   4.824   6.943  1.5847  2.3272 -0.4655
  123MOL     H922213   0.403   4.913   6.793 -1.3808  1.0593  0.5344
  123MOL    H1022214   0.375   4.643   6.604  1.2463 -2.5737 -0.8391
  123MOL    C1122215   0.505   4.582   6.846 -0.5593 -0.3953 -0.6665
  123MOL    C1222216   0.598   4.475   6.781  0.3714  0.6072  0.5171
  123MOL    C1322217   0.739   4.532   6.773 -0.1430  0.2191  0.0266
  123MOL    H1422218   0.546   4.599   6.945 -1.3703  1.7971 -0.6691
  123MOL    H1522219   0.407   4.539   6.867 -0.3713 -1.2328 -1.4679
  123MOL    H1622220   0.560   4.447   6.682 -1.6020 -0.2261  1.4678
  123MOL    H1722221   0.814   4.461   6.738 -0.2771  0.4014 -0.6348
  123MOL    H1822222   0.745   4.608   6.696  0.6919 -0.4817 -0.6152
  123MOL    H1922223   0.792   4.567   6.861  0.7094  0.6872 -0.6625
  123MOL    C2022224   0.599   4.339   6.857 -0.0224 -0.0494 -0.0401
  123MOL    C2122225   0.490   4.246   6.850  0.2288  0.6572 -0.2801
  123MOL    C2222226   0.456   4.181   6.710 -0.7436  0.8266 -0.0211
  123MOL    H2322227   0.684   4.280   6.822 -1.0876 -0.1882 -2.4621
  123MOL    H2422228   0.622   4.364   6.961 -1.7884 -0.7315  0.5347
  123MOL    H2522229   0.398   4.300   6.870 -1.6063 -1.5100 -2.6563
  123MOL    H2622230   0.444   4.256   6.633 -0.8620  2.1622  1.2766
  123MOL    H2722231   0.531   4.105   6.686 -1.0373  1.5141 -3.2436
  123MOL    H2822232   0.361   4.127   6.721 -0.3322 -0.3773 -2.0754
  123MOL    C2922233   0.507   4.131   6.957  0.7395 -0.6788 -0.0776
  123MOL    C3022234   0.384   4.042   6.989  0.1504 -0.1759 -0.8327
  123MOL    C3122235   0.413   3.910   7.063 -0.9378  0.0020  0.2328
  123MOL    H3222236   0.583   4.060   6.926 -1.4273 -3.0835 -0.0619
  123MOL    H3322237   0.550   4.163   7.052 -0.5385  0.3017  0.1983
  123MOL    H3422238   0.342   4.012   6.893 -2.3079  1.8720 -0.4317
  123MOL    H3522239   0.495   3.851   7.022 -1.1796  0.4312 -0.8854
  123MOL    H3622240   0.440   3.923   7.168 -1.6973  1.5735  0.2497
  123MOL    H3722241   0.328   3.843   7.061 -1.7957  1.0921 -0.0250
  123MOL    C3822242   0.278   4.128   7.070  0.1148 -1.3600 -0.2745
  123MOL    C3922243   0.132   4.071   7.065  0.4803  0.3947  0.1263
  123MOL    C4022244   0.049   4.139   7.178  0.0218  0.3726  0.2446
  123MOL    H4122245   0.313   4.136   7.173  0.7512  0.6735 -0.6338
  123MOL    H4222246   0.277   4.233   7.043 -0.3609 -1.6997 -1.5804
  123MOL    H4322247   0.141   3.963   7.076  1.8348  0.7691  3.1363
  123MOL    H4422248   0.115   4.131   7.264 -0.2633 -0.6890  0.3710
  123MOL    H4522249   0.032   4.243   7.150 -1.6203 -0.5642 -2.4411
  123MOL    H4622250   7.649   4.095   7.202 -0.8160  2.2822  0.4648
  123MOL    C4722251   0.066   4.095   6.927  0.0748  0.0017  0.3944
  123MOL    C4822252   7.637   4.004   6.901 -0.3711  0.5194 -0.4855
  123MOL    C4922253   7.507   4.068   6.946  0.4802 -0.6805 -0.0159
  123MOL    H5022254   0.047   4.201   6.907  2.5726  0.3144 -0.4658
  123MOL    H5122255   0.146   4.062   6.862  0.5388  2.8113 -0.5247
  123MOL    H5222256   7.636   3.914   6.961 -1.0394 -0.3128 -1.7340
  123MOL    H5322257   7.432   3.990   6.931  1.0014 -1.2823  0.5083
  123MOL    H5422258   7.505   4.099   7.050  4.0111  0.0863 -0.1089
  123MOL    H5522259   7.470   4.150   6.884 -0.6403 -0.8385  0.4224
  123MOL    C5622260   7.627   3.972   6.749 -0.3622  0.0037  0.3728
  123MOL    C5722261   0.043   3.889   6.690 -1.0251  0.1454  0.3768
  123MOL    C5822262   0.051   3.748   6.760 -0.1406 -0.1501  0.0218
  123MOL    H5922263   7.533   3.922   6.726 -1.3962  2.1989 -0.2987
  123MOL    H6022264   7.627   4.065   6.691 -0.1558 -0.5091 -0.4577
  123MOL    H6122265   0.145   3.913   6.720 -1.5897  1.1081  1.5779
  123MOL    H6222266   7.654   3.701   6.734 -1.7902  1.7274  2.3029
  123MOL    H6322267   0.128   3.688   6.712 -0.1628 -0.1841  0.0290
  123MOL    H6422268   0.059   3.749   6.869 -0.0859 -1.2454  0.0302
  123MOL    C6522269   0.027   3.864   6.538 -0.4257  0.5863  0.1503
  123MOL    C6622270   0.065   3.994   6.457  0.4072  0.7299 -0.1356
  123MOL    C6722271   0.220   3.995   6.453 -0.2885 -0.4870  0.4747
  123MOL    H6822272   0.101   3.794   6.499  1.4590  1.5156  1.9473
  123MOL    H6922273   7.628   3.821   6.511 -0.5175 -0.9436  2.8392
  123MOL    H7022274   0.032   4.081   6.513 -0.6567 -0.7006  1.4955
  123MOL    H7122275   0.255   3.902   6.407 -0.9580 -0.6208  0.2223
  123MOL    H7222276   0.265   4.070   6.387  1.2925  0.2518  2.3548
  123MOL    H7322277   0.273   3.995   6.548 -0.0460  0.7822  0.3470
  123MOL    C7422278   7.694   3.994   6.325  0.3495 -0.0096 -0.1569
  123MOL    C7522279   7.540   4.018   6.315  0.3423  1.1568 -0.1760
  123MOL    C7622280   7.485   4.113   6.420 -0.6033 -0.4617  0.2674
  123MOL    H7722281   0.041   4.076   6.268 -2.3965  1.9111  0.3339
  123MOL    H7822282   0.024   3.899   6.280  0.0303  0.7244 -1.9489
  123MOL    H7922283   7.491   3.925   6.341  0.8267  1.5158  2.0936
  123MOL    H8022284   7.527   4.101   6.519 -2.4458 -2.4831  0.8323
  123MOL    H8122285   7.499   4.217   6.388  0.8168 -0.5019  0.7660
  123MOL    H8222286   7.377   4.100   6.407 -0.8745 -0.6059  2.5535
  123MOL    C8322287   7.494   4.065   6.170 -0.0389  0.6456 -0.2571
  123MOL    C8422288   7.506   3.949   6.068  0.2902 -0.1874 -0.6393
  123MOL    C8522289   7.403   3.837   6.088 -0.3723 -0.1205 -0.0818
  123MOL    H8622290   7.388   4.091   6.174 -0.8990 -2.7813  3.7049
  123MOL    H8722291   7.538   4.161   6.144 -1.1273  0.6612 -2.0889
  123MOL    H8822292   7.603   3.902   6.084  1.6034  2.9780  1.2073
  123MOL    H8922293   7.445   3.745   6.047  0.9055  0.4980 -0.2079
  123MOL    H9022294   7.374   3.817   6.191  1.4405  2.9124  1.1115
  123MOL    H9122295   7.307   3.866   6.044 -1.0584 -1.6739  0.3883
  123MOL    C9222296   7.487   3.997   5.917  0.5515  0.3197  1.0907
  123MOL    C9322297   7.598   4.093   5.865  0.1046 -0.3035 -0.1979
  123MOL    C9422298   0.044   4.040   5.904 -0.1841 -0.6298  0.1942
  123MOL    H9522299   7.489   3.915   5.845  3.6231  1.1486  0.1464
  123MOL    H9622300   7.387   4.037   5.901  0.1693 -1.6439 -1.8235
  123MOL    H9722301   7.579   4.184   5.922  0.5372 -1.2415  1.4939
  123MOL    H9822302   0.125   4.100   5.863  1.3122 -1.2882  2.1210
  123MOL    H9922303   0.053   4.049   6.012  3.2173  3.7834 -0.3490
  123MOL   H10022304   0.070   3.937   5.880  1.1574  0.1228 -1.6707
  123MOL   C10122305   7.596   4.108   5.712  0.7686 -0.1854 -0.2413
  123MOL   C10222306   7.467   4.165   5.656  0.1560 -0.4429  1.3294
  123MOL   C10322307   7.440   4.312   5.697 -0.0401 -0.5688  0.2149
  123MOL   H10422308   7.674   4.182   5.693  1.1868 -0.0558  1.8060
  123MOL   H10522309   7.626   4.017   5.661 -0.5618 -0.7447 -0.0309
  123MOL   H10622310   7.378   4.117   5.697  0.2014 -0.4401  1.4300
  123MOL   H10722311   7.520   4.376   5.661 -0.9025 -0.4267 -1.5175
  123MOL   H10822312   7.343   4.337   5.653 -0.2488  0.1891  1.0829
  123MOL   H10922313   7.431   4.321   5.805 -2.2968 -0.9330  0.0932
  123MOL   C11022314   7.470   4.158   5.496  0.6372 -0.2675 -0.4460
  123MOL   C11122315   7.352   4.208   5.416  0.9377  0.1424  0.3820
  123MOL   C11222316   7.384   4.185   5.261 -0.0386 -0.2433  0.0899
  123MOL   H11322317   7.558   4.212   5.461 -0.5948  1.7788 -0.5068
  123MOL   H11422318   7.483   4.052   5.476 -0.0117 -0.6223  0.9520
  123MOL   H11522319   7.333   4.315   5.426 -1.6122 -0.2529  0.0924
  123MOL   H11622320   7.468   4.247   5.230 -0.7558 -0.2208 -1.8730
  123MOL   H11722321   7.410   4.080   5.247  1.3089 -0.1828  1.9796
  123MOL   H11822322   7.300   4.210   5.197 -0.0492 -2.0823 -0.6730
  123MOL   C11922323   7.223   4.136   5.452  0.1049 -1.0366  0.3011
  123MOL   C12022324   7.096   4.189   5.388 -0.4110 -0.8496  0.2613
  123MOL   C12122325   6.985   4.088   5.406 -0.0774  0.2762  0.1940
  123MOL   H12222326   7.244   4.033   5.423 -0.5125 -0.8959 -0.6959
  123MOL   H12322327   7.207   4.123   5.559 -1.3032 -0.6783  0.1456
  123MOL   H12422328   7.108   4.193   5.279  0.0637 -0.5946  0.3176
  123MOL   H12522329   6.946   4.092   5.508  1.4034  0.9547  0.7437
  123MOL   H12622330   6.902   4.118   5.342  0.2113 -1.1443 -0.8576
  123MOL   H12722331   7.000   3.985   5.376 -0.0335  0.3033  0.1238
  123MOL   C12822332   7.050   4.325   5.445  0.1057  0.1864  0.5315
  123MOL   C12922333   6.942   4.404   5.364 -0.0597  0.4065 -0.5950
  123MOL   C13022334   6.936   4.548   5.424  0.7836 -0.5712 -0.5908
  123MOL   H13122335   7.021   4.314   5.550  0.8193 -0.8588  0.6232
  123MOL   H13222336   7.140   4.387   5.443  0.4427 -0.2561  1.7125
  123MOL   H13322337   6.842   4.360   5.371 -0.6600  1.4028 -2.6682
  123MOL   H13422338   7.025   4.607   5.400 -0.0807  0.2173 -1.9172
  123MOL   H13522339   6.851   4.596   5.376  0.0163  0.0240  1.3461
  123MOL   H13622340   6.911   4.561   5.529  1.3289  1.2421 -0.6669
  123MOL   C13722341   6.970   4.410   5.212 -0.7331 -0.1169 -0.3517
  123MOL   C13822342   6.884   4.501   5.113  0.1152  0.4366  0.8445
  123MOL   C13922343   6.948   4.511   4.973  0.7744  0.1392  0.1964
  123MOL   H14022344   7.072   4.447   5.201 -0.4066  0.1047  3.0262
  123MOL   H14122345   6.964   4.310   5.170 -0.1591 -0.5898  0.6965
  123MOL   H14222346   6.895   4.598   5.162  2.1542 -0.2664  1.8530
  123MOL   H14322347   6.916   4.433   4.905  0.6856 -0.9527  1.4733
  123MOL   H14422348   6.921   4.602   4.921 -0.4092  0.9394  2.1471
  123MOL   H14522349   7.057   4.514   4.971  0.7543  0.2281 -0.6433
  123MOL   C14622350   6.740   4.446   5.117  0.4691 -0.0527  0.2793
  123MOL   C14722351   6.639   4.538   5.038 -0.5574 -0.0064  0.0590
  123MOL   C14822352   6.493   4.480   5.015  0.0962 -0.3099 -0.2893
  123MOL   H14922353   6.741   4.348   5.069 -1.4891 -0.3466  0.8140
  123MOL   H15022354   6.702   4.438   5.218  2.2579  0.4323  1.0065
  123MOL   H15122355   6.685   4.553   4.941  0.9509 -2.3381  0.3593
  123MOL   H15222356   6.439   4.539   4.941 -1.8432 -1.2965  0.2978
  123MOL   H15322357   6.502   4.381   4.969 -0.1993 -0.2275 -0.5288
  123MOL   H15422358   6.432   4.468   5.105  1.6793 -0.5180  0.7772
  123MOL   C15522359   6.637   4.677   5.108  0.1673  0.0275  0.1539
  123MOL   C15622360   6.676   4.791   5.018  0.1072  0.1899 -0.3259
  123MOL   C15722361   6.555   4.810   4.922 -0.6335  0.2303  0.0086
  123MOL   H15822362   6.539   4.699   5.149  0.6585  2.1109  0.2821
  123MOL   H15922363   6.704   4.676   5.193 -0.7945 -2.0087  0.9069
  123MOL   H16022364   6.770   4.758   4.973  1.8279  1.5578  2.0955
  123MOL   H16122365   6.559   4.899   4.859  0.1426 -0.3753 -0.8106
  123MOL   H16222366   6.562   4.726   4.853  0.4823  0.8923 -0.6942
  123MOL   H16322367   6.455   4.798   4.963 -0.2297 -1.2789  0.5671
  123MOL   C16422368   6.708   4.925   5.084  0.6069 -0.0119 -0.2500
  123MOL   C16522369   6.836   4.927   5.171  0.2597  0.1527 -0.1714
  123MOL   C16622370   6.960   4.887   5.091 -0.3278  0.2119 -0.0896
  123MOL   H16722371   6.714   5.003   5.008 -0.7132  1.5698  1.2267
  123MOL   H16822372   6.630   4.954   5.155  0.4010  0.7818 -0.8047
  123MOL   H16922373   6.823   4.850   5.247 -0.6481  0.4674 -0.0092
  123MOL   H17022374   6.971   4.933   4.993  0.5243 -0.0580 -0.1256
  123MOL   H17122375   7.054   4.912   5.141 -0.1950 -0.0932 -0.1856
  123MOL   H17222376   6.964   4.782   5.065  0.0285  0.8300 -2.6155
  123MOL   C17322377   6.859   5.060   5.235 -0.5995  0.7141  0.4572
  123MOL   C17422378   6.915   5.041   5.382  0.7816  0.8491  0.8218
  123MOL   C17522379   6.941   5.171   5.449  0.3687 -0.3185  0.5640
  123MOL   H17622380   6.936   5.114   5.180  0.8249 -1.5799  0.1467
  123MOL   H17722381   6.772   5.126   5.236 -1.1015  0.1008 -1.8383
  123MOL   H17822382   7.011   4.990   5.380  2.0453  3.1663  0.4726
  123MOL   H17922383   6.993   5.150   5.543  1.9296  0.3293 -0.1329
  123MOL   H18022384   7.001   5.229   5.379 -0.0275 -1.7072 -0.9621
  123MOL   H18122385   6.851   5.230   5.463  1.7599  3.0449 -3.6467
  123MOL   H18222386   6.845   4.981   5.440 -0.7694  0.3354 -1.5023
  124MOL     C122387   2.024   2.226   0.962 -0.2649 -0.6123 -0.1476
  124MOL     C222388   2.120   2.318   1.048 -0.3703 -0.0917 -0.2964
  124MOL     C322389   2.090   2.300   1.201  0.1950 -0.2785  0.0138
  124MOL     H422390   2.045   2.247   0.857  2.1105  0.7979  0.5638
  124MOL     H522391   1.921   2.251   0.986 -0.6167 -2.1924  0.0608
  124MOL     H622392   2.097   2.423   1.032  0.3782  0.1337  0.0969
  124MOL     H722393   2.112   2.198   1.232 -2.5625 -0.7863  0.4316
  124MOL     H822394   2.150   2.375   1.253 -1.1480  0.2059  0.8813
  124MOL     H922395   1.986   2.326   1.220  1.0720  2.6327  1.0830
  124MOL    H1022396   2.030   2.119   0.982 -0.9782 -0.9235 -1.5384
  124MOL    C1122397   2.272   2.280   1.014  0.3783 -0.6331 -0.4504
  124MOL    C1222398   2.369   2.395   1.027 -0.7633  0.0636  0.3569
  124MOL    C1322399   2.361   2.477   1.151 -0.2233 -0.4368  0.1690
  124MOL    H1422400   2.302   2.207   1.090  0.6378 -1.0134 -0.9113
  124MOL    H1522401   2.280   2.250   0.910 -3.2886  1.8313 -1.5247
  124MOL    H1622402   2.348   2.468   0.949 -2.4470 -0.3899  0.3759
  124MOL    H1722403   2.435   2.556   1.165  0.6898 -1.2878  0.1850
  124MOL    H1822404   2.265   2.527   1.165  0.2001  0.1784  0.9824
  124MOL    H1922405   2.372   2.426   1.247 -1.1383  2.5199  1.9358
  124MOL    C2022406   2.516   2.356   0.995 -0.7271 -0.3856 -0.0951
  124MOL    C2122407   2.563   2.366   0.844 -0.4839  0.3142  0.7852
  124MOL    C2222408   2.582   2.520   0.803  0.9759 -0.5081 -0.4252
  124MOL    H2322409   2.580   2.418   1.059 -1.9384  0.3442  0.4230
  124MOL    H2422410   2.530   2.251   1.019  0.1406  0.0544  1.3682
  124MOL    H2522411   2.478   2.328   0.788  0.9619  0.2705 -1.4678
  124MOL    H2622412   2.634   2.571   0.885 -0.4971  0.2521  0.0415
  124MOL    H2722413   2.642   2.536   0.714  3.0312  1.3842  1.2103
  124MOL    H2822414   2.489   2.571   0.779 -1.3518 -3.0984  2.6492
  124MOL    C2922415   2.698   2.300   0.802 -0.6633 -0.3049  0.2126
  124MOL    C3022416   2.731   2.149   0.830  0.3072 -0.0529  0.0945
  124MOL    C3122417   2.621   2.060   0.775 -0.0766 -0.3952  0.0047
  124MOL    H3222418   2.714   2.323   0.696  0.7245  0.5824  0.6055
  124MOL    H3322419   2.778   2.358   0.847  0.2884  0.2310 -2.0665
  124MOL    H3422420   2.738   2.136   0.938  0.2057 -0.3172  0.0695
  124MOL    H3522421   2.614   2.058   0.666 -0.8990  2.1468 -0.0082
  124MOL    H3622422   2.626   1.958   0.814 -1.9748 -0.1424  0.9709
  124MOL    H3722423   2.518   2.085   0.801 -0.7496 -1.5665 -1.4335
  124MOL    C3822424   2.871   2.116   0.764 -0.0135 -0.0725 -0.1796
  124MOL    C3922425   3.000   2.185   0.831  0.3131 -0.7430  0.8367
  124MOL    C4022426   3.027   2.140   0.982 -0.5578  0.1358  0.3463
  124MOL    H4122427   2.889   2.008   0.763  0.1096 -0.0503 -1.0404
  124MOL    H4222428   2.857   2.143   0.659  3.5172 -3.1195 -1.5775
  124MOL    H4322429   2.970   2.289   0.844  0.4246 -0.3094 -1.9238
  124MOL    H4422430   2.957   2.181   1.054 -1.6517 -1.8000  0.4127
  124MOL    H4522431   3.026   2.031   0.991  0.3929  0.0736 -0.1601
  124MOL    H4622432   3.127   2.170   1.014 -0.5305 -0.1985  0.5679
  124MOL    C4722433   3.121   2.170   0.732  0.1254  0.0247 -0.5451
  124MOL    C4822434   3.123   2.283   0.621  0.2464  0.6442 -0.1362
  124MOL    C4922435   3.231   2.393   0.642  0.1831  0.2284  0.3728
  124MOL    H5022436   3.214   2.175   0.788 -0.3610  0.4295  0.2335
  124MOL    H5122437   3.118   2.064   0.703  1.0481 -0.9831  2.8074
  124MOL    H5222438   3.030   2.341   0.625  0.6116  1.3181 -1.1870
  124MOL    H5322439   3.244   2.412   0.749 -0.7232 -0.3740  0.5934
  124MOL    H5422440   3.327   2.355   0.606 -1.1703 -1.9374 -1.0514
  124MOL    H5522441   3.203   2.483   0.587  0.0382  0.5397  0.9494
  124MOL    C5622442   3.153   2.216   0.480 -0.9429 -0.2302  0.5330
  124MOL    C5722443   3.030   2.149   0.414 -0.5250 -0.1054 -0.2919
  124MOL    C5822444   2.926   2.263   0.372 -0.1686 -0.2621 -0.7262
  124MOL    H5922445   3.195   2.283   0.405  0.1609 -1.9679 -0.4235
  124MOL    H6022446   3.225   2.134   0.487 -2.5173 -1.8464 -1.7589
  124MOL    H6122447   2.962   2.099   0.483  0.3449  2.8945  2.8295
  124MOL    H6222448   2.847   2.208   0.322 -0.7834  0.3970 -0.4868
  124MOL    H6322449   2.876   2.304   0.460  0.2254 -0.2088 -0.5228
  124MOL    H6422450   2.960   2.340   0.304 -0.9291  0.9467  0.2380
  124MOL    C6522451   3.069   2.056   0.294  0.3476  0.0974  0.4743
  124MOL    C6622452   2.955   1.948   0.272  0.3413  0.2970 -0.3106
  124MOL    C6722453   2.897   1.961   0.129  0.6168  0.0317  0.0337
  124MOL    H6822454   3.096   2.100   0.198 -0.5763 -0.9238 -0.2657
  124MOL    H6922455   3.158   2.000   0.321  1.1320  0.5132 -1.1562
  124MOL    H7022456   2.871   1.955   0.341 -0.6764  0.4679 -1.5502
  124MOL    H7122457   2.969   1.934   0.051 -0.6716 -1.4649 -0.6644
  124MOL    H7222458   2.816   1.888   0.122  1.2476 -0.7437  0.7762
  124MOL    H7322459   2.851   2.058   0.110  0.4144  0.3315  1.9708
  124MOL    C7422460   2.994   1.810   0.313  0.4642  0.0223 -0.0701
  124MOL    C7522461   3.028   1.786   0.466  0.1403 -0.3159 -0.3952
  124MOL    C7622462   2.895   1.785   0.545  0.0235 -0.0421  0.2309
  124MOL    H7722463   2.908   1.751   0.282 -0.7718  0.5289  2.2755
  124MOL    H7822464   3.080   1.787   0.249  2.2458 -0.3775  2.3736
  124MOL    H7922465   3.101   1.862   0.496 -1.5201  1.8210 -1.6724
  124MOL    H8022466   2.825   1.712   0.503  0.2058  0.4143 -0.8928
  124MOL    H8122467   2.909   1.763   0.650  0.4943  0.5637  0.2945
  124MOL    H8222468   2.864   1.889   0.536  0.5769  0.2604  1.8358
  124MOL    C8322469   3.101   1.648   0.494  0.0625 -0.2817 -0.2741
  124MOL    C8422470   3.241   1.619   0.444  0.3777  0.5242  0.3892
  124MOL    C8522471   3.338   1.740   0.477 -0.4053  0.3974  0.0339
  124MOL    H8622472   3.089   1.619   0.598  0.4202  0.1679 -0.1046
  124MOL    H8722473   3.032   1.571   0.459 -1.3989  0.0928  1.6884
  124MOL    H8822474   3.239   1.612   0.336  0.8439  1.0429  0.3427
  124MOL    H8922475   3.319   1.825   0.412 -0.8986  0.6861  0.5474
  124MOL    H9022476   3.320   1.769   0.581  0.6503  1.9346 -0.1923
  124MOL    H9122477   3.439   1.699   0.475 -0.4166  0.4395 -1.7439
  124MOL    C9222478   3.289   1.484   0.485 -0.3091  0.6494  0.1966
  124MOL    C9322479   3.382   1.422   0.379 -0.7967 -0.8201 -0.0909
  124MOL    C9422480   3.488   1.333   0.452 -0.1641  0.1490  0.7778
  124MOL    H9522481   3.341   1.496   0.581 -0.2607  2.9720 -0.0803
  124MOL    H9622482   3.207   1.415   0.499  2.0564 -1.7188  3.2691
  124MOL    H9722483   3.429   1.512   0.338 -3.3769  1.1999  1.2552
  124MOL    H9822484   3.565   1.291   0.386  0.2163  1.5825  0.2886
  124MOL    H9922485   3.553   1.385   0.523 -1.1839  1.7234  0.5713
  124MOL   H10022486   3.440   1.251   0.505 -1.4222 -0.6482 -1.5258
  124MOL   C10122487   3.300   1.359   0.272  0.3639 -0.2324 -0.2512
  124MOL   C10222488   3.333   1.394   0.123  0.0767 -0.2240  0.2208
  124MOL   C10322489   3.475   1.366   0.091  0.0180  0.2048  0.7858
  124MOL   H10422490   3.293   1.252   0.290  0.4980 -0.8593 -3.4960
  124MOL   H10522491   3.195   1.386   0.279 -0.0489 -2.0387  0.9131
  124MOL   H10622492   3.328   1.501   0.101 -0.0409 -0.1124  0.7799
  124MOL   H10722493   3.489   1.414   7.691  3.9088  0.0843  1.2047
  124MOL   H10822494   3.540   1.415   0.164 -0.7447 -0.8675  2.1936
  124MOL   H10922495   3.516   1.266   0.076  1.8735  1.0659 -0.0826
  124MOL   C11022496   3.239   1.343   0.009  0.1194  0.1894  0.0970
  124MOL   C11122497   3.091   1.385   0.010 -0.6652 -0.0071  0.0106
  124MOL   C11222498   3.076   1.537   7.692  0.2782  0.0202 -0.0512
  124MOL   H11322499   3.273   1.368   7.606 -3.2004 -0.4926 -1.2901
  124MOL   H11422500   3.224   1.235   0.015 -0.9348  0.3917  1.6610
  124MOL   H11522501   3.042   1.373   0.106 -0.7545 -2.6882 -0.3368
  124MOL   H11622502   2.971   1.569   7.691  0.8580  2.0203 -2.3607
  124MOL   H11722503   3.120   1.600   0.071  0.0251 -1.5552  1.4200
  124MOL   H11822504   3.119   1.574   7.599 -1.8441 -0.4808 -1.2698
  124MOL   C11922505   3.009   1.314   7.596 -0.1859  0.0739  0.0757
  124MOL   C12022506   2.976   1.167   7.615 -0.1672  0.4027 -0.7778
  124MOL   C12122507   2.881   1.150   0.041  0.0946  0.3113 -0.6971
  124MOL   H12222508   2.926   1.374   7.559 -1.6336 -1.8478  0.1291
  124MOL   H12322509   3.068   1.311   7.504  0.4155 -1.9947  0.5152
  124MOL   H12422510   3.068   1.114   7.642 -0.1771  0.6443 -0.2673
  124MOL   H12522511   2.784   1.200   0.034 -0.2656 -0.4524 -1.3751
  124MOL   H12622512   2.839   1.049   0.040  0.2071  0.2643 -0.8139
  124MOL   H12722513   2.929   1.159   0.138  1.3424  0.0398 -1.2869
  124MOL   C12822514   2.924   1.092   7.486 -0.5017 -0.4550 -0.5006
  124MOL   C12922515   2.947   0.931   7.487  0.6420  0.1369 -0.7214
  124MOL   C13022516   2.869   0.864   7.370  0.2032  0.1237 -0.1738
  124MOL   H13122517   2.822   1.131   7.479  0.1022  1.7287  2.1513
  124MOL   H13222518   2.978   1.136   7.402 -1.5445  3.2564  0.6759
  124MOL   H13322519   2.891   0.908   7.578  0.6160  0.2088 -0.7178
  124MOL   H13422520   2.877   0.757   7.383  2.4409 -0.1601 -3.1902
  124MOL   H13522521   2.767   0.902   7.366  0.3442  0.9819  3.0069
  124MOL   H13622522   2.911   0.893   7.273 -1.8064  0.3614 -0.9970
  124MOL   C13722523   3.094   0.881   7.484 -0.1265  0.1704  0.3414
  124MOL   C13822524   3.136   0.736   7.504 -0.0340  0.1245 -0.1865
  124MOL   C13922525   3.253   0.703   7.408 -0.2174 -0.7287  0.4068
  124MOL   H14022526   3.119   0.902   7.379  0.9982 -0.8206  0.4060
  124MOL   H14122527   3.156   0.942   7.550 -1.1101 -1.0213  2.4006
  124MOL   H14222528   3.049   0.676   7.477 -0.3690 -0.2742  1.6991
  124MOL   H14322529   3.210   0.722   7.310 -0.7030  1.2927  0.9749
  124MOL   H14422530   3.335   0.773   7.423 -0.5859 -0.2506  0.1914
  124MOL   H14522531   3.283   0.599   7.418 -1.4042 -1.0779  0.4065
  124MOL   C14622532   3.184   0.714   7.650 -0.2212 -0.3736 -0.4658
  124MOL   C14722533   3.085   0.745   0.072  0.0591 -0.6939 -0.0696
  124MOL   C14822534   2.974   0.634   0.059  0.7445 -0.0021  0.3736
  124MOL   H14922535   3.207   0.607   7.646 -0.9974 -0.4985 -1.5291
  124MOL   H15022536   3.277   0.770   7.662  0.9242 -1.7342 -2.6679
  124MOL   H15122537   3.039   0.842   0.053  0.0936 -0.9579 -1.6296
  124MOL   H15222538   2.917   0.648   7.665  0.6459 -0.4173  0.3703
  124MOL   H15322539   3.012   0.532   0.056 -0.7890 -0.5345 -2.0646
  124MOL   H15422540   2.897   0.637   0.136 -0.8336  0.2439 -1.1820
  124MOL   C15522541   3.150   0.744   0.212  0.2011 -0.6775 -0.3292
  124MOL   C15622542   3.190   0.886   0.272  0.3018  0.8566  1.0632
  124MOL   C15722543   3.266   0.972   0.173  1.0860  0.3878 -0.1662
  124MOL   H15822544   3.105   0.680   0.289 -2.7744  1.9536  0.1885
  124MOL   H15922545   3.243   0.689   0.199  0.3982 -1.2274  2.8423
  124MOL   H16022546   3.253   0.860   0.357 -0.5036 -0.9272  1.1235
  124MOL   H16122547   3.302   1.065   0.217  0.1865  1.6068 -1.9333
  124MOL   H16222548   3.350   0.925   0.121  0.0565 -0.2840 -1.2481
  124MOL   H16322549   3.191   0.984   0.095  1.7826 -0.1878 -0.9347
  124MOL   C16422550   3.066   0.958   0.326 -0.6595 -0.4523  0.1238
  124MOL   C16522551   2.992   0.902   0.455 -0.2016 -0.4535  0.2901
  124MOL   C16622552   3.065   0.950   0.577 -0.2876 -0.1594  0.1381
  124MOL   H16722553   3.080   1.066   0.323  0.8684 -0.6622 -2.1599
  124MOL   H16822554   2.990   0.935   0.252  0.3623 -0.8756 -0.8098
  124MOL   H16922555   2.994   0.793   0.453 -0.6042 -0.4566 -1.2461
  124MOL   H17022556   3.056   1.058   0.586  1.1079  0.0437 -0.8381
  124MOL   H17122557   3.012   0.909   0.663 -0.1561 -0.3524  0.1280
  124MOL   H17222558   3.171   0.928   0.569 -0.6290 -0.9268 -2.9888
  124MOL   C17322559   2.844   0.952   0.458  0.4599  0.9045 -0.2298
  124MOL   C17422560   2.751   0.864   0.363 -0.2350  0.0738  0.1507
  124MOL   C17522561   2.742   0.724   0.418  0.4742 -0.0824  0.2087
  124MOL   H17622562   2.803   0.951   0.559 -1.4848 -0.0746 -0.9959
  124MOL   H17722563   2.832   1.061   0.454  1.2305  0.9679 -0.8430
  124MOL   H17822564   2.790   0.862   0.261 -0.5278  1.5781 -0.0054
  124MOL   H17922565   2.694   0.716   0.516  1.6504 -1.2555  0.7147
  124MOL   H18022566   2.688   0.665   0.344  1.4911 -1.3113  0.4190
  124MOL   H18122567   2.837   0.670   0.424  0.8232  0.4446 -0.4629
  124MOL   H18222568   2.654   0.911   0.349 -0.2238  1.1344  3.1240
  125MOL     C122569   1.396   5.984   3.755 -0.9834  0.3876  0.0411
  125MOL     C222570   1.412   5.866   3.850  0.5536 -0.5344  1.0647
  125MOL     C322571   1.300   5.766   3.832 -0.4139 -0.8467 -0.5214
  125MOL     H422572   1.293   6.016   3.765 -1.2244 -0.1257 -0.7299
  125MOL     H522573   1.425   5.956   3.653 -1.9437  2.0356 -0.7032
  125MOL     H622574   1.406   5.920   3.945  2.4268 -1.4292  1.7192
  125MOL     H722575   1.208   5.822   3.851 -0.1683  0.0262 -1.8477
  125MOL     H822576   1.295   5.730   3.729 -1.3155 -0.8628 -0.4777
  125MOL     H922577   1.310   5.686   3.905  2.7162 -0.1531 -0.1373
  125MOL    H1022578   1.456   6.068   3.788 -1.7673  1.2573 -0.7026
  125MOL    C1122579   1.553   5.795   3.850 -0.2490  0.2317 -0.1372
  125MOL    C1222580   1.645   5.869   3.948 -0.3116 -1.2896 -0.5519
  125MOL    C1322581   1.629   5.806   4.086 -0.1414  0.4637  0.4443
  125MOL    H1422582   1.549   5.691   3.882 -0.4231  0.4719  0.6281
  125MOL    H1522583   1.602   5.790   3.752  1.2717  2.7847  0.4514
  125MOL    H1622584   1.615   5.973   3.957 -1.9851 -2.0128  3.1112
  125MOL    H1722585   1.525   5.773   4.097  0.2803 -0.5791  1.3225
  125MOL    H1822586   1.692   5.721   4.108  0.8864  1.1241  0.1255
  125MOL    H1922587   1.656   5.872   4.168  0.2785 -0.9124  1.4099
  125MOL    C2022588   1.796   5.868   3.909  0.4639  0.7941 -0.5744
  125MOL    C2122589   1.841   5.976   3.811 -0.0589 -0.0195 -0.1923
  125MOL    C2222590   1.838   6.126   3.855 -0.0808  0.2042  0.5747
  125MOL    H2322591   1.849   5.894   4.001  1.0452  0.6404 -0.8618
  125MOL    H2422592   1.812   5.761   3.896  0.3283  0.5794  0.8818
  125MOL    H2522593   1.761   5.970   3.737 -1.0931 -3.4496  1.1206
  125MOL    H2622594   1.753   6.154   3.917  0.2048 -0.4197  1.2527
  125MOL    H2722595   1.928   6.152   3.911  0.7150 -0.3545 -0.4513
  125MOL    H2822596   1.824   6.182   3.763 -1.8494 -0.6479  0.2942
  125MOL    C2922597   1.981   5.945   3.753 -0.1683 -0.3114 -0.1026
  125MOL    C3022598   2.028   6.037   3.637  0.2455 -0.0962 -0.5624
  125MOL    C3122599   2.178   6.006   3.592 -0.3419  0.4273 -0.1314
  125MOL    H3222600   2.056   5.950   3.832  0.0126  0.8965 -0.3412
  125MOL    H3322601   1.973   5.842   3.717  0.4931 -0.7972  1.0929
  125MOL    H3422602   2.011   6.141   3.662  0.3414 -0.2763  0.2536
  125MOL    H3522603   2.219   6.079   3.522  0.4194  1.5199  1.4211
  125MOL    H3622604   2.249   6.025   3.673 -1.1826 -0.3255  0.8022
  125MOL    H3722605   2.208   5.908   3.556  1.0029 -0.4565  3.2073
  125MOL    C3822606   1.928   6.026   3.512 -0.3204 -0.2374 -0.3347
  125MOL    C3922607   1.938   6.121   3.386  0.4126 -0.0231 -0.5570
  125MOL    C4022608   2.065   6.111   3.299 -0.2293  0.5132  0.1847
  125MOL    H4122609   1.917   5.923   3.478 -0.9617 -1.4255  3.2073
  125MOL    H4222610   1.828   6.047   3.550 -0.5430 -0.3331 -0.8735
  125MOL    H4322611   1.930   6.223   3.424  1.9451 -0.6910  1.6368
  125MOL    H4422612   2.144   6.155   3.361 -1.5511  1.0654  1.5221
  125MOL    H4522613   2.100   6.014   3.266 -1.3735  0.1304  0.0903
  125MOL    H4622614   2.065   6.176   3.211 -1.7611 -0.7825 -0.8115
  125MOL    C4722615   1.812   6.099   3.294  0.2913 -0.2553  0.0293
  125MOL    C4822616   1.719   6.221   3.292 -0.3333  0.1548 -0.2783
  125MOL    C4922617   1.777   6.338   3.213 -0.4981 -0.3905  0.9016
  125MOL    H5022618   1.835   6.086   3.189  1.9010  0.7362  0.2281
  125MOL    H5122619   1.754   6.009   3.315 -1.2319  1.1841  2.2704
  125MOL    H5222620   1.718   6.257   3.395 -0.8556  0.0848 -0.2557
  125MOL    H5322621   1.881   6.359   3.241  0.6092 -2.0568 -1.7469
  125MOL    H5422622   1.769   6.322   3.106  0.7520 -3.3574  1.2023
  125MOL    H5522623   1.708   6.419   3.238 -0.3196 -0.4219  1.5225
  125MOL    C5622624   1.573   6.186   3.241  0.1923  0.4268 -0.2078
  125MOL    C5722625   1.474   6.295   3.204 -0.2365  0.2551  0.1229
  125MOL    C5822626   1.350   6.223   3.146  0.8123  0.3937 -0.2840
  125MOL    H5922627   1.584   6.108   3.166  1.2906  0.1394  0.2336
  125MOL    H6022628   1.529   6.125   3.321 -1.0669  1.4400 -0.1151
  125MOL    H6122629   1.511   6.359   3.124  1.6588 -0.5674  0.3092
  125MOL    H6222630   1.297   6.160   3.217 -0.1066  0.1402 -1.1881
  125MOL    H6322631   1.279   6.300   3.118  0.9746 -0.6619 -3.8730
  125MOL    H6422632   1.383   6.164   3.061 -1.5845 -0.9120 -0.3389
  125MOL    C6522633   1.433   6.353   3.336 -0.8718 -0.1039  0.1205
  125MOL    C6622634   1.362   6.486   3.318 -0.3031 -0.2267 -0.4907
  125MOL    C6722635   1.263   6.507   3.436  0.1568  0.4065 -0.8733
  125MOL    H6822636   1.364   6.285   3.386 -0.1819 -0.8009  0.1351
  125MOL    H6922637   1.521   6.378   3.394  1.2694  3.8142 -4.4688
  125MOL    H7022638   1.298   6.471   3.231 -0.6657 -1.5430 -0.0041
  125MOL    H7122639   1.265   6.611   3.468  3.4216 -0.1268  0.9365
  125MOL    H7222640   1.165   6.482   3.397  0.1918 -1.1831 -0.0066
  125MOL    H7322641   1.288   6.444   3.522 -1.0338 -1.5997 -1.9709
  125MOL    C7422642   1.455   6.612   3.295 -0.1455 -0.1774  0.1916
  125MOL    C7522643   1.386   6.742   3.245  0.4818  0.3751  0.3091
  125MOL    C7622644   1.351   6.835   3.356 -0.1909  0.0748 -0.1791
  125MOL    H7722645   1.517   6.636   3.382  1.5955 -1.0373 -0.7790
  125MOL    H7822646   1.537   6.586   3.228  1.1711 -1.4164  2.2258
  125MOL    H7922647   1.290   6.726   3.195  1.0578 -0.0491 -0.6735
  125MOL    H8022648   1.338   6.940   3.327 -0.7253  0.1935  0.4654
  125MOL    H8122649   1.259   6.800   3.404 -0.1822  0.9132  0.4721
  125MOL    H8222650   1.427   6.822   3.433 -1.2396  1.7645  1.1795
  125MOL    C8322651   1.484   6.810   3.146 -0.2677  0.3163 -0.3790
  125MOL    C8422652   1.498   6.732   3.014 -0.4786  0.6355 -0.3850
  125MOL    C8522653   1.363   6.713   2.941 -0.0179 -0.1344 -0.1054
  125MOL    H8622654   1.449   6.913   3.132 -1.2144  0.2158  1.1291
  125MOL    H8722655   1.582   6.825   3.191 -0.5375  1.6985 -0.2101
  125MOL    H8822656   1.539   6.631   3.020 -2.4659 -0.2451 -1.1522
  125MOL    H8922657   1.323   6.814   2.935  1.9872  0.8947  2.7714
  125MOL    H9022658   1.373   6.675   2.840 -1.7396 -0.5865 -0.1273
  125MOL    H9122659   1.290   6.648   2.990 -2.2308  1.1608 -1.5931
  125MOL    C9222660   1.587   6.817   2.924  0.1323  0.0917  0.4152
  125MOL    C9322661   1.745   6.814   2.939  0.0591  0.8043  0.0493
  125MOL    C9422662   1.809   6.675   2.915 -0.4012 -0.1327  0.0947
  125MOL    H9522663   1.574   6.785   2.820  1.0178 -0.0482  0.3452
  125MOL    H9622664   1.548   6.919   2.922  0.4132  0.1884 -0.5348
  125MOL    H9722665   1.763   6.835   3.045  0.7390  2.8150 -0.4605
  125MOL    H9822666   1.906   6.656   2.961  0.3263 -0.6469 -1.6190
  125MOL    H9922667   1.745   6.596   2.956 -1.3056  0.1511 -0.7396
  125MOL   H10022668   1.824   6.666   2.808  1.8746 -0.0706  0.3901
  125MOL   C10122669   1.810   6.932   2.861  0.3876 -0.4592  0.0806
  125MOL   C10222670   1.758   7.066   2.892 -0.5981 -0.1145  0.4860
  125MOL   C10322671   1.754   7.116   3.039  0.3644 -0.3989  0.4059
  125MOL   H10422672   1.918   6.930   2.871  0.1599 -2.2209  3.0084
  125MOL   H10522673   1.791   6.914   2.756  0.3517  0.2896 -0.0455
  125MOL   H10622674   1.660   7.076   2.846 -0.0713  0.2459 -0.5730
  125MOL   H10722675   1.856   7.114   3.077  1.0446  0.4204 -1.3195
  125MOL   H10822676   1.719   7.219   3.048  2.7391  0.4617  0.1360
  125MOL   H10922677   1.693   7.049   3.100 -0.4099  0.3684  0.4726
  125MOL   C11022678   1.856   7.169   2.827 -0.2969 -0.3324  0.3853
  125MOL   C11122679   1.889   7.161   2.671  0.1033  0.5061 -0.0850
  125MOL   C11222680   1.765   7.187   2.587  0.2496  0.2291 -0.2161
  125MOL   H11322681   1.822   7.272   2.837 -1.5678 -0.6826 -0.2389
  125MOL   H11422682   1.945   7.164   2.889 -0.7715 -0.5560  1.0560
  125MOL   H11522683   1.924   7.060   2.652 -1.4466  0.2777 -1.7881
  125MOL   H11622684   1.731   7.290   2.599 -1.1568 -0.0061 -2.0273
  125MOL   H11722685   1.781   7.177   2.480 -1.1629  0.1437 -0.4249
  125MOL   H11822686   1.679   7.127   2.617 -0.5685  1.1369 -0.7142
  125MOL   C11922687   2.008   7.254   2.628  0.0593  0.1391 -0.5573
  125MOL   C12022688   2.125   7.186   2.562 -0.6176  1.1114 -0.3250
  125MOL   C12122689   2.173   7.250   2.433  0.0618  0.5256 -0.2856
  125MOL   H12222690   1.963   7.326   2.559  1.8499  3.1999  1.3311
  125MOL   H12322691   2.048   7.309   2.714 -0.8240 -0.4424  0.2379
  125MOL   H12422692   2.095   7.091   2.519  1.2134 -0.9429  2.7526
  125MOL   H12522693   2.247   7.193   2.377 -0.0011 -0.1594  0.3187
  125MOL   H12622694   2.091   7.266   2.363  0.1847 -1.0787 -0.8108
  125MOL   H12722695   2.233   7.337   2.460 -1.6220  0.9684  2.2141
  125MOL   C12822696   2.254   7.155   2.654  0.2829  0.0504 -0.0902
  125MOL   C12922697   2.239   7.053   2.774 -0.2211  1.1473 -0.4666
  125MOL   C13022698   2.203   6.910   2.722  0.0162 -0.0989  0.1516
  125MOL   H13122699   2.330   7.107   2.592  0.6195  0.3184  0.1161
  125MOL   H13222700   2.290   7.250   2.694 -0.6423  0.3439  0.0579
  125MOL   H13322701   2.155   7.080   2.839  0.5749  2.3272  0.0879
  125MOL   H13422702   2.206   6.838   2.803  1.4047  1.1695  1.2347
  125MOL   H13522703   2.110   6.918   2.665 -0.2541 -0.4520  0.5399
  125MOL   H13622704   2.274   6.883   2.644  1.3172  1.4698  0.7751
  125MOL   C13722705   2.366   7.043   2.848 -0.0751  0.0265  0.1709
  125MOL   C13822706   2.351   6.967   2.982  0.0129 -0.1378  0.1396
  125MOL   C13922707   2.482   6.906   3.021  0.1893 -0.9099 -0.5426
  125MOL   H14022708   2.444   6.990   2.793 -1.8462 -2.9122  0.4386
  125MOL   H14122709   2.411   7.141   2.865  0.6373  0.0135 -1.4860
  125MOL   H14222710   2.287   6.879   2.985  1.1953 -1.0556 -1.3085
  125MOL   H14322711   2.546   6.992   3.037 -0.2756 -0.9470  1.7400
  125MOL   H14422712   2.468   6.859   3.119 -0.8292 -1.8358 -1.1226
  125MOL   H14522713   2.522   6.828   2.957  1.8362 -2.0326  1.7738
  125MOL   C14622714   2.300   7.074   3.077  0.1110  0.1208 -0.2767
  125MOL   C14722715   2.247   7.020   3.211  0.6258 -0.0505 -0.3166
  125MOL   C14822716   2.235   7.137   3.313  0.1222  0.9236  0.6406
  125MOL   H14922717   2.382   7.142   3.100  0.9634 -1.3358  1.1128
  125MOL   H15022718   2.225   7.141   3.034 -1.1404 -0.3129  1.1572
  125MOL   H15122719   2.317   6.954   3.262 -0.2621 -1.7105 -1.1895
  125MOL   H15222720   2.147   7.201   3.300 -1.9856 -2.1924 -1.1867
  125MOL   H15322721   2.227   7.096   3.414  1.2958  1.9777  1.1688
  125MOL   H15422722   2.324   7.198   3.301  1.2549 -0.5620  1.3216
  125MOL   C15522723   2.117   6.933   3.202  1.2616 -0.5364 -0.2346
  125MOL   C15622724   2.066   6.869   3.334  0.4956 -0.2957 -0.0066
  125MOL   C15722725   1.919   6.822   3.319 -0.7438 -0.3725 -0.1751
  125MOL   H15822726   2.044   6.998   3.154  0.1228  0.0149  2.1628
  125MOL   H15922727   2.137   6.851   3.133 -1.9180 -2.5466  1.1094
  125MOL   H16022728   2.075   6.938   3.418  0.7918 -0.8447  0.4178
  125MOL   H16122729   1.909   6.760   3.230  1.2115  0.5188 -1.0520
  125MOL   H16222730   1.901   6.765   3.410  1.3571  0.0824  0.5390
  125MOL   H16322731   1.846   6.903   3.315 -0.0884  0.1937 -0.9271
  125MOL   C16422732   2.151   6.741   3.362 -0.2384  0.0220  0.0630
  125MOL   C16522733   2.174   6.734   3.510 -0.1873 -0.3203 -0.3767
  125MOL   C16622734   2.046   6.680   3.585  0.0754 -0.3457  0.5149
  125MOL   H16722735   2.122   6.650   3.311  0.5257 -0.0737 -0.2006
  125MOL   H16822736   2.246   6.752   3.310  0.4717 -0.0470  1.3194
  125MOL   H16922737   2.187   6.830   3.560  2.6915 -0.8023 -0.1010
  125MOL   H17022738   2.065   6.663   3.691 -0.5685  0.7763  0.8211
  125MOL   H17122739   1.977   6.764   3.591  2.3007  1.5867 -0.0099
  125MOL   H17222740   2.000   6.592   3.541 -2.4071  0.7844  0.7843
  125MOL   C17322741   2.299   6.659   3.556  0.0216 -0.2196 -0.2526
  125MOL   C17422742   2.300   6.509   3.529  0.1070  1.2701 -0.0833
  125MOL   C17522743   2.437   6.437   3.579  0.3433  0.8534  0.3334
  125MOL   H17622744   2.380   6.707   3.503  0.6394 -1.2331 -0.2373
  125MOL   H17722745   2.318   6.667   3.663 -2.3269  0.1361  0.1712
  125MOL   H17822746   2.288   6.503   3.421  0.4611  0.8763 -0.1028
  125MOL   H17922747   2.441   6.330   3.555 -1.4849  0.5700  1.1690
  125MOL   H18022748   2.524   6.476   3.527 -0.8516  0.1504 -2.2703
  125MOL   H18122749   2.440   6.432   3.688 -1.9431  3.0303  0.5507
  125MOL   H18222750   2.211   6.469   3.576  0.5131 -0.1629 -0.5130
  126MOL     C122751   6.963   5.579   2.939  0.1197  0.3747 -0.0118
  126MOL     C222752   6.923   5.719   2.976 -1.1705 -0.3156 -0.3981
  126MOL     C322753   6.768   5.720   3.012  0.5355 -0.0929  0.4724
  126MOL     H422754   7.070   5.558   2.929 -0.2294 -1.5533  0.0977
  126MOL     H522755   6.919   5.563   2.841 -0.7278 -2.9247  0.8544
  126MOL     H622756   6.926   5.784   2.888 -1.2217  0.2099 -0.0109
  126MOL     H722757   6.758   5.669   3.108  1.0940  0.2560  0.7139
  126MOL     H822758   6.704   5.807   3.028 -1.4666 -1.3763 -0.3547
  126MOL     H922759   6.712   5.656   2.944  1.0574  0.4319 -0.4599
  126MOL    H1022760   6.929   5.505   3.012  2.1125  0.9129  1.5130
  126MOL    C1122761   7.007   5.780   3.091  0.6275  0.2037 -0.5974
  126MOL    C1222762   7.140   5.855   3.050 -0.1225 -0.0894 -0.2555
  126MOL    C1322763   7.116   5.974   2.953 -0.8701  0.3655 -1.0788
  126MOL    H1422764   6.943   5.846   3.150  0.0150  0.4762 -1.5732
  126MOL    H1522765   7.035   5.702   3.163 -0.0475 -1.1720 -1.8128
  126MOL    H1622766   7.214   5.786   3.008 -0.3277 -1.5455  1.6724
  126MOL    H1722767   7.061   6.055   3.000  1.1918  0.3630  1.4905
  126MOL    H1822768   7.213   6.016   2.923  0.8486 -0.2529  3.2474
  126MOL    H1922769   7.070   5.930   2.865  0.7856 -1.4408 -1.0687
  126MOL    C2022770   7.216   5.909   3.181 -0.5661 -0.3699 -0.3021
  126MOL    C2122771   7.305   5.814   3.255  0.3024  0.3257  0.0423
  126MOL    C2222772   7.443   5.815   3.177 -0.6030  0.0483 -0.0466
  126MOL    H2322773   7.280   5.992   3.154  2.0441 -2.1848  0.1584
  126MOL    H2422774   7.133   5.940   3.244 -0.0191 -0.6018  0.5322
  126MOL    H2522775   7.268   5.712   3.261 -0.9318  0.8037  0.7585
  126MOL    H2622776   7.519   5.748   3.217  0.7642  0.2820 -2.1976
  126MOL    H2722777   7.435   5.786   3.072 -0.4160 -0.4143  0.0674
  126MOL    H2822778   7.495   5.910   3.177  0.6628 -0.6099  2.3039
  126MOL    C2922779   7.335   5.854   3.399 -0.7086  0.2220  0.0469
  126MOL    C3022780   7.223   5.844   3.498  1.0226  0.5343 -0.0678
  126MOL    C3122781   7.264   5.782   3.639 -0.1876 -0.4813  0.2590
  126MOL    H3222782   7.423   5.794   3.424 -1.8946 -2.1312 -1.2960
  126MOL    H3322783   7.380   5.953   3.401 -1.8855  0.7518  0.9647
  126MOL    H3422784   7.150   5.779   3.449  0.7513  0.7279  0.0808
  126MOL    H3522785   7.333   5.848   3.692 -2.6288  0.4321  2.3620
  126MOL    H3622786   7.185   5.750   3.706 -0.7124  0.6249  0.1740
  126MOL    H3722787   7.329   5.697   3.617  0.7749  0.2005  0.4293
  126MOL    C3822788   7.147   5.975   3.518  0.1089  0.0190 -0.0184
  126MOL    C3922789   7.005   5.971   3.570 -0.0411 -0.1338 -0.3717
  126MOL    C4022790   6.947   6.111   3.585 -0.3973 -1.0466  0.1713
  126MOL    H4122791   7.209   6.031   3.588  0.4927 -0.3701 -0.0384
  126MOL    H4222792   7.156   6.045   3.434 -0.4820  0.3015  0.1576
  126MOL    H4322793   7.007   5.921   3.667  1.8179 -0.6189 -0.6508
  126MOL    H4422794   7.006   6.185   3.639 -1.9355  1.0474 -0.9187
  126MOL    H4522795   6.922   6.153   3.488 -0.3457 -1.2467  0.0721
  126MOL    H4622796   6.857   6.111   3.646 -0.3364  1.0461  0.3271
  126MOL    C4722797   6.925   5.883   3.474  0.2654  0.4663  0.1529
  126MOL    C4822798   6.771   5.869   3.496 -0.3716 -1.1785  0.3527
  126MOL    C4922799   6.708   5.796   3.373 -0.0576 -0.8436  0.2478
  126MOL    H5022800   6.946   5.930   3.378 -0.1784  0.6844  0.1626
  126MOL    H5122801   6.950   5.777   3.475 -1.0894  0.1368  0.4209
  126MOL    H5222802   6.727   5.968   3.496  1.5730 -0.2897  0.2311
  126MOL    H5322803   6.606   5.773   3.401 -0.5601  1.2127  0.1848
  126MOL    H5422804   6.717   5.865   3.289  2.3657 -0.0647  1.0770
  126MOL    H5522805   6.755   5.699   3.362  1.0509 -0.2364 -0.4677
  126MOL    C5622806   6.739   5.787   3.626 -0.3031 -0.6170 -0.0344
  126MOL    C5722807   6.607   5.818   3.698  0.0982 -0.5722  0.2910
  126MOL    C5822808   6.559   5.714   3.796 -0.0534  0.5318 -0.0270
  126MOL    H5922809   6.747   5.683   3.596  0.1608 -0.7841  0.6516
  126MOL    H6022810   6.824   5.791   3.694 -0.6064  1.4157  0.2492
  126MOL    H6122811   6.529   5.817   3.622 -0.3468 -1.9679  0.7474
  126MOL    H6222812   6.629   5.694   3.877 -0.2025  0.5638  0.1098
  126MOL    H6322813   6.465   5.750   3.837 -1.1988  0.3917 -2.4241
  126MOL    H6422814   6.527   5.622   3.747  0.4874  0.6426 -0.5935
  126MOL    C6522815   6.595   5.957   3.760 -0.7026  0.4928 -0.4868
  126MOL    C6622816   6.454   6.006   3.762 -0.2900 -0.1396  0.8806
  126MOL    C6722817   6.405   6.023   3.906 -0.3514  0.4173  0.2782
  126MOL    H6822818   6.651   5.961   3.853 -1.5854 -0.9816  0.1142
  126MOL    H6922819   6.651   6.028   3.699 -1.0738 -1.0297 -2.6612
  126MOL    H7022820   6.389   5.933   3.712  1.5071 -0.7221 -0.6202
  126MOL    H7122821   6.428   5.945   3.980  0.1032 -0.0685 -0.3708
  126MOL    H7222822   6.461   6.110   3.942  0.4294 -0.0980  0.3411
  126MOL    H7322823   6.300   6.048   3.899 -0.2429  0.3879 -1.5347
  126MOL    C7422824   6.440   6.137   3.682 -0.1472 -0.1068 -0.5536
  126MOL    C7522825   6.427   6.112   3.523 -0.0184  0.1494 -0.4021
  126MOL    C7622826   6.322   6.023   3.480  0.1849  0.4718 -0.1329
  126MOL    H7722827   6.353   6.189   3.723 -0.5416 -0.7812 -0.5302
  126MOL    H7822828   6.525   6.202   3.705 -1.8439  1.0837  2.6855
  126MOL    H7922829   6.519   6.061   3.495  0.5942 -0.1849  2.1022
  126MOL    H8022830   6.224   6.064   3.508 -0.1553 -0.6462  0.3331
  126MOL    H8122831   6.310   6.019   3.372  1.0142 -1.2383 -0.1630
  126MOL    H8222832   6.320   5.918   3.506  2.0682 -0.0095 -1.8692
  126MOL    C8322833   6.411   6.254   3.454 -0.4825 -0.6003  0.2035
  126MOL    C8422834   6.543   6.321   3.395 -0.3054  0.1900 -0.0596
  126MOL    C8522835   6.643   6.339   3.510 -0.1839 -0.0327 -0.1066
  126MOL    H8622836   6.329   6.247   3.382 -1.6794  0.5385  1.4209
  126MOL    H8722837   6.375   6.329   3.524  0.1834  0.6456 -0.7864
  126MOL    H8822838   6.504   6.421   3.373 -1.0986 -0.2843 -0.8543
  126MOL    H8922839   6.586   6.382   3.592 -0.4129 -0.0815 -0.2384
  126MOL    H9022840   6.700   6.248   3.530 -1.4990 -0.3085  2.5476
  126MOL    H9122841   6.717   6.416   3.488  0.2550 -0.6900 -0.9993
  126MOL    C9222842   6.596   6.237   3.271  0.4890  0.2973 -0.7083
  126MOL    C9322843   6.733   6.271   3.220  0.0061 -0.8905  0.3770
  126MOL    C9422844   6.782   6.150   3.137  0.0332 -0.1991  0.4837
  126MOL    H9522845   6.592   6.132   3.301  0.7765  0.3802 -0.3846
  126MOL    H9622846   6.527   6.258   3.189  1.5675  0.6225 -1.5491
  126MOL    H9722847   6.799   6.278   3.307 -1.9331  0.3211  1.7798
  126MOL    H9822848   6.706   6.135   3.060  0.2605  1.6965 -0.1462
  126MOL    H9922849   6.874   6.169   3.082  0.5827 -0.1400  1.4216
  126MOL   H10022850   6.788   6.056   3.191 -3.9389 -1.4764 -1.0611
  126MOL   C10122851   6.744   6.408   3.148  0.2417 -0.6826 -0.0555
  126MOL   C10222852   6.873   6.497   3.163  0.8597 -0.1416 -0.0721
  126MOL   C10322853   6.889   6.571   3.299  0.6795 -0.0248 -0.1296
  126MOL   H10422854   6.719   6.382   3.046 -2.0748  1.2318 -0.0264
  126MOL   H10522855   6.663   6.479   3.165  0.9464  0.1650 -0.2622
  126MOL   H10622856   6.850   6.577   3.093 -3.2446 -0.7408  0.4898
  126MOL   H10722857   6.952   6.521   3.373  3.0513 -0.1583 -2.1867
  126MOL   H10822858   6.936   6.669   3.286  1.3799 -0.2601  0.5765
  126MOL   H10922859   6.791   6.587   3.345  0.3241 -1.1089 -0.5161
  126MOL   C11022860   6.993   6.418   3.113  0.3597 -0.0831 -0.2877
  126MOL   C11122861   7.115   6.503   3.064  0.2315 -0.2119 -0.2690
  126MOL   C11222862   7.235   6.417   3.050 -0.6288 -0.4767  0.4633
  126MOL   H11322863   7.005   6.341   3.189 -0.8695 -0.8432 -0.8553
  126MOL   H11422864   6.962   6.371   3.020 -1.0269  1.6035 -0.7181
  126MOL   H11522865   7.137   6.567   3.149 -1.5774 -1.1469  0.9306
  126MOL   H11622866   7.275   6.386   3.147 -0.0766  0.9028  0.6976
  126MOL   H11722867   7.214   6.322   3.001 -2.4894  0.4532 -0.5681
  126MOL   H11822868   7.315   6.465   2.994 -0.6462  0.5396  1.2870
  126MOL   C11922869   7.089   6.586   2.940  0.1613 -0.6944  0.0052
  126MOL   C12022870   7.174   6.715   2.921  0.6158  0.6928 -0.5021
  126MOL   C12122871   7.254   6.707   2.793 -0.4907 -0.1725  0.9138
  126MOL   H12222872   7.103   6.525   2.851  3.0276 -1.0478  0.6211
  126MOL   H12322873   6.985   6.611   2.923 -0.0716  0.6763  3.1610
  126MOL   H12422874   7.250   6.730   2.998  0.1937 -1.0147  0.2816
  126MOL   H12522875   7.303   6.612   2.777 -0.5214 -0.1238  0.5076
  126MOL   H12622876   7.190   6.736   2.709  2.3439 -1.5617 -1.8013
  126MOL   H12722877   7.325   6.789   2.802  0.1961 -0.5763 -0.6127
  126MOL   C12822878   7.101   6.848   2.924  0.1775  0.2245  0.1156
  126MOL   C12922879   7.023   6.877   3.055 -0.3176  0.6946  0.0671
  126MOL   C13022880   7.119   6.876   3.173  0.2692 -0.2736 -0.4213
  126MOL   H13122881   7.174   6.929   2.925 -2.1187  2.3478  0.7723
  126MOL   H13222882   7.029   6.853   2.843 -0.8191  1.1284  1.0415
  126MOL   H13322883   6.955   6.793   3.069  0.4243 -0.0078 -0.5078
  126MOL   H13422884   7.163   6.778   3.194  0.5908 -0.0188  0.0891
  126MOL   H13522885   7.199   6.944   3.143  0.6368 -0.3127  0.4509
  126MOL   H13622886   7.068   6.914   3.262 -0.1658 -2.0840  0.1381
  126MOL   C13722887   6.953   7.012   3.039 -0.0053  0.5634  0.1238
  126MOL   C13822888   6.829   7.015   3.135  0.1632  0.0409 -0.2701
  126MOL   C13922889   6.811   7.153   3.176  0.4766 -0.2896 -0.5962
  126MOL   H14022890   7.033   7.085   3.056 -1.8765  2.3782  1.5330
  126MOL   H14122891   6.927   7.020   2.934  2.7555  0.2117 -0.6049
  126MOL   H14222892   6.843   6.954   3.224  0.0170  0.7924  0.2734
  126MOL   H14322893   6.803   7.229   3.097  0.1652  1.1801  0.8231
  126MOL   H14422894   6.731   7.166   3.248 -1.9501 -0.9314 -3.1147
  126MOL   H14522895   6.899   7.181   3.235 -0.4759  0.6368  0.4105
  126MOL   C14622896   6.703   6.966   3.056 -0.4431 -0.0027 -0.3493
  126MOL   C14722897   6.574   6.954   3.127 -0.2720  0.0759  0.0577
  126MOL   C14822898   6.466   6.935   3.021 -0.1424 -0.3867 -0.7111
  126MOL   H14922899   6.689   7.046   2.983 -1.4528 -0.7614 -1.0011
  126MOL   H15022900   6.721   6.877   2.995 -2.4367 -0.4151 -0.3711
  126MOL   H15122901   6.560   7.056   3.161  0.4569  0.8283 -1.8390
  126MOL   H15222902   6.482   6.842   2.966  1.1090 -0.7086  0.1900
  126MOL   H15322903   6.361   6.921   3.049 -0.7365  3.4669 -0.7139
  126MOL   H15422904   6.466   7.014   2.946  3.0333  0.7286  0.4179
  126MOL   C15522905   6.585   6.840   3.233 -0.4925 -0.1048 -0.3099
  126MOL   C15622906   6.454   6.830   3.315 -0.3072  0.3146 -0.4269
  126MOL   C15722907   6.362   6.728   3.257  0.4481 -0.4229  0.3142
  126MOL   H15822908   6.619   6.742   3.199 -0.5194 -0.6351  1.1495
  126MOL   H15922909   6.663   6.873   3.301  0.4829 -0.3590 -1.2885
  126MOL   H16022910   6.408   6.929   3.314 -2.4789 -0.6646 -0.9556
  126MOL   H16122911   6.416   6.634   3.246  0.2229 -0.7981  2.3855
  126MOL   H16222912   6.280   6.698   3.322  1.6037  0.7655  2.3662
  126MOL   H16322913   6.307   6.763   3.169  0.7125  0.9005  0.6653
  126MOL   C16422914   6.477   6.785   3.465 -0.2401 -0.2799  0.1561
  126MOL   C16522915   6.482   6.889   3.572  0.4051  0.0407 -0.2351
  126MOL   C16622916   6.490   6.818   3.715 -0.2689 -0.3876  0.3836
  126MOL   H16722917   6.409   6.706   3.496 -2.5032  0.6079 -2.2784
  126MOL   H16822918   6.574   6.736   3.468 -0.6889 -1.2565 -0.8503
  126MOL   H16922919   6.389   6.946   3.574  0.6655  0.4570  2.4399
  126MOL   H17022920   6.471   6.893   3.791  1.1701  1.3791 -0.9725
  126MOL   H17122921   6.416   6.743   3.744 -0.7877 -0.5727 -1.3390
  126MOL   H17222922   6.589   6.773   3.724 -0.6935 -0.6174  4.8537
  126MOL   C17322923   6.595   6.994   3.548 -0.9643  0.4160  0.0421
  126MOL   C17422924   6.613   7.097   3.661  0.2743 -0.8855 -0.2985
  126MOL   C17522925   6.710   7.209   3.624  0.2948  0.0210  0.5009
  126MOL   H17622926   6.689   6.944   3.527  0.5884  3.2551 -0.0042
  126MOL   H17722927   6.570   7.054   3.460  1.6745  0.1144 -0.9632
  126MOL   H17822928   6.650   7.047   3.751  3.2967  2.3357  0.3867
  126MOL   H17922929   6.803   7.166   3.586 -0.5145 -1.1637 -0.1640
  126MOL   H18022930   6.682   7.282   3.548  1.9905  2.0058  1.7283
  126MOL   H18122931   6.732   7.269   3.713  1.5756 -1.1852  1.0274
  126MOL   H18222932   6.519   7.142   3.691  1.3968  0.6460  1.0611
  127MOL     C122933   0.215   6.270   6.371  0.0649 -0.6893  1.0327
  127MOL     C222934   0.195   6.420   6.401  0.0356  0.0680  0.1288
  127MOL     C322935   0.290   6.471   6.508 -0.0975 -0.0837 -0.5409
  127MOL     H422936   0.318   6.240   6.349 -0.4710 -1.9703  0.2267
  127MOL     H522937   0.163   6.243   6.279 -1.0014  1.5812  0.9240
  127MOL     H622938   0.093   6.420   6.441  0.7974 -3.5895  2.3152
  127MOL     H722939   0.256   6.568   6.545 -0.6301  0.6150 -2.7897
  127MOL     H822940   0.276   6.406   6.594 -0.0382  1.1149  0.3787
  127MOL     H922941   0.395   6.468   6.478 -0.5675 -0.2220 -2.2451
  127MOL    H1022942   0.179   6.204   6.449 -2.2276  0.0037  0.5935
  127MOL    C1122943   0.213   6.510   6.275 -0.7881  0.0755  0.6404
  127MOL    C1222944   0.354   6.502   6.206  0.7996  0.8481 -0.3715
  127MOL    C1322945   0.355   6.452   6.054 -0.3948 -0.0351 -0.0353
  127MOL    H1422946   0.140   6.483   6.199  1.5724  1.1302 -2.0931
  127MOL    H1522947   0.191   6.615   6.295 -0.9986  0.1494  0.0537
  127MOL    H1622948   0.409   6.420   6.251  0.6503 -0.2483 -2.1398
  127MOL    H1722949   0.457   6.436   6.019  0.2506  2.8571  0.4014
  127MOL    H1822950   0.291   6.365   6.041  0.0523 -0.2445 -0.8140
  127MOL    H1922951   0.303   6.525   5.991 -0.3995 -1.5338 -1.8080
  127MOL    C2022952   0.430   6.632   6.224  0.0929 -0.1703 -0.8729
  127MOL    C2122953   0.580   6.642   6.177 -0.1704 -0.8110  0.0848
  127MOL    C2222954   0.632   6.789   6.188  0.2870  0.2846  0.2301
  127MOL    H2322955   0.372   6.712   6.178 -2.8393 -1.3596  0.5540
  127MOL    H2422956   0.440   6.668   6.327  0.3671  1.3364 -1.4052
  127MOL    H2522957   0.586   6.600   6.077 -0.2628 -2.6081  0.8019
  127MOL    H2622958   0.723   6.804   6.129 -0.4073  0.9600 -0.6777
  127MOL    H2722959   0.548   6.849   6.156 -0.1094 -0.2769  0.2080
  127MOL    H2822960   0.652   6.810   6.293 -0.2101  1.1313  0.1598
  127MOL    C2922961   0.670   6.553   6.262  0.0264  0.4856 -0.7834
  127MOL    C3022962   0.805   6.510   6.185 -0.1582  0.1559  0.1950
  127MOL    C3122963   0.927   6.497   6.288 -0.4611  0.3040 -0.6685
  127MOL    H3222964   0.697   6.601   6.357 -1.9486  0.7085 -0.3159
  127MOL    H3322965   0.620   6.460   6.288 -0.7613  0.3716 -2.6776
  127MOL    H3422966   0.820   6.585   6.108 -1.8269  2.8674  2.4085
  127MOL    H3522967   0.946   6.587   6.347 -0.4611 -0.4466  0.4926
  127MOL    H3622968   0.911   6.407   6.348  0.9889  1.0903  0.9212
  127MOL    H3722969   1.018   6.480   6.233  0.0622 -2.2547  0.9033
  127MOL    C3822970   0.783   6.376   6.109 -0.0977 -0.0656  0.5046
  127MOL    C3922971   0.892   6.316   6.026 -0.2770 -0.3601  0.1562
  127MOL    C4022972   0.878   6.171   5.991  0.4360  0.3513 -0.3368
  127MOL    H4122973   0.759   6.303   6.187 -1.5869 -0.0914  0.0517
  127MOL    H4222974   0.687   6.376   6.057 -0.0031 -0.7334  0.3279
  127MOL    H4322975   0.981   6.322   6.089  1.1952  1.4771 -2.0252
  127MOL    H4422976   0.840   6.110   6.073  0.4741  1.6323  0.6449
  127MOL    H4522977   0.803   6.169   5.911  1.1617 -0.1299 -1.0092
  127MOL    H4622978   0.967   6.121   5.955  1.9005  2.6292  0.0017
  127MOL    C4722979   0.931   6.406   5.901 -0.1030  0.2738  0.1334
  127MOL    C4822980   1.083   6.425   5.896  0.0289 -0.4454  0.0712
  127MOL    C4922981   1.153   6.299   5.851 -0.0278 -0.3738 -0.6317
  127MOL    H5022982   0.889   6.357   5.813 -1.0805 -0.0259  0.7528
  127MOL    H5122983   0.879   6.500   5.914 -0.3024  0.3816 -1.4070
  127MOL    H5222984   1.117   6.443   5.998  0.8134 -1.7264  0.0374
  127MOL    H5322985   1.254   6.313   5.815 -0.6439 -0.4736 -2.4427
  127MOL    H5422986   1.159   6.222   5.928  0.9518  1.0617  0.7417
  127MOL    H5522987   1.093   6.257   5.769  0.1469 -0.8833 -0.5039
  127MOL    C5622988   1.119   6.547   5.800  0.7449 -0.1045 -0.1863
  127MOL    C5722989   1.117   6.683   5.865  0.3125 -0.4872 -1.0329
  127MOL    C5822990   1.248   6.700   5.935 -0.2785 -0.5900 -0.1764
  127MOL    H5922991   1.218   6.532   5.757 -0.3929  0.2236 -3.0613
  127MOL    H6022992   1.068   6.561   5.705  0.3977 -1.8971 -0.2831
  127MOL    H6122993   1.048   6.688   5.949  0.7131 -0.2040 -0.7229
  127MOL    H6222994   1.244   6.792   5.993 -4.5442 -0.0659 -1.1344
  127MOL    H6322995   1.266   6.622   6.009  2.8699 -1.2534 -1.5530
  127MOL    H6422996   1.333   6.704   5.867 -0.8681  4.8280 -0.7927
  127MOL    C6522997   1.102   6.798   5.766  0.1845 -0.1241  0.0963
  127MOL    C6622998   0.961   6.819   5.705  0.0893 -0.3027 -0.0648
  127MOL    C6722999   0.845   6.817   5.809  0.1538  0.1012  0.2357
  127MOL    H6823000   1.142   6.888   5.814  2.3220 -0.2748 -1.3003
  127MOL    H6923001   1.174   6.786   5.685  1.6772  0.5371  1.2924
  127MOL    H7023002   0.950   6.736   5.635 -2.2594  0.3350 -0.4740
  127MOL    H7123003   0.744   6.820   5.767  0.1761 -1.6462 -0.0161
  127MOL    H7223004   0.848   6.725   5.868  2.1323  0.3729  0.5640
  127MOL    H7323005   0.860   6.895   5.884  0.0512  2.0526 -1.7342
  127MOL    C7423006   0.936   6.943   5.611 -0.4643 -0.0134 -0.0386
  127MOL    C7523007   0.935   6.908   5.449  0.3734  0.6304 -0.6347
  127MOL    C7623008   0.803   6.844   5.415  0.2601  0.4281 -0.0577
  127MOL    H7723009   0.845   6.988   5.650  0.2654  1.4591 -0.0235
  127MOL    H7823010   1.005   7.023   5.638  0.9492 -1.4702  0.7425
  127MOL    H7923011   1.006   6.828   5.429  0.4238  0.1645  1.3711
  127MOL    H8023012   0.807   6.790   5.320  0.3517 -2.9214  1.8178
  127MOL    H8123013   0.768   6.768   5.484 -0.8901 -1.2047 -2.3810
  127MOL    H8223014   0.729   6.924   5.413 -0.3234 -0.1045  0.2201
  127MOL    C8323015   0.966   7.023   5.351 -0.9902  0.5738 -1.1752
  127MOL    C8423016   1.112   7.083   5.359 -0.4010 -0.2922  0.3297
  127MOL    C8523017   1.213   6.970   5.308  0.2343 -0.0046 -0.9713
  127MOL    H8623018   0.943   6.994   5.248  0.8124 -1.7995 -0.9628
  127MOL    H8723019   0.903   7.107   5.381  0.4595  1.0982  0.4605
  127MOL    H8823020   1.119   7.104   5.466 -0.3330  0.6572  0.1465
  127MOL    H8923021   1.188   6.933   5.209  0.4278  1.5850 -1.6264
  127MOL    H9023022   1.313   7.015   5.311  0.3605 -0.3049 -0.5165
  127MOL    H9123023   1.223   6.885   5.376  0.4686  1.6058  1.0555
  127MOL    C9223024   1.126   7.206   5.265 -0.0530 -0.4741  0.3914
  127MOL    C9323025   1.257   7.298   5.280 -0.0019  0.5675  0.2069
  127MOL    C9423026   1.247   7.412   5.182  0.3437 -0.0076 -0.0416
  127MOL    H9523027   1.123   7.159   5.167 -0.5566 -0.9649  0.6344
  127MOL    H9623028   1.037   7.266   5.287  0.7249 -0.0203  2.4214
  127MOL    H9723029   1.347   7.243   5.252  1.1649  2.0964  0.8822
  127MOL    H9823030   1.217   7.381   5.082 -0.3413  1.5914 -0.3407
  127MOL    H9923031   1.168   7.473   5.225  1.0801 -1.2173  3.1778
  127MOL   H10023032   1.342   7.464   5.166  1.4742 -1.2396  2.3194
  127MOL   C10123033   1.280   7.351   5.419 -0.2446 -0.0545  0.4135
  127MOL   C10223034   1.395   7.455   5.445  0.1670 -0.1486 -0.0159
  127MOL   C10323035   1.398   7.489   5.597  0.2283 -0.8090  0.2948
  127MOL   H10423036   1.186   7.385   5.464 -0.6575 -0.9038  0.2014
  127MOL   H10523037   1.302   7.263   5.479 -1.3949 -0.9544 -0.4669
  127MOL   H10623038   1.366   7.541   5.385  0.3199  0.9929  1.5038
  127MOL   H10723039   1.451   7.581   5.620 -0.6818 -0.4971  1.1512
  127MOL   H10823040   1.299   7.511   5.635  0.5454  1.0520  0.0926
  127MOL   H10923041   1.439   7.402   5.648  0.5290 -1.3943 -0.9079
  127MOL   C11023042   1.535   7.406   5.399 -0.6840  0.4167  0.2229
  127MOL   C11123043   1.617   7.503   5.317 -0.6739  0.3495  0.1236
  127MOL   C11223044   1.658   7.627   5.400 -0.2005 -0.1779  0.0907
  127MOL   H11323045   1.596   7.373   5.483 -1.2102  0.3014  0.5622
  127MOL   H11423046   1.520   7.316   5.338 -2.1651  0.4147  0.5890
  127MOL   H11523047   1.554   7.529   5.231 -1.8285 -2.8096 -0.0458
  127MOL   H11623048   1.711   7.696   5.334  1.1702 -1.4948 -0.2057
  127MOL   H11723049   1.571   7.684   5.434 -1.1213 -0.6930 -1.3522
  127MOL   H11823050   1.705   7.599   5.494 -0.9341  1.7386  1.0587
  127MOL   C11923051   1.746   7.445   5.267  0.3063 -0.0823  0.1275
  127MOL   C12023052   1.736   7.331   5.170  0.0824  0.5018 -0.6721
  127MOL   C12123053   1.669   7.362   5.032  0.5313 -0.4930  0.4877
  127MOL   H12223054   1.817   7.521   5.235 -0.1238  0.1486 -0.2820
  127MOL   H12323055   1.798   7.410   5.356  0.1491  0.1685  0.3181
  127MOL   H12423056   1.674   7.252   5.212 -2.2251  1.7647 -1.6330
  127MOL   H12523057   1.733   7.427   4.972 -0.1616 -0.4250 -0.1825
  127MOL   H12623058   1.658   7.272   4.972  0.0295  0.6575 -1.2013
  127MOL   H12723059   1.568   7.401   5.044  1.0156  0.5800  1.2252
  127MOL   C12823060   1.875   7.265   5.140 -0.1041  0.5849  0.0680
  127MOL   C12923061   1.950   7.210   5.264  0.4911  0.3745  0.3454
  127MOL   C13023062   1.862   7.098   5.331  0.3176  0.0035  0.2650
  127MOL   H13123063   1.870   7.173   5.081  0.8138  1.4103 -1.3457
  127MOL   H13223064   1.929   7.346   5.092  0.8976  0.8737  1.6454
  127MOL   H13323065   1.969   7.286   5.340  0.4756  0.3470  0.3768
  127MOL   H13423066   1.812   7.038   5.255 -0.2995  0.6901  0.1281
  127MOL   H13523067   1.916   7.022   5.388 -0.3946  0.9259  2.1907
  127MOL   H13623068   1.790   7.152   5.391  0.2240 -0.4647  0.5757
  127MOL   C13723069   2.090   7.151   5.226 -0.0232 -0.2696 -0.2902
  127MOL   C13823070   2.192   7.246   5.156  0.0304  0.2644  0.5047
  127MOL   C13923071   2.261   7.333   5.271  0.3063 -0.4545 -0.0693
  127MOL   H14023072   2.140   7.109   5.313  1.5016 -0.1255 -1.0765
  127MOL   H14123073   2.071   7.069   5.157  0.0648 -0.4277 -0.1233
  127MOL   H14223074   2.133   7.315   5.097  0.0108  1.9275  2.4324
  127MOL   H14323075   2.293   7.281   5.362  0.4976  2.9336  1.8944
  127MOL   H14423076   2.348   7.393   5.245  0.2399  0.0397  0.8143
  127MOL   H14523077   2.195   7.413   5.304  0.2699  0.0284 -1.3053
  127MOL   C14623078   2.305   7.176   5.076  0.1543  0.5959  0.3514
  127MOL   C14723079   2.383   7.267   4.976 -0.8151  0.4597 -0.6501
  127MOL   C14823080   2.527   7.203   4.950 -0.2098  0.1709 -0.1620
  127MOL   H14923081   2.383   7.131   5.137  0.3116 -1.9594 -1.6252
  127MOL   H15023082   2.254   7.089   5.034  0.5021 -2.0038  4.9631
  127MOL   H15123083   2.408   7.362   5.024  0.6834  0.1914 -0.9067
  127MOL   H15223084   2.583   7.193   5.043  0.2517  1.5145 -0.2844
  127MOL   H15323085   2.517   7.104   4.905 -1.9519  0.6982 -0.9878
  127MOL   H15423086   2.590   7.263   4.884 -0.8357  1.6671  0.5766
  127MOL   C15523087   2.303   7.293   4.844 -0.4204  0.5581  0.3555
  127MOL   C15623088   2.286   7.443   4.807 -0.1918 -0.0764  0.3201
  127MOL   C15723089   2.415   7.510   4.777 -0.5980 -0.3532 -0.4019
  127MOL   H15823090   2.353   7.251   4.757 -0.2023  2.3552 -0.4101
  127MOL   H15923091   2.201   7.256   4.845 -0.7735  1.3859 -2.0991
  127MOL   H16023092   2.253   7.482   4.904 -1.7274 -2.9287  0.9873
  127MOL   H16123093   2.461   7.463   4.690 -1.6591 -3.6781  0.7206
  127MOL   H16223094   2.411   7.618   4.767  2.3581 -0.3415 -2.1729
  127MOL   H16323095   2.484   7.484   4.858  0.8925 -2.9214 -2.4077
  127MOL   C16423096   2.173   7.464   4.696  0.7847 -0.3248 -0.3515
  127MOL   C16523097   2.097   7.599   4.711  0.5681 -0.3254  0.7900
  127MOL   C16623098   2.027   7.636   4.576  0.5132 -0.2211 -0.2048
  127MOL   H16723099   2.217   7.460   4.596 -0.3154 -0.8425 -0.8333
  127MOL   H16823100   2.101   7.382   4.688  0.8625 -0.1510 -3.4378
  127MOL   H16923101   2.174   7.674   4.726  0.4599  0.9611 -4.0862
  127MOL   H17023102   1.968   0.029   4.583 -0.1558 -0.7937  1.7833
  127MOL   H17123103   2.100   7.650   4.496  1.3967 -0.1596  0.6086
  127MOL   H17223104   1.957   7.561   4.537  0.0096  0.9050 -1.5051
  127MOL   C17323105   1.990   7.605   4.818  0.0327  0.1384 -0.1148
  127MOL   C17423106   1.982   0.036   4.892  0.4103 -0.0240  0.0166
  127MOL   C17523107   1.915   0.015   5.027 -0.1213 -0.2936 -0.3680
  127MOL   H17623108   1.893   7.579   4.776 -1.3976  3.8330  0.7040
  127MOL   H17723109   2.006   7.525   4.891  1.9543  3.0015  2.7705
  127MOL   H17823110   1.923   0.104   4.830  1.6612  1.2140  0.1834
  127MOL   H17923111   1.815   7.669   5.021  0.1037 -0.7970 -0.5614
  127MOL   H18023112   1.968   7.642   5.090  1.0997  0.3814 -0.6408
  127MOL   H18123113   1.913   0.107   5.085 -0.0210 -0.1784 -0.5470
  127MOL   H18223114   2.081   0.081   4.894  0.8495 -0.7878 -2.4208
  128MOL     C123115   7.035   6.568   6.493 -0.1216  0.2789  0.9844
  128MOL     C223116   7.138   6.578   6.611 -1.0699  0.1082  0.4292
  128MOL     C323117   7.275   6.641   6.568  0.1586  0.3216 -0.9149
  128MOL     H423118   7.018   6.668   6.453  1.4839  1.0825  2.2269
  128MOL     H523119   6.940   6.531   6.532 -1.6940  1.0819 -1.9858
  128MOL     H623120   7.169   6.477   6.636 -1.2058  0.5802  2.5837
  128MOL     H723121   7.341   6.662   6.652 -0.3816  0.6985 -0.5764
  128MOL     H823122   7.322   6.572   6.498  2.0720  0.9533 -0.2851
  128MOL     H923123   7.260   6.728   6.505 -0.9885  0.6977 -0.1466
  128MOL    H1023124   7.067   6.513   6.405 -0.3811  1.3646  0.2057
  128MOL    C1123125   7.085   6.645   6.744  0.1831 -0.2749 -0.6381
  128MOL    C1223126   6.973   6.562   6.815  0.7068  0.0220  0.3219
  128MOL    C1323127   7.030   6.437   6.883  0.3323 -0.0218 -0.4026
  128MOL    H1423128   7.164   6.661   6.818 -0.9950  1.4503  0.2721
  128MOL    H1523129   7.051   6.744   6.716 -0.4386 -0.6867 -1.3371
  128MOL    H1623130   6.903   6.527   6.739 -0.6215 -1.2210  2.0727
  128MOL    H1723131   6.949   6.378   6.925  1.0876 -0.9731 -0.2697
  128MOL    H1823132   7.079   6.378   6.805 -0.7901 -1.7085  0.1593
  128MOL    H1923133   7.102   6.451   6.963 -2.1446 -0.4925  1.9512
  128MOL    C2023134   6.890   6.647   6.910  0.1892  0.8307 -0.3432
  128MOL    C2123135   6.737   6.628   6.887  0.2428  0.6363 -0.1141
  128MOL    C2223136   6.685   6.669   6.746 -0.1910  0.0879  0.2071
  128MOL    H2323137   6.911   6.651   7.017 -2.4276  1.5166  0.1895
  128MOL    H2423138   6.905   6.753   6.891 -1.0797  1.2548  0.8760
  128MOL    H2523139   6.693   6.694   6.962  2.0738  2.1751 -0.3732
  128MOL    H2623140   6.580   6.697   6.753 -0.6570 -1.3717 -0.6875
  128MOL    H2723141   6.727   6.764   6.714  0.0729  0.1050  0.5958
  128MOL    H2823142   6.711   6.603   6.663  1.2199  2.5307 -1.3565
  128MOL    C2923143   6.696   6.483   6.929  0.0247  0.1335  0.5979
  128MOL    C3023144   6.555   6.462   6.979 -0.0211  0.4176  0.0532
  128MOL    C3123145   6.469   6.419   6.864 -0.2705 -0.2896 -0.0300
  128MOL    H3223146   6.728   6.419   6.847  0.5138  0.0676  0.8376
  128MOL    H3323147   6.756   6.456   7.016  2.2072  4.1096  0.4305
  128MOL    H3423148   6.517   6.552   7.026 -1.8720  0.3083 -1.1801
  128MOL    H3523149   6.513   6.330   6.819  0.9458  0.9471 -1.3428
  128MOL    H3623150   6.365   6.400   6.890 -0.3008  0.4706  0.4410
  128MOL    H3723151   6.469   6.499   6.790  3.4986  0.1350  0.3407
  128MOL    C3823152   6.547   6.344   7.086 -0.0396  0.2363 -0.2105
  128MOL    C3923153   6.579   6.371   7.235  0.5300 -0.2159 -0.0870
  128MOL    C4023154   6.479   6.470   7.309  0.5880 -0.7627 -0.0314
  128MOL    H4123155   6.450   6.296   7.090  0.1352 -0.0101  2.1316
  128MOL    H4223156   6.614   6.268   7.047 -0.1539  0.6784 -1.2671
  128MOL    H4323157   6.676   6.421   7.229 -0.0086  0.9536  0.5745
  128MOL    H4423158   6.453   6.551   7.241  1.0182 -1.0962 -0.5985
  128MOL    H4523159   6.392   6.418   7.348 -0.4102  0.7042 -0.2707
  128MOL    H4623160   6.528   6.521   7.391 -1.4645 -0.5033  1.0519
  128MOL    C4723161   6.598   6.251   7.320 -0.0134  1.3107 -0.7996
  128MOL    C4823162   6.673   6.266   7.454  0.1753  0.5837 -0.4043
  128MOL    C4923163   6.668   6.137   7.543 -0.6980  0.3225 -0.0673
  128MOL    H5023164   6.496   6.218   7.340  0.8221 -1.5454 -0.9761
  128MOL    H5123165   6.633   6.170   7.255 -1.1749  1.2664 -1.3820
  128MOL    H5223166   6.614   6.341   7.508 -0.2217 -0.0543  0.0515
  128MOL    H5323167   6.564   6.145   7.574 -0.9699 -1.9026 -0.3803
  128MOL    H5423168   6.688   6.050   7.481 -0.3307 -0.3067  0.9283
  128MOL    H5523169   6.723   6.150   7.637 -0.9160 -2.3309  0.4709
  128MOL    C5623170   6.827   6.298   7.433  0.0134 -0.5146  0.4817
  128MOL    C5723171   6.862   6.442   7.473 -0.5141 -0.0809 -0.2619
  128MOL    C5823172   6.852   6.478   7.622  0.5415 -0.7859  0.0364
  128MOL    H5923173   6.902   6.235   7.481  1.0985 -0.4581 -1.1052
  128MOL    H6023174   6.848   6.282   7.328  0.5687 -2.8583  0.9192
  128MOL    H6123175   6.782   6.491   7.418 -0.5986 -1.4170 -1.3585
  128MOL    H6223176   6.921   6.416   7.679  2.5027 -1.3200 -2.7999
  128MOL    H6323177   6.859   6.584   7.646 -0.3097 -1.2707  2.5601
  128MOL    H6423178   6.753   6.455   7.661  1.3832 -0.5518  2.3946
  128MOL    C6523179   6.992   6.477   7.406 -0.3349 -0.3373  0.0013
  128MOL    C6623180   7.034   6.629   7.412 -0.2721  0.4877  0.3151
  128MOL    C6723181   7.185   6.646   7.388 -0.8656  0.3213 -0.0663
  128MOL    H6823182   7.069   6.409   7.442 -2.0400 -2.2377  0.1167
  128MOL    H6923183   7.002   6.447   7.301 -1.7255  2.7419 -1.0654
  128MOL    H7023184   7.009   6.659   7.514 -0.5812 -1.2915  0.7781
  128MOL    H7123185   7.211   6.626   7.284  1.3116  0.8838  0.3266
  128MOL    H7223186   7.213   6.751   7.397  2.9512 -0.4228 -2.0722
  128MOL    H7323187   7.243   6.585   7.458 -0.5997  0.5626 -0.0741
  128MOL    C7423188   6.949   6.719   7.317  0.5718 -0.5710 -0.1969
  128MOL    C7523189   6.894   6.860   7.368 -0.2959  0.1769 -0.0069
  128MOL    C7623190   7.019   6.952   7.382  0.3019  0.5046 -0.2907
  128MOL    H7723191   6.989   6.735   7.216  1.0526  0.5279  0.1563
  128MOL    H7823192   6.858   6.663   7.295 -0.4108  0.2083  1.7973
  128MOL    H7923193   6.842   6.856   7.463 -0.5580 -1.5912 -0.2087
  128MOL    H8023194   7.083   6.953   7.294 -1.4475  1.6602 -1.5873
  128MOL    H8123195   6.984   7.048   7.420  1.1851  1.0339 -0.7938
  128MOL    H8223196   7.086   6.909   7.457  2.3626 -2.0598 -3.4736
  128MOL    C8323197   6.796   6.915   7.266  0.2644 -0.0763 -0.5006
  128MOL    C8423198   6.649   6.864   7.259  0.2216  0.2336  0.2582
  128MOL    C8523199   6.583   6.885   7.392  0.4965  0.1144  0.4750
  128MOL    H8623200   6.779   7.020   7.287 -1.2258 -0.0952 -1.4958
  128MOL    H8723201   6.836   6.921   7.165 -1.0321  0.4241 -1.0038
  128MOL    H8823202   6.653   6.756   7.246  1.2533  0.1823  0.9028
  128MOL    H8923203   6.482   6.845   7.384  0.5905  0.5484 -3.8738
  128MOL    H9023204   6.626   6.835   7.478  2.2556  0.3197 -0.2743
  128MOL    H9123205   6.576   6.993   7.405  1.2454  0.4803 -1.9151
  128MOL    C9223206   6.580   6.937   7.138 -0.2757  0.1113  0.6385
  128MOL    C9323207   6.431   6.896   7.116 -0.2764 -0.1728  0.0918
  128MOL    C9423208   6.337   6.986   7.193 -0.0305  0.4284 -0.8043
  128MOL    H9523209   6.595   7.045   7.147 -1.5567  0.3516 -0.0263
  128MOL    H9623210   6.644   6.904   7.057  1.8789 -0.0892  2.3581
  128MOL    H9723211   6.416   6.792   7.144  0.1952 -0.1514  0.4384
  128MOL    H9823212   6.243   6.931   7.187  0.4914 -0.4785 -0.7487
  128MOL    H9923213   6.359   7.023   7.293  0.3505  2.2193 -1.5268
  128MOL   H10023214   6.320   7.082   7.145  2.9711  0.9912 -0.8121
  128MOL   C10123215   6.407   6.904   6.968 -0.1370 -0.1274 -0.3009
  128MOL   C10223216   6.264   6.860   6.920  0.5029  0.1322 -0.2755
  128MOL   C10323217   6.232   6.909   6.778 -0.3752 -0.7101  0.3511
  128MOL   H10423218   6.425   7.004   6.928  0.3830  0.2661  0.8770
  128MOL   H10523219   6.475   6.835   6.918 -1.5458 -0.9097 -1.1498
  128MOL   H10623220   6.204   6.927   6.982  1.5715  1.8094 -1.0042
  128MOL   H10723221   6.129   6.892   6.745 -0.8850 -0.5968  1.8391
  128MOL   H10823222   6.230   7.017   6.760  0.9328 -0.8835 -0.8965
  128MOL   H10923223   6.294   6.845   6.716  0.6759 -1.8276  2.5307
  128MOL   C11023224   6.250   6.705   6.940  0.5941 -0.1199  0.3794
  128MOL   C11123225   6.107   6.659   6.903 -0.5725  0.1431 -0.2933
  128MOL   C11223226   6.090   6.595   6.766  0.0900 -0.6392  0.0521
  128MOL   H11323227   6.326   6.637   6.901 -0.5333 -1.6483  0.7766
  128MOL   H11423228   6.266   6.684   7.046  2.1622  0.7807  0.3433
  128MOL   H11523229   6.043   6.747   6.908  0.1413  0.6389  0.1806
  128MOL   H11623230   6.138   6.664   6.696 -3.1895  1.5431 -0.1434
  128MOL   H11723231   6.160   6.512   6.769 -0.4844 -1.0928  1.1981
  128MOL   H11823232   5.986   6.572   6.743 -0.6562  0.6703  1.9690
  128MOL   C11923233   6.050   6.567   7.005  0.3316 -0.1540 -0.2287
  128MOL   C12023234   6.003   6.638   7.134  0.2874  0.0621 -0.0957
  128MOL   C12123235   5.864   6.698   7.108 -1.1392  0.3333  0.3087
  128MOL   H12223236   5.966   6.513   6.961 -1.1424  0.8264  1.2970
  128MOL   H12323237   6.119   6.487   7.031  2.1309  0.1097 -3.8434
  128MOL   H12423238   6.077   6.717   7.148 -0.7061  0.8079  1.0697
  128MOL   H12523239   5.856   6.767   7.192 -3.2917  0.5535 -0.0438
  128MOL   H12623240   5.853   6.758   7.018 -0.7406  0.8864  0.6241
  128MOL   H12723241   5.783   6.625   7.110 -0.3832 -0.5615 -0.8770
  128MOL   C12823242   6.015   6.551   7.267 -0.4555  0.4330 -0.6350
  128MOL   C12923243   5.993   6.631   7.405  0.2812 -0.2326 -0.2708
  128MOL   C13023244   5.952   6.535   7.513  0.7905 -0.4578 -0.1918
  128MOL   H13123245   5.948   6.465   7.266 -0.1720  0.1685  1.3571
  128MOL   H13223246   6.115   6.510   7.271 -0.7656 -0.1827  2.6305
  128MOL   H13323247   5.907   6.694   7.384 -0.3648 -0.6152  1.2039
  128MOL   H13423248   5.933   6.586   7.607  0.4041 -2.2912  0.7325
  128MOL   H13523249   5.853   6.495   7.490 -0.7044  1.7930  2.0406
  128MOL   H13623250   6.027   6.456   7.520 -0.6245 -1.7013  1.5969
  128MOL   C13723251   6.109   6.725   7.451  0.7191  0.2292  0.3129
  128MOL   C13823252   6.082   6.836   7.553  0.4645 -0.3869 -0.7900
  128MOL   C13923253   6.133   6.793   7.692 -0.2344 -0.4284  0.5321
  128MOL   H14023254   6.192   6.663   7.488  0.2741 -0.7915 -0.3876
  128MOL   H14123255   6.138   6.773   7.358  1.5343  1.5928  1.2537
  128MOL   H14223256   5.974   6.849   7.559  0.4630 -0.9381  0.6886
  128MOL   H14323257   6.237   6.815   0.016  0.2000  0.1082 -1.9664
  128MOL   H14423258   6.089   6.861   0.068 -0.6737  1.1333 -1.1308
  128MOL   H14523259   6.116   6.689   0.020 -1.1888 -0.3917  0.0784
  128MOL   C14623260   6.149   6.962   7.508 -0.7155 -0.1099 -0.5180
  128MOL   C14723261   6.146   7.089   7.598  0.5585  0.0627 -0.8603
  128MOL   C14823262   6.263   7.173   7.540 -0.4343  0.2421 -0.3095
  128MOL   H14923263   6.257   6.946   7.510 -0.7491 -0.3039  2.4924
  128MOL   H15023264   6.123   6.988   7.406  1.2064 -1.3245 -1.3424
  128MOL   H15123265   6.181   7.058   7.696 -0.7118  0.2977 -0.3234
  128MOL   H15223266   6.259   7.275   7.576  0.1192  0.4449 -0.8072
  128MOL   H15323267   6.367   7.150   7.565  0.2090  0.3093 -2.7508
  128MOL   H15423268   6.250   7.176   7.432  1.5205 -0.7328 -0.5912
  128MOL   C15523269   6.007   7.149   7.616 -0.1374 -0.2191  0.0871
  128MOL   C15623270   5.914   7.085   0.029  0.2488  0.2658 -0.3729
  128MOL   C15723271   5.977   7.094   0.173  0.1694 -0.0657  0.7459
  128MOL   H15823272   6.012   7.257   7.631  1.4820 -0.0519 -1.4977
  128MOL   H15923273   5.962   7.132   7.518  0.5569 -0.0061 -0.2704
  128MOL   H16023274   5.899   6.984   7.688 -1.0723 -0.0247  0.8245
  128MOL   H16123275   5.900   7.097   0.250 -0.1639 -0.0560  0.4141
  128MOL   H16223276   6.049   7.016   0.197  1.5098  0.4236 -1.5058
  128MOL   H16323277   6.026   7.190   0.188 -1.5213  0.9393  0.0327
  128MOL   C16423278   5.779   7.160   0.029  0.1489  0.8910  0.0720
  128MOL   C16523279   5.707   7.176   7.594 -0.3140  0.1482 -0.0461
  128MOL   C16623280   5.673   7.036   7.538 -0.0420  0.0066 -0.1760
  128MOL   H16723281   5.710   7.108   0.095  0.5173  0.7439  0.3477
  128MOL   H16823282   5.798   7.248   0.091  0.6434  0.6094  0.3327
  128MOL   H16923283   5.762   7.239   7.525 -1.0244 -2.3251 -2.9800
  128MOL   H17023284   5.604   6.979   7.600  0.7105  0.9336  1.5563
  128MOL   H17123285   5.628   7.043   7.439  2.5880  0.0876 -1.4094
  128MOL   H17223286   5.761   6.971   7.533  1.3685  1.9404 -0.9452
  128MOL   C17323287   5.577   7.251   7.606  0.7342  0.5245  0.4887
  128MOL   C17423288   5.585   7.395   7.662  0.2489 -0.0040 -0.7103
  128MOL   C17523289   5.448   7.467   7.645  0.6098  0.9777 -0.3871
  128MOL   H17623290   5.536   7.251   7.505 -0.0209  4.4001  0.6957
  128MOL   H17723291   5.513   7.192   7.671  2.0795  0.4680  1.7691
  128MOL   H17823292   5.671   7.460   7.644  1.4658 -1.1689  0.8033
  128MOL   H17923293   5.464   7.551   0.015 -0.2978  0.5988  0.3084
  128MOL   H18023294   5.425   7.500   7.544 -1.7712 -1.9512 -0.8855
  128MOL   H18123295   5.365   7.401   7.671  0.0735  1.6669 -0.3376
  128MOL   H18223296   5.595   7.370   0.070 -1.0517  0.8721 -0.3633
  129MOL     C123297   2.937   1.977   3.391 -0.3040  0.3033  0.0444
  129MOL     C223298   2.946   1.832   3.342  0.4198  0.1184  0.3024
  129MOL     C323299   2.831   1.746   3.404 -0.0061  0.6167 -0.0863
  129MOL     H423300   2.896   1.988   3.491 -0.4706  0.8338 -0.0825
  129MOL     H523301   2.877   2.041   3.327 -1.7053 -0.0022  1.0307
  129MOL     H623302   3.025   1.781   3.397  0.2582 -0.0453  0.3843
  129MOL     H723303   2.736   1.786   3.369 -0.2564  0.4358  0.3978
  129MOL     H823304   2.842   1.643   3.371  2.8883  0.5412  0.9880
  129MOL     H923305   2.838   1.744   3.513  1.0432  0.9080 -0.1360
  129MOL    H1023306   3.036   2.022   3.385  0.5612 -1.7640 -2.1006
  129MOL    C1123307   2.958   1.834   3.191  0.4676 -0.4549 -0.1208
  129MOL    C1223308   3.076   1.914   3.133 -0.2340 -0.1601  0.1671
  129MOL    C1323309   3.200   1.835   3.141  0.1642  0.7175 -0.1305
  129MOL    H1423310   2.968   1.729   3.162  0.2334 -0.5393  0.1004
  129MOL    H1523311   2.863   1.877   3.160  1.3461  2.1703  0.6943
  129MOL    H1623312   3.095   2.009   3.183 -2.1535  0.2589  0.1353
  129MOL    H1723313   3.286   1.891   3.105  1.8290 -0.8751  1.2708
  129MOL    H1823314   3.206   1.811   3.247 -0.5483  2.2194  0.2636
  129MOL    H1923315   3.189   1.739   3.090 -2.2973 -0.5720  2.7077
  129MOL    C2023316   3.061   1.943   2.978 -0.4093 -0.0757 -0.5387
  129MOL    C2123317   3.155   2.047   2.899  1.2719  0.1135 -0.0201
  129MOL    C2223318   3.154   2.017   2.746  0.0585  0.4574 -0.9871
  129MOL    H2323319   3.070   1.849   2.924 -1.5137 -0.0542 -0.7710
  129MOL    H2423320   2.960   1.976   2.955 -0.5424  1.3305  1.8905
  129MOL    H2523321   3.258   2.023   2.926  1.3333 -0.2047 -0.5277
  129MOL    H2623322   3.059   1.977   2.711  0.3817 -0.8746 -0.3681
  129MOL    H2723323   3.201   2.092   2.682  0.5061  1.7824  0.8354
  129MOL    H2823324   3.221   1.931   2.748  1.5163  1.6138  1.4836
  129MOL    C2923325   3.120   2.195   2.927 -0.6269  1.3504 -0.1692
  129MOL    C3023326   3.183   2.314   2.857  0.7029 -0.4884  0.0790
  129MOL    C3123327   3.127   2.443   2.917  0.1696 -0.7057  0.1291
  129MOL    H3223328   3.013   2.215   2.921 -0.7297  1.0263  0.5141
  129MOL    H3323329   3.137   2.199   3.035  0.9364  0.0640 -0.3428
  129MOL    H3423330   3.155   2.307   2.752  0.4559 -1.9301  0.2345
  129MOL    H3523331   3.177   2.525   2.867  1.5767 -1.4693  0.2721
  129MOL    H3623332   3.021   2.454   2.894  0.1069 -1.7002 -0.0597
  129MOL    H3723333   3.147   2.468   3.021  1.9083 -0.0113 -0.3519
  129MOL    C3823334   3.333   2.304   2.868  0.6661 -0.6643 -0.6971
  129MOL    C3923335   3.403   2.405   2.773  0.5410  0.5882 -0.5479
  129MOL    C4023336   3.364   2.428   2.624  0.7990 -0.6890 -0.2861
  129MOL    H4123337   3.372   2.298   2.970 -3.1123 -1.5042  0.7749
  129MOL    H4223338   3.357   2.200   2.843  2.1962 -1.0993  2.2854
  129MOL    H4323339   3.493   2.349   2.748  0.1116 -1.8390  3.0209
  129MOL    H4423340   3.276   2.493   2.619  0.8969 -0.4468  1.0639
  129MOL    H4523341   3.446   2.468   2.565 -0.0336  1.0695 -0.2987
  129MOL    H4623342   3.323   2.339   2.577  0.7535 -0.7240 -0.1815
  129MOL    C4723343   3.443   2.538   2.838  0.3450  0.3362  0.1915
  129MOL    C4823344   3.597   2.570   2.840 -0.8949 -0.9200 -0.5187
  129MOL    C4923345   3.618   2.721   2.861 -0.0665  0.4992 -0.2201
  129MOL    H5023346   3.405   2.619   2.775  2.0607  1.2274  0.2669
  129MOL    H5123347   3.392   2.549   2.933 -0.3062  0.9301 -0.2221
  129MOL    H5223348   3.639   2.558   2.740  1.1991  2.3435 -0.1086
  129MOL    H5323349   3.725   2.745   2.869  0.4202 -1.2495 -1.1564
  129MOL    H5423350   3.568   2.790   2.792  0.4873  2.0931  0.9399
  129MOL    H5523351   3.571   2.762   2.950 -2.1077 -1.0477 -0.5577
  129MOL    C5623352   3.670   2.481   2.957  0.1119 -0.5239 -0.6043
  129MOL    C5723353   3.822   2.511   2.981 -0.8229 -0.1701  0.0531
  129MOL    C5823354   3.864   2.428   3.109 -0.1414  1.2237  0.2280
  129MOL    H5923355   3.620   2.502   3.052  2.6597 -3.5815  1.5236
  129MOL    H6023356   3.666   2.375   2.931  0.9353 -0.7006 -0.0541
  129MOL    H6123357   3.847   2.617   2.993  2.0773 -0.9708  1.4969
  129MOL    H6223358   3.957   2.460   3.157 -0.1749 -0.1265  1.2172
  129MOL    H6323359   3.786   2.444   3.184 -0.3429 -0.1295  0.3137
  129MOL    H6423360   3.858   2.322   3.088 -4.6071  1.6577 -1.2242
  129MOL    C6523361   3.910   2.461   2.861 -0.1362  0.2728 -0.5173
  129MOL    C6623362   4.065   2.453   2.885  0.2414  0.3834 -0.0424
  129MOL    C6723363   4.128   2.374   2.765  0.2981  0.6232  0.3767
  129MOL    H6823364   3.884   2.356   2.849 -0.3716  0.1749  0.7644
  129MOL    H6923365   3.883   2.515   2.770 -0.5980 -0.5270 -0.8654
  129MOL    H7023366   4.086   2.399   2.978 -1.9145 -0.1682  0.1664
  129MOL    H7123367   4.080   2.276   2.767 -0.5730  1.0313 -0.0468
  129MOL    H7223368   4.097   2.414   2.668 -0.7313  0.4335  0.6221
  129MOL    H7323369   4.236   2.363   2.774  0.0325 -2.2703  0.6043
  129MOL    C7423370   4.119   2.599   2.896 -0.5617  0.1182  0.0622
  129MOL    C7523371   4.274   2.613   2.921 -0.5159 -0.7089  0.2478
  129MOL    C7623372   4.312   2.760   2.880 -0.3219 -0.8130 -0.0393
  129MOL    H7723373   4.095   2.649   2.802  0.1276 -0.5324 -0.4702
  129MOL    H7823374   4.067   2.652   2.975 -0.2289 -0.3898  0.6272
  129MOL    H7923375   4.329   2.556   2.846 -0.5559 -0.3136 -0.0851
  129MOL    H8023376   4.417   2.774   2.903 -0.8766 -1.0295  2.7888
  129MOL    H8123377   4.297   2.761   2.772  3.1644 -1.9178 -0.5873
  129MOL    H8223378   4.255   2.833   2.937 -0.1787 -1.4053  0.8718
  129MOL    C8323379   4.317   2.580   3.071 -0.6771  0.2757 -0.6689
  129MOL    C8423380   4.351   2.431   3.091 -0.0774  0.0178  0.5498
  129MOL    C8523381   4.479   2.397   3.009  0.1334  0.8416  0.3935
  129MOL    H8623382   4.404   2.640   3.099 -1.1277  1.2368 -1.2719
  129MOL    H8723383   4.244   2.632   3.134 -0.9145 -1.1390  0.2312
  129MOL    H8823384   4.280   2.361   3.047  1.4995  0.3956 -2.7432
  129MOL    H8923385   4.553   2.476   3.023  2.2845 -0.6498 -1.9146
  129MOL    H9023386   4.529   2.303   3.034  0.7993  1.3374  0.9254
  129MOL    H9123387   4.464   2.388   2.901 -0.9879 -0.8332  0.6738
  129MOL    C9223388   4.369   2.398   3.241 -0.6621 -0.2574  0.4268
  129MOL    C9323389   4.240   2.393   3.321 -0.2919 -0.8291  1.4055
  129MOL    C9423390   4.174   2.262   3.294  0.8267  0.3215  0.2462
  129MOL    H9523391   4.424   2.305   3.259 -1.4563 -0.5126  1.5267
  129MOL    H9623392   4.437   2.476   3.277  2.3303 -0.8796 -3.4406
  129MOL    H9723393   4.167   2.467   3.289 -0.8147 -0.5453  3.1844
  129MOL    H9823394   4.153   2.239   3.190  0.1557 -1.7249  0.7989
  129MOL    H9923395   4.229   2.170   3.316 -1.5166 -1.3413 -0.6306
  129MOL   H10023396   4.079   2.247   3.347 -0.1998  0.6731 -1.4752
  129MOL   C10123397   4.276   2.425   3.467 -0.1392 -0.2814 -0.1329
  129MOL   C10223398   4.161   2.425   3.572  0.2986 -0.7819 -0.2602
  129MOL   C10323399   4.213   2.355   3.696  0.3370 -0.5208  0.7879
  129MOL   H10423400   4.348   2.349   3.497  0.2275 -0.5398 -1.6303
  129MOL   H10523401   4.337   2.515   3.480  1.8914 -1.0709 -3.5040
  129MOL   H10623402   4.071   2.371   3.543  0.3738 -1.3399  0.5440
  129MOL   H10723403   4.241   2.253   3.669 -0.7560 -0.4138 -0.7544
  129MOL   H10823404   4.307   2.406   3.721 -1.0042  1.8820  1.0455
  129MOL   H10923405   4.149   2.343   3.784  1.2554  0.1319  1.5669
  129MOL   C11023406   4.126   2.570   3.599 -0.5123  0.0027  0.4166
  129MOL   C11123407   4.058   2.646   3.478 -0.2128 -0.9062  0.0820
  129MOL   C11223408   3.930   2.579   3.425  0.0414  0.1800  0.0800
  129MOL   H11323409   4.059   2.584   3.684 -1.8910 -1.8960 -0.3291
  129MOL   H11423410   4.219   2.612   3.638  0.0404  0.1169 -1.0061
  129MOL   H11523411   4.130   2.647   3.396 -0.8574 -1.1521 -0.4906
  129MOL   H11623412   3.944   2.474   3.398 -1.2781  0.4477 -1.7746
  129MOL   H11723413   3.846   2.568   3.494 -0.3114 -0.9424 -0.5162
  129MOL   H11823414   3.898   2.633   3.335 -1.6378 -0.1418  0.4559
  129MOL   C11923415   4.030   2.789   3.528 -0.1777 -0.1178 -0.3359
  129MOL   C12023416   4.160   2.874   3.544  0.0707  0.4586 -0.3204
  129MOL   C12123417   4.210   2.921   3.408 -0.0541 -0.2604  0.2762
  129MOL   H12223418   3.968   2.844   3.456  0.2076 -1.1875 -1.4982
  129MOL   H12323419   3.973   2.796   3.620  1.2764  0.2991  0.5362
  129MOL   H12423420   4.246   2.827   3.591  0.9527  2.2192 -0.1085
  129MOL   H12523421   4.126   2.954   3.347 -1.5967  1.2068  3.0984
  129MOL   H12623422   4.284   2.998   3.430  0.6272 -1.0824  0.9225
  129MOL   H12723423   4.264   2.844   3.353 -0.1684  1.3262 -2.1043
  129MOL   C12823424   4.125   2.994   3.635  0.6020  0.6228  0.0746
  129MOL   C12923425   4.157   2.975   3.787 -0.0705 -0.3411  0.3791
  129MOL   C13023426   4.302   2.924   3.812 -0.4519 -0.8234 -0.2375
  129MOL   H13123427   4.173   3.082   3.594 -2.2960  2.5449  0.6422
  129MOL   H13223428   4.018   3.012   3.623  0.4226 -0.8996 -0.8712
  129MOL   H13323429   4.081   2.907   3.828  0.7576 -0.5822  1.5316
  129MOL   H13423430   4.328   2.923   3.918  1.0197 -0.3530 -0.5866
  129MOL   H13523431   4.327   2.821   3.789 -2.6325 -2.0009  2.3241
  129MOL   H13623432   4.379   2.980   3.759  0.7014 -4.0643 -2.1157
  129MOL   C13723433   4.147   3.113   3.846 -0.4218 -0.1131 -0.4714
  129MOL   C13823434   4.009   3.175   3.853  0.0806 -0.6044  0.3058
  129MOL   C13923435   3.915   3.092   3.943  0.1183  0.0104 -0.0877
  129MOL   H14023436   4.179   3.118   3.950 -1.3046  5.1488 -0.3007
  129MOL   H14123437   4.216   3.171   3.784  1.1276  0.4751  1.7416
  129MOL   H14223438   3.972   3.177   3.750  0.7697 -0.1118  0.0646
  129MOL   H14323439   3.892   2.987   3.921 -1.2466  0.5229 -1.1535
  129MOL   H14423440   3.946   3.091   4.047 -1.7855 -1.8681  0.4867
  129MOL   H14523441   3.816   3.137   3.947 -1.1088 -2.5979 -0.2430
  129MOL   C14623442   4.023   3.325   3.905  0.1188 -0.2527 -0.1803
  129MOL   C14723443   4.066   3.426   3.804  0.1056 -0.6378 -0.1600
  129MOL   C14823444   3.948   3.489   3.724 -0.8871 -0.2015 -0.8401
  129MOL   H14923445   3.925   3.364   3.934  0.7523  0.9400  0.4028
  129MOL   H15023446   4.089   3.324   3.992 -0.1995 -2.1195  0.0473
  129MOL   H15123447   4.130   3.374   3.733  0.9089  0.8539 -0.5530
  129MOL   H15223448   3.875   3.546   3.782  2.2016  1.5240  1.5652
  129MOL   H15323449   3.981   3.537   3.632  0.6288  0.2502 -0.0779
  129MOL   H15423450   3.882   3.407   3.697 -0.2602 -0.7024 -0.8443
  129MOL   C15523451   4.136   3.544   3.857  0.9364 -0.8778  0.8768
  129MOL   C15623452   4.286   3.519   3.893 -0.4277 -0.1532  0.2166
  129MOL   C15723453   4.376   3.504   3.766 -0.2726 -0.1017  0.5249
  129MOL   H15823454   4.143   3.614   3.774  4.0427 -1.0706  0.9034
  129MOL   H15923455   4.089   3.587   3.946 -1.1149  2.1052 -1.5474
  129MOL   H16023456   4.303   3.424   3.944 -1.8923 -1.4410 -1.6133
  129MOL   H16123457   4.473   3.551   3.783 -0.7395 -0.4141  4.4339
  129MOL   H16223458   4.393   3.402   3.730  1.7829 -0.2125  1.7685
  129MOL   H16323459   4.340   3.560   3.680 -0.4829 -1.0619 -0.0238
  129MOL   C16423460   4.354   3.636   3.974  0.7315 -0.2821 -0.0444
  129MOL   C16523461   4.322   3.644   4.128  0.3692  0.7448  0.0872
  129MOL   C16623462   4.390   3.528   4.205  0.1013 -0.5144 -0.2245
  129MOL   H16723463   4.462   3.626   3.972  0.5459 -2.1683 -1.7007
  129MOL   H16823464   4.340   3.733   3.925  2.2432 -2.0143 -4.1663
  129MOL   H16923465   4.214   3.637   4.144  0.1702 -0.0901 -1.4973
  129MOL   H17023466   4.383   3.536   4.314  1.2410 -0.7284 -0.1235
  129MOL   H17123467   4.353   3.432   4.169 -1.4355 -1.0064  2.5083
  129MOL   H17223468   4.495   3.514   4.180  0.5127 -1.6248  2.0103
  129MOL   C17323469   4.366   3.774   4.176  0.2327 -0.6290 -0.0032
  129MOL   C17423470   4.274   3.814   4.292 -0.0240 -0.0654 -0.9034
  129MOL   C17523471   4.335   3.920   4.372 -0.6669 -0.2917 -0.2740
  129MOL   H17623472   4.474   3.778   4.191  0.1245 -1.3295  1.0231
  129MOL   H17723473   4.336   3.854   4.108  2.5971  0.4121  0.1349
  129MOL   H17823474   4.253   3.732   4.360  2.3880  0.8147  0.9702
  129MOL   H17923475   4.344   4.008   4.309 -1.7123  0.5105  0.6694
  129MOL   H18023476   4.280   3.961   4.456  3.2968  0.7150  1.9755
  129MOL   H18123477   4.437   3.890   4.396 -0.3739  0.1974 -0.9064
  129MOL   H18223478   4.181   3.853   4.250  1.5272  4.9378 -0.0199
  130MOL     C123479   6.883   6.951   0.617 -0.3734  0.3673 -0.5620
  130MOL     C223480   6.768   6.934   0.715  0.0181  0.3161  0.1545
  130MOL     C323481   6.646   7.033   0.688  0.2965 -0.2363 -0.4074
  130MOL     H423482   6.976   6.918   0.662 -0.3040  0.1494 -0.8679
  130MOL     H523483   6.901   7.053   0.582 -1.5870  0.2421 -1.6146
  130MOL     H623484   6.794   6.963   0.817 -1.2009  2.8361 -0.2154
  130MOL     H723485   6.688   7.134   0.681 -0.0046 -0.0523  0.3437
  130MOL     H823486   6.587   7.021   0.598 -0.1560 -0.0485 -0.1412
  130MOL     H923487   6.573   7.028   0.769 -1.6362 -4.0142 -2.2920
  130MOL    H1023488   6.865   6.887   0.531 -2.0907  0.6299 -0.4181
  130MOL    C1123489   6.707   6.797   0.733 -0.0822  0.2433  1.1577
  130MOL    C1223490   6.804   6.678   0.761 -0.0946 -0.2755  0.4755
  130MOL    C1323491   6.875   6.679   0.899 -0.3797  0.7329 -0.7074
  130MOL    H1423492   6.627   6.805   0.807 -0.0865 -2.8738  1.5727
  130MOL    H1523493   6.656   6.779   0.639  1.3984  1.4018  0.1135
  130MOL    H1623494   6.884   6.679   0.687 -0.3384 -1.9551  0.1797
  130MOL    H1723495   6.929   6.587   0.922 -3.9776 -0.7211  2.4261
  130MOL    H1823496   6.937   6.769   0.903 -2.3396  2.0489  0.8494
  130MOL    H1923497   6.791   6.685   0.968 -0.2684 -1.6832 -0.3144
  130MOL    C2023498   6.734   6.547   0.736 -0.2563  0.2378  0.2777
  130MOL    C2123499   6.743   6.488   0.585  0.0853 -0.1182 -0.3308
  130MOL    C2223500   6.684   6.585   0.477  0.1948  0.2492  0.3937
  130MOL    H2323501   6.769   6.473   0.807 -1.5475  0.4417  1.1384
  130MOL    H2423502   6.632   6.539   0.773 -0.6358  1.5623 -0.4225
  130MOL    H2523503   6.698   6.389   0.587  3.5936 -1.8482 -2.3943
  130MOL    H2623504   6.665   6.543   0.378  0.1561  1.7148 -0.2305
  130MOL    H2723505   6.585   6.619   0.508  1.1025  2.8504  0.5558
  130MOL    H2823506   6.746   6.673   0.459 -2.3944  2.0714  0.1565
  130MOL    C2923507   6.893   6.449   0.553 -0.0920  0.9235  0.2713
  130MOL    C3023508   6.918   6.366   0.419  0.1361  0.4839  0.6920
  130MOL    C3123509   6.936   6.463   0.295 -0.0811 -0.2916 -0.0707
  130MOL    H3223510   6.951   6.541   0.553 -1.3425  1.7130  0.7319
  130MOL    H3323511   6.930   6.391   0.638  1.0616  0.6617 -0.3955
  130MOL    H3423512   6.826   6.310   0.404 -1.5543  3.4746 -0.5963
  130MOL    H3523513   6.871   6.412   0.223  0.3033 -2.0920  0.8410
  130MOL    H3623514   6.904   6.565   0.316 -1.5487 -1.5029  3.9345
  130MOL    H3723515   7.034   6.475   0.250  0.3573  2.7819  1.5737
  130MOL    C3823516   7.039   6.277   0.434  0.5392 -0.1811 -1.1955
  130MOL    C3923517   7.061   6.179   0.317  0.6968  0.3866  1.3375
  130MOL    C4023518   7.195   6.112   0.333 -0.3595 -0.6508 -0.0707
  130MOL    H4123519   7.123   6.343   0.452 -0.5592  1.4881 -2.0640
  130MOL    H4223520   7.037   6.227   0.531 -1.7114 -0.2667 -1.2448
  130MOL    H4323521   7.067   6.248   0.232 -1.9101 -0.1759  0.6808
  130MOL    H4423522   7.204   6.059   0.429  3.6809  0.0447  0.0088
  130MOL    H4523523   7.229   6.046   0.253  2.8537  1.5350 -0.6055
  130MOL    H4623524   7.269   6.191   0.334 -2.2172  1.1343 -1.2390
  130MOL    C4723525   6.946   6.080   0.303  0.0017  0.1104  0.3115
  130MOL    C4823526   6.964   5.981   0.188  0.6301 -0.1906 -0.6252
  130MOL    C4923527   6.844   5.888   0.188 -0.1225  0.5385 -0.0199
  130MOL    H5023528   6.939   6.020   0.394 -1.0535  0.0204  0.1780
  130MOL    H5123529   6.856   6.138   0.281 -0.5513 -0.7816  0.2010
  130MOL    H5223530   7.042   5.915   0.224 -0.5305 -0.1935  2.0811
  130MOL    H5323531   6.871   5.788   0.154  0.8886  0.5659  0.6887
  130MOL    H5423532   6.823   5.872   0.294 -0.6725 -0.6850 -0.3107
  130MOL    H5523533   6.751   5.925   0.145 -1.2696 -2.1693  0.0494
  130MOL    C5623534   6.988   6.034   0.044  0.0055 -0.1415 -0.5876
  130MOL    C5723535   7.034   5.918   7.650  0.0168 -0.1405 -0.3855
  130MOL    C5823536   6.988   5.947   7.509  0.0765 -0.0308  0.3356
  130MOL    H5923537   6.890   6.059   0.004  1.1943  3.4862 -1.3479
  130MOL    H6023538   7.055   6.120   0.043  0.0189 -0.1098  1.0814
  130MOL    H6123539   6.994   5.823   7.686 -0.8979  1.3072  2.5759
  130MOL    H6223540   6.882   5.950   7.488 -0.1429  2.3439  1.5345
  130MOL    H6323541   7.022   6.050   7.495  0.6525 -0.0866  1.2276
  130MOL    H6423542   7.034   5.875   7.441  0.4799 -1.2024  1.8269
  130MOL    C6523543   7.184   5.910   7.664 -0.2186  0.0212 -0.2413
  130MOL    C6623544   7.244   5.774   7.603 -0.8051 -0.2169  0.1003
  130MOL    C6723545   7.386   5.787   7.550 -0.2246 -0.4582  0.2892
  130MOL    H6823546   7.221   5.995   7.605 -1.1679  1.7474  1.5933
  130MOL    H6923547   7.217   5.919   0.070  1.4595 -2.0477 -0.5597
  130MOL    H7023548   7.188   5.750   7.513  0.4929 -2.5661 -0.1174
  130MOL    H7123549   7.396   5.862   7.471 -2.2840 -0.3023  0.1645
  130MOL    H7223550   7.449   5.814   7.635  0.5688  2.6352 -1.2039
  130MOL    H7323551   7.433   5.699   7.507  0.4768  0.0236  0.0550
  130MOL    C7423552   7.238   5.658   0.003 -0.2733  0.1780 -0.5480
  130MOL    C7523553   7.247   5.517   7.638 -0.3164  0.1075 -0.0389
  130MOL    C7623554   7.323   5.418   0.037 -0.4440  0.2147  0.5431
  130MOL    H7723555   7.324   5.659   0.069 -1.5903 -1.2209  1.2115
  130MOL    H7823556   7.158   5.668   0.076 -0.4994 -2.8280 -0.3404
  130MOL    H7923557   7.315   5.515   7.553 -1.5108  1.8415 -1.0482
  130MOL    H8023558   7.421   5.455   0.067 -1.0050  1.9626  0.2373
  130MOL    H8123559   7.256   5.402   0.121 -2.1794 -2.0019 -1.2042
  130MOL    H8223560   7.325   5.316   7.695 -1.0279  0.8963 -1.2522
  130MOL    C8323561   7.110   5.463   7.594 -0.0666  0.4980  0.2733
  130MOL    C8423562   7.118   5.341   7.492  0.1015  0.3485  0.4631
  130MOL    C8523563   6.986   5.263   7.487  0.3005  0.4740 -0.9143
  130MOL    H8623564   7.053   5.429   7.681  3.3302  0.8357  2.7326
  130MOL    H8723565   7.039   5.539   7.562  0.1243 -0.3113 -2.2341
  130MOL    H8823566   7.200   5.280   7.529  1.5072  2.5813  1.0828
  130MOL    H8923567   6.946   5.258   7.589 -0.0071  0.9897 -1.0088
  130MOL    H9023568   6.909   5.307   7.424  1.2957  1.1408 -1.6797
  130MOL    H9123569   7.015   5.167   7.444  1.0538  0.1886  0.1938
  130MOL    C9223570   7.148   5.388   7.351  0.4518 -0.0966  0.1690
  130MOL    C9323571   7.234   5.292   7.268  0.1291 -0.0888 -0.6295
  130MOL    C9423572   7.222   5.330   7.110  0.0231 -0.1915  0.1303
  130MOL    H9523573   7.055   5.404   7.297  0.7361  0.5259 -0.1354
  130MOL    H9623574   7.188   5.489   7.360 -1.5477  0.8677 -1.3521
  130MOL    H9723575   7.185   5.195   7.274  0.6318 -0.2039  1.8670
  130MOL    H9823576   7.248   5.250   7.041  2.7195  2.0350 -1.4965
  130MOL    H9923577   7.115   5.344   7.089  0.1008 -0.6223 -0.5606
  130MOL   H10023578   7.269   5.423   7.080  1.9628 -1.6016 -1.3244
  130MOL   C10123579   7.382   5.288   7.314  0.1833  0.0980 -0.1374
  130MOL   C10223580   7.450   5.155   7.263 -0.0697  0.0869 -0.3126
  130MOL   C10323581   7.554   5.192   7.154 -0.2068 -0.2096 -0.2499
  130MOL   H10423582   7.444   5.375   7.297  1.4860 -0.7745  0.0307
  130MOL   H10523583   7.386   5.286   7.423  0.8284  1.4898 -0.1265
  130MOL   H10623584   7.380   5.094   7.206  1.6348 -1.7654 -0.4802
  130MOL   H10723585   7.603   5.106   7.108  0.9767 -0.6824  1.8400
  130MOL   H10823586   7.505   5.242   7.070  2.5190 -1.3233 -2.6220
  130MOL   H10923587   7.637   5.253   7.189 -0.2229 -0.0397 -0.5110
  130MOL   C11023588   7.503   5.075   7.390 -0.0408 -0.2238  0.1026
  130MOL   C11123589   7.398   5.013   7.489 -0.3412  0.1435  0.1747
  130MOL   C11223590   7.305   4.908   7.424  0.2898 -0.6110 -0.0826
  130MOL   H11323591   7.560   4.990   7.353 -1.2902 -1.2827  0.5586
  130MOL   H11423592   7.582   5.130   7.441 -1.4176  1.7191  0.1681
  130MOL   H11523593   7.346   5.100   7.530  0.3162  1.3471 -1.4938
  130MOL   H11623594   7.213   4.899   7.482  1.4598 -2.1956  1.6134
  130MOL   H11723595   7.282   4.949   7.326 -0.7929 -1.2470 -0.1049
  130MOL   H11823596   7.352   4.811   7.411  0.4903 -0.3820 -1.0452
  130MOL   C11923597   7.470   4.958   7.611 -0.6664 -0.2930  0.0062
  130MOL   C12023598   7.382   4.883   0.018  0.1968 -0.6278  0.4210
  130MOL   C12123599   7.475   4.795   0.103  0.0957 -0.1477 -0.0369
  130MOL   H12223600   7.554   4.897   7.578  0.0605  1.7706 -2.1026
  130MOL   H12323601   7.518   5.041   7.663 -3.7984  1.8910 -0.3792
  130MOL   H12423602   7.312   4.812   7.671  0.7941 -2.3027  2.1041
  130MOL   H12523603   7.417   4.734   0.172 -0.4950  1.8483  1.3102
  130MOL   H12623604   7.535   4.734   0.036 -1.6668  1.3099 -3.0188
  130MOL   H12723605   7.529   4.857   0.175  1.5667 -0.8035 -0.5494
  130MOL   C12823606   7.303   4.991   0.097  0.3577 -0.0258 -0.2215
  130MOL   C12923607   7.214   4.942   0.213 -0.0113  0.8772 -0.7497
  130MOL   C13023608   7.162   5.054   0.309  0.1137  0.3566  0.0877
  130MOL   H13123609   7.378   5.059   0.136  0.1163 -0.2436  0.6378
  130MOL   H13223610   7.244   5.046   0.024  0.4801 -0.3351 -0.5516
  130MOL   H13323611   7.275   4.878   0.277 -1.7161 -1.1365 -1.0783
  130MOL   H13423612   7.242   5.126   0.328  0.6523 -0.3163  0.4091
  130MOL   H13523613   7.073   5.101   0.267  0.2224  0.4218 -0.0724
  130MOL   H13623614   7.124   5.009   0.401  1.6712 -1.8258 -0.2948
  130MOL   C13723615   7.091   4.869   0.166  0.1683 -0.2364  0.3473
  130MOL   C13823616   7.016   4.778   0.265 -0.6382  0.2870  0.5231
  130MOL   C13923617   6.885   4.717   0.204 -0.6749  0.1760 -0.4552
  130MOL   H14023618   7.023   4.939   0.120  1.0779  0.8042  0.5706
  130MOL   H14123619   7.107   4.800   0.083 -2.0852  0.7035 -0.8900
  130MOL   H14223620   6.973   4.834   0.348 -1.4754 -0.2047  0.4272
  130MOL   H14323621   6.845   4.772   0.119 -0.8256  2.5984  1.1422
  130MOL   H14423622   6.911   4.616   0.172  1.0367  0.5912 -0.4445
  130MOL   H14523623   6.804   4.722   0.277 -0.5790 -2.6749 -0.1057
  130MOL   C14623624   7.104   4.663   0.327 -0.3702 -0.1278  0.4037
  130MOL   C14723625   7.047   4.580   0.439 -0.5783  0.0234  0.4438
  130MOL   C14823626   7.132   4.454   0.466 -0.5271 -0.0718 -0.7448
  130MOL   H14923627   7.149   4.594   0.255 -1.9177 -2.6373  1.7754
  130MOL   H15023628   7.184   4.713   0.382 -0.4345  0.1791  0.2228
  130MOL   H15123629   6.951   4.548   0.398 -0.1964  1.5462 -1.7469
  130MOL   H15223630   7.240   4.469   0.466 -0.3775 -0.8001  1.9105
  130MOL   H15323631   7.110   4.415   0.566 -0.8780  0.3221 -0.6681
  130MOL   H15423632   7.112   4.380   0.388 -0.5310  0.2580 -1.0551
  130MOL   C15523633   7.040   4.661   0.570  0.0253 -0.2689  0.2161
  130MOL   C15623634   6.946   4.611   0.682  0.8148  0.3487 -1.0985
  130MOL   C15723635   7.001   4.662   0.814  0.6082 -0.4386  0.5718
  130MOL   H15823636   7.140   4.672   0.610 -0.0721 -0.6414  0.5561
  130MOL   H15923637   7.011   4.765   0.553  0.9989  0.0129  0.2758
  130MOL   H16023638   6.961   4.504   0.677  1.9132  0.3474  1.2780
  130MOL   H16123639   7.005   4.771   0.814  0.2575 -0.3998 -2.2742
  130MOL   H16223640   6.940   4.621   0.895  1.3547 -1.2477  0.7260
  130MOL   H16323641   7.105   4.634   0.833  1.1971  1.2421 -0.0658
  130MOL   C16423642   6.801   4.642   0.663 -0.4847  0.1272 -0.2311
  130MOL   C16523643   6.708   4.524   0.626 -0.4207  0.5507 -0.0720
  130MOL   C16623644   6.682   4.436   0.750 -0.0654 -0.8750  0.8133
  130MOL   H16723645   6.758   4.679   0.756  0.8162 -0.2047  0.5213
  130MOL   H16823646   6.795   4.716   0.583  1.4724 -2.6234 -3.0767
  130MOL   H16923647   6.769   4.463   0.560  0.0020 -0.4607  1.2234
  130MOL   H17023648   6.772   4.391   0.793  0.1202 -2.9880 -1.6157
  130MOL   H17123649   6.628   4.486   0.830 -1.9719 -2.7147  0.7041
  130MOL   H17223650   6.606   4.359   0.734 -0.5591 -0.2897  0.2968
  130MOL   C17323651   6.582   4.569   0.558 -0.7335  0.4095  0.1340
  130MOL   C17423652   6.504   4.452   0.488  0.6041 -0.1199  1.0185
  130MOL   C17523653   6.371   4.499   0.430 -0.3265  0.4766 -0.2474
  130MOL   H17623654   6.528   4.615   0.641 -0.8463  2.0313 -0.8270
  130MOL   H17723655   6.611   4.652   0.493  1.5796 -0.0945  0.4881
  130MOL   H17823656   6.477   4.372   0.557 -0.7454 -0.9595 -0.4515
  130MOL   H17923657   6.376   4.573   0.350 -2.3793  0.3865 -0.4918
  130MOL   H18023658   6.330   4.410   0.380  2.7673 -0.6501 -0.9215
  130MOL   H18123659   6.313   4.535   0.514  0.2037  0.9454 -0.0791
  130MOL   H18223660   6.558   4.414   0.401 -1.4833 -0.1568 -0.2938
  131MOL     C123661   2.070   4.134   4.488  0.3710  0.3660  0.1578
  131MOL     C223662   2.102   3.989   4.459  0.3619  0.0836 -0.5219
  131MOL     C323663   2.139   3.962   4.312 -1.0922 -0.5977  0.1438
  131MOL     H423664   2.151   4.203   4.465  0.0217  0.9293  0.6199
  131MOL     H523665   2.040   4.140   4.592 -0.1867 -1.4754  0.1358
  131MOL     H623666   2.018   3.922   4.478 -0.8547  1.3852 -1.3021
  131MOL     H723667   2.237   4.007   4.298 -1.8974  0.7434 -1.3645
  131MOL     H823668   2.146   3.857   4.285  0.6277 -0.1707 -1.1396
  131MOL     H923669   2.069   4.011   4.243 -1.5376 -0.3336  0.7747
  131MOL    H1023670   1.982   4.155   4.427  0.3180 -0.6541 -0.1331
  131MOL    C1123671   2.221   3.933   4.539  0.1728 -0.4030 -0.2625
  131MOL    C1223672   2.223   3.962   4.696 -0.6519  0.1580 -0.2476
  131MOL    C1323673   2.122   3.876   4.767  0.4818  0.3747 -0.3147
  131MOL    H1423674   2.220   3.826   4.521  1.1949 -0.3162 -0.8882
  131MOL    H1523675   2.315   3.957   4.488  0.0666 -0.3201 -0.4185
  131MOL    H1623676   2.195   4.064   4.721  1.1119  0.4217  0.7467
  131MOL    H1723677   2.020   3.884   4.727  0.4637  1.9039  0.0363
  131MOL    H1823678   2.161   3.774   4.758  3.4333  1.3549  0.8471
  131MOL    H1923679   2.126   3.894   4.874  0.0593  0.2325 -0.2731
  131MOL    C2023680   2.367   3.945   4.754 -0.0988  0.2996  0.2929
  131MOL    C2123681   2.461   4.056   4.714  0.1339 -0.3747  0.4019
  131MOL    C2223682   2.438   4.189   4.779 -0.4580  0.0198  0.1273
  131MOL    H2323683   2.364   3.932   4.862 -1.9157  1.3715  0.3901
  131MOL    H2423684   2.400   3.851   4.710 -1.8337 -0.3920  0.4167
  131MOL    H2523685   2.458   4.071   4.606 -0.3838  2.8755  0.8251
  131MOL    H2623686   2.495   4.271   4.734  0.8068 -0.0832  1.4978
  131MOL    H2723687   2.333   4.219   4.772 -1.6262 -3.2585  2.5160
  131MOL    H2823688   2.468   4.181   4.884  0.5644 -2.5113 -0.3498
  131MOL    C2923689   2.606   4.014   4.748  0.2624 -0.5607  0.0429
  131MOL    C3023690   2.676   3.930   4.639  0.0152 -1.2063  0.4561
  131MOL    C3123691   2.728   4.016   4.530 -0.2837 -0.2480  0.3047
  131MOL    H3223692   2.665   4.102   4.770  0.1854 -0.1837 -1.2154
  131MOL    H3323693   2.606   3.957   4.841 -1.0790 -0.3536  0.1804
  131MOL    H3423694   2.609   3.858   4.592 -1.5659  0.2632  0.3745
  131MOL    H3523695   2.651   4.067   4.472 -1.0952  0.7647  2.2082
  131MOL    H3623696   2.797   4.092   4.568 -0.3271  0.2603 -0.6222
  131MOL    H3723697   2.776   3.955   4.453  0.7752  1.4568 -0.4250
  131MOL    C3823698   2.784   3.833   4.697  0.3418 -0.1399  0.0842
  131MOL    C3923699   2.820   3.709   4.610  0.6136  0.9747  0.5154
  131MOL    C4023700   2.957   3.649   4.642  0.0718  0.0783 -0.6877
  131MOL    H4123701   2.867   3.901   4.713  1.0531 -1.1517  0.7925
  131MOL    H4223702   2.763   3.795   4.797 -1.4303  1.9124  0.5250
  131MOL    H4323703   2.830   3.737   4.505 -1.0345  1.3995  0.4594
  131MOL    H4423704   2.960   3.589   4.733  0.2831 -0.0602 -0.7868
  131MOL    H4523705   3.001   3.589   4.562 -0.4138  0.2441 -1.0820
  131MOL    H4623706   3.035   3.724   4.658 -0.6789  0.5751  0.7519
  131MOL    C4723707   2.716   3.592   4.619 -0.6149  0.6662  0.0300
  131MOL    C4823708   2.691   3.506   4.487  0.6188 -0.3291 -0.3122
  131MOL    C4923709   2.807   3.428   4.434  0.1783 -0.5463 -0.0987
  131MOL    H5023710   2.736   3.527   4.704  1.0905 -0.7221 -1.3813
  131MOL    H5123711   2.619   3.635   4.643 -0.6795  0.5659 -0.0500
  131MOL    H5223712   2.671   3.583   4.412 -1.3647  0.5473  1.0689
  131MOL    H5323713   2.905   3.474   4.445 -0.7431  0.8612  2.7685
  131MOL    H5423714   2.818   3.340   4.497 -0.4861 -1.5439 -1.3645
  131MOL    H5523715   2.783   3.396   4.333  1.7935 -0.5700 -0.4863
  131MOL    C5623716   2.573   3.406   4.502 -0.0705 -0.4023 -0.2541
  131MOL    C5723717   2.508   3.363   4.373 -0.5661 -0.2945 -1.0193
  131MOL    C5823718   2.546   3.219   4.336  0.4226 -0.3668  0.8821
  131MOL    H5923719   2.595   3.314   4.557 -0.5467  0.1181  0.8233
  131MOL    H6023720   2.496   3.457   4.560 -1.2598  1.7758 -3.6296
  131MOL    H6123721   2.554   3.430   4.300  1.5931  0.7126  1.2158
  131MOL    H6223722   2.651   3.202   4.314  0.4437 -1.1718  1.5810
  131MOL    H6323723   2.525   3.153   4.420 -1.8681  0.5526  1.0879
  131MOL    H6423724   2.485   3.178   4.256  2.6390 -1.9865 -0.0297
  131MOL    C6523725   2.354   3.378   4.360  0.4506 -0.3682 -0.1567
  131MOL    C6623726   2.284   3.512   4.367 -0.1856  0.2031  0.1134
  131MOL    C6723727   2.362   3.633   4.319 -0.6155  0.2802 -0.4080
  131MOL    H6823728   2.328   3.334   4.264  1.1283  0.2858 -0.6387
  131MOL    H6923729   2.307   3.313   4.434 -2.1161  1.0973 -0.4497
  131MOL    H7023730   2.275   3.535   4.473 -0.6271 -2.5267  0.7096
  131MOL    H7123731   2.315   3.732   4.317  0.7254  0.9011 -1.6383
  131MOL    H7223732   2.454   3.653   4.373 -1.1641  0.3638  0.5160
  131MOL    H7323733   2.383   3.612   4.214  2.6185  1.3086  0.0013
  131MOL    C7423734   2.141   3.514   4.310  0.0880 -0.1113 -0.6241
  131MOL    C7523735   2.031   3.464   4.397  0.2445  0.1943 -0.8217
  131MOL    C7623736   1.959   3.577   4.461  0.3992  1.0228 -0.5026
  131MOL    H7723737   2.113   3.605   4.257  3.1531  1.7906  0.8435
  131MOL    H7823738   2.137   3.448   4.223 -1.7423 -0.3075 -0.4070
  131MOL    H7923739   2.074   3.413   4.483  0.1517  0.4926 -0.6022
  131MOL    H8023740   2.027   3.638   4.521 -0.1449 -0.3257  1.5355
  131MOL    H8123741   1.896   3.633   4.392 -0.2399 -0.5890 -1.2373
  131MOL    H8223742   1.893   3.536   4.538  0.4011 -0.1660 -1.1245
  131MOL    C8323743   1.934   3.365   4.330 -0.0754 -0.3843  0.2394
  131MOL    C8423744   1.833   3.292   4.419  0.0051  0.0029  0.0135
  131MOL    C8523745   1.689   3.340   4.400  0.1827 -0.0929  0.7237
  131MOL    H8623746   1.875   3.403   4.247  0.9954 -0.2031 -0.4328
  131MOL    H8723747   2.001   3.295   4.282  1.5428 -0.0143  1.8767
  131MOL    H8823748   1.851   3.323   4.522 -0.1643 -0.3789  0.1593
  131MOL    H8923749   1.615   3.290   4.461 -0.2291 -1.6947 -1.0443
  131MOL    H9023750   1.688   3.446   4.427 -0.0744  0.6380 -1.9517
  131MOL    H9123751   1.651   3.328   4.298 -0.5495 -0.9781  1.0986
  131MOL    C9223752   1.845   3.136   4.418 -0.6793  0.6580  0.5558
  131MOL    C9323753   1.978   3.074   4.471 -0.5315 -0.9387  0.4956
  131MOL    C9423754   1.994   3.084   4.626 -0.4080 -0.3700  0.0471
  131MOL    H9523755   1.765   3.100   4.483  0.0088 -0.7981  0.6259
  131MOL    H9623756   1.829   3.085   4.323  1.1072  0.9729  0.0615
  131MOL    H9723757   2.052   3.139   4.425 -0.1439 -1.8973 -0.2597
  131MOL    H9823758   2.075   3.020   4.661 -0.9525 -0.3985  1.3156
  131MOL    H9923759   2.031   3.183   4.653  3.7338 -1.0103 -2.9517
  131MOL   H10023760   1.901   3.061   4.678 -0.5068  1.1539  0.5684
  131MOL   C10123761   2.003   2.933   4.413 -0.0840 -0.0962 -0.2840
  131MOL   C10223762   1.907   2.822   4.458 -0.1106  0.5699  0.3032
  131MOL   C10323763   1.839   2.750   4.344 -0.0023  0.5073 -0.3113
  131MOL   H10423764   1.993   2.946   4.305 -0.6783  1.8043 -0.0122
  131MOL   H10523765   2.104   2.892   4.416 -0.8380 -1.9734  0.2589
  131MOL   H10623766   1.829   2.865   4.521 -0.2751 -0.2593  0.6637
  131MOL   H10723767   1.908   2.728   4.262  0.8409  2.1012 -0.0479
  131MOL   H10823768   1.786   2.659   4.373  0.2008  0.3738 -0.3555
  131MOL   H10923769   1.766   2.812   4.292 -0.2944  0.1119 -0.3758
  131MOL   C11023770   1.972   2.719   4.554  0.5952  0.1784 -0.6733
  131MOL   C11123771   1.896   2.649   4.671 -0.8643  0.5080  0.1353
  131MOL   C11223772   1.976   2.531   4.727 -0.0327  0.3576  0.0290
  131MOL   H11323773   2.013   2.647   4.483 -2.2045 -0.1828 -1.9570
  131MOL   H11423774   2.059   2.772   4.594  0.8630 -0.0041 -1.0043
  131MOL   H11523775   1.813   2.615   4.609 -0.4259  0.0686 -0.2139
  131MOL   H11623776   2.050   2.498   4.654  1.9671  2.4021  1.0927
  131MOL   H11723777   2.045   2.566   4.803 -0.7225  0.6826  0.5125
  131MOL   H11823778   1.908   2.451   4.756 -0.0603  0.9949  1.7363
  131MOL   C11923779   1.849   2.748   4.783 -0.0317  0.6698  0.1083
  131MOL   C12023780   1.715   2.688   4.857  0.2362 -0.6872 -0.3893
  131MOL   C12123781   1.722   2.700   5.009 -0.3493 -0.7106  0.5832
  131MOL   H12223782   1.930   2.771   4.851  0.5153 -0.3703 -0.1865
  131MOL   H12323783   1.819   2.839   4.730  1.0982 -0.0104 -1.7265
  131MOL   H12423784   1.701   2.584   4.827  0.3740  0.2167 -3.8084
  131MOL   H12523785   1.701   2.802   5.040  1.8830 -0.2777  0.7457
  131MOL   H12623786   1.656   2.630   5.061 -1.5198 -0.9311 -1.1520
  131MOL   H12723787   1.822   2.670   5.041  0.1659  0.4850  0.1198
  131MOL   C12823788   1.579   2.758   4.807  0.0566  0.1808  0.3303
  131MOL   C12923789   1.543   2.747   4.664 -0.2168  0.1322  0.0163
  131MOL   C13023790   1.502   2.606   4.612  0.3423  0.4487 -0.3415
  131MOL   H13123791   1.504   2.712   4.872  0.0424 -0.5481 -0.1843
  131MOL   H13223792   1.572   2.863   4.834  0.3643  0.4126 -0.4969
  131MOL   H13323793   1.630   2.772   4.603 -0.6994  0.3135 -0.6053
  131MOL   H13423794   1.534   2.582   4.510 -2.2381  1.7199 -1.4930
  131MOL   H13523795   1.551   2.536   4.679 -1.7180  1.4512  2.3148
  131MOL   H13623796   1.395   2.590   4.625  0.4198  0.9786  1.0262
  131MOL   C13723797   1.426   2.849   4.631 -0.7085  0.3159 -0.0128
  131MOL   C13823798   1.390   2.867   4.481 -0.7249  0.6446 -0.1361
  131MOL   C13923799   1.245   2.919   4.481 -0.2953 -0.0211  0.0936
  131MOL   H14023800   1.348   2.812   4.698 -0.9866  2.0226  0.6278
  131MOL   H14123801   1.443   2.951   4.667 -0.8158  0.6060 -0.7747
  131MOL   H14223802   1.392   2.764   4.448  0.8041  0.1419  1.4373
  131MOL   H14323803   1.195   2.930   4.385 -2.3653 -2.1216  0.9001
  131MOL   H14423804   1.182   2.844   4.529 -1.5387  1.6267  1.0971
  131MOL   H14523805   1.236   3.007   4.545 -0.0219  1.2562 -1.5846
  131MOL   C14623806   1.485   2.953   4.402 -0.1899  0.0052 -0.1038
  131MOL   C14723807   1.448   2.957   4.253  0.6502  0.3032  0.7154
  131MOL   C14823808   1.541   3.059   4.176 -0.5588  0.2104  0.2034
  131MOL   H14923809   1.469   3.058   4.430  0.2504  0.7641 -2.5849
  131MOL   H15023810   1.592   2.938   4.416  0.0801  0.8444 -1.2383
  131MOL   H15123811   1.347   2.999   4.246  0.7749  0.4247 -0.3911
  131MOL   H15223812   1.516   3.080   4.072 -0.6325 -2.9858 -0.4865
  131MOL   H15323813   1.540   3.157   4.225  1.7256 -0.8694  2.5282
  131MOL   H15423814   1.647   3.037   4.187 -0.9081 -1.1422  1.0111
  131MOL   C15523815   1.459   2.817   4.183 -1.0173 -0.2461 -0.4873
  131MOL   C15623816   1.317   2.766   4.140  0.0611  0.0223 -0.2442
  131MOL   C15723817   1.237   2.861   4.050 -0.1933 -0.0582  0.1002
  131MOL   H15823818   1.533   2.812   4.103  0.7383  0.2080  1.0965
  131MOL   H15923819   1.491   2.740   4.253 -0.9647 -1.7227 -2.0817
  131MOL   H16023820   1.252   2.742   4.224  1.7542 -2.5598  0.4087
  131MOL   H16123821   1.204   2.951   4.101  2.7372 -0.6462  3.2526
  131MOL   H16223822   1.297   2.914   3.976 -0.5027  0.2665  0.0823
  131MOL   H16323823   1.154   2.815   3.996 -0.8106  2.0345 -0.7820
  131MOL   C16423824   1.330   2.635   4.063  0.0575  0.0162 -0.4530
  131MOL   C16523825   1.391   2.520   4.135  0.4237 -0.3980 -0.4401
  131MOL   C16623826   1.308   2.492   4.263  0.1600 -0.2310 -0.0361
  131MOL   H16723827   1.234   2.597   4.027 -0.6461  0.6846  0.6675
  131MOL   H16823828   1.394   2.661   3.978 -1.0407  1.0954 -0.9778
  131MOL   H16923829   1.488   2.546   4.177 -0.4962 -1.5182  2.5069
  131MOL   H17023830   1.202   2.487   4.241  0.2686  0.5391 -0.7516
  131MOL   H17123831   1.342   2.402   4.314  1.7983  0.6693  0.4955
  131MOL   H17223832   1.310   2.575   4.334 -0.7723  0.0659 -0.3548
  131MOL   C17323833   1.404   2.392   4.058  0.1533  0.6504  0.0741
  131MOL   C17423834   1.493   2.282   4.129  0.1281 -0.7045  0.4999
  131MOL   C17523835   1.549   2.186   4.030 -0.4562 -0.1160  0.1230
  131MOL   H17623836   1.306   2.351   4.035 -0.1941  0.3496  2.0102
  131MOL   H17723837   1.438   2.416   3.957  0.7226 -1.8771 -0.3890
  131MOL   H17823838   1.426   2.226   4.194 -1.2019  0.5603  0.2529
  131MOL   H17923839   1.631   2.235   3.978  1.2283 -1.9279  0.9975
  131MOL   H18023840   1.591   2.097   4.079  0.7599  0.3685 -0.0136
  131MOL   H18123841   1.473   2.160   3.957 -0.4735  1.8931 -0.6086
  131MOL   H18223842   1.569   2.333   4.189 -1.6266  1.0181  1.3011
  132MOL     C123843   1.597   3.506   2.899 -0.2434 -0.8278  0.1479
  132MOL     C223844   1.529   3.584   2.784 -0.3673  0.1068 -0.2670
  132MOL     C323845   1.378   3.576   2.816 -0.4257  0.1436 -0.5798
  132MOL     H423846   1.705   3.503   2.887 -0.0706 -1.5424  1.7167
  132MOL     H523847   1.557   3.405   2.913 -1.5261  0.0194  2.9197
  132MOL     H623848   1.539   3.532   2.689 -0.3418  0.5342 -0.4988
  132MOL     H723849   1.326   3.648   2.753  2.3630  1.3982 -1.5443
  132MOL     H823850   1.333   3.480   2.792 -0.5170  0.5209 -1.9832
  132MOL     H923851   1.361   3.597   2.922 -1.9361 -0.7799 -0.6195
  132MOL    H1023852   1.583   3.565   2.990  0.5249 -3.5584  2.1242
  132MOL    C1123853   1.577   3.732   2.765 -0.4209 -0.1865  0.0247
  132MOL    C1223854   1.725   3.749   2.766  0.0093  0.1225 -0.4343
  132MOL    C1323855   1.783   3.686   2.639 -0.1017 -0.5079  0.2901
  132MOL    H1423856   1.531   3.783   2.680  3.3946  0.3321 -1.8038
  132MOL    H1523857   1.534   3.785   2.850 -0.1564 -2.2584  1.4990
  132MOL    H1623858   1.769   3.698   2.852 -3.0222 -0.1748  1.0163
  132MOL    H1723859   1.787   3.577   2.643 -1.3069 -0.4976  2.1077
  132MOL    H1823860   1.727   3.724   2.553  0.1662 -1.3975 -0.2830
  132MOL    H1923861   1.888   3.714   2.638  0.3107 -2.0001  0.4201
  132MOL    C2023862   1.759   3.892   2.778  0.5741 -0.4913  0.0994
  132MOL    C2123863   1.719   3.976   2.904  0.4330  0.5615 -0.4879
  132MOL    C2223864   1.741   3.892   3.034  0.0180  0.0766  0.1712
  132MOL    H2323865   1.866   3.903   2.759  1.0505 -2.9813  1.1527
  132MOL    H2423866   1.700   3.934   2.696  0.1775  0.5821  0.9291
  132MOL    H2523867   1.613   4.000   2.903  0.0963 -0.8179 -0.1348
  132MOL    H2623868   1.742   3.956   3.121 -1.4010  0.7668 -0.3040
  132MOL    H2723869   1.667   3.811   3.043 -1.7204  1.3458 -2.0133
  132MOL    H2823870   1.836   3.838   3.036  0.2080  0.4602  1.4390
  132MOL    C2923871   1.802   4.108   2.912 -0.0708  0.4687  0.3081
  132MOL    C3023872   1.775   4.199   2.792  0.4191  0.6851  0.1649
  132MOL    C3123873   1.653   4.295   2.825 -0.4170  0.7253 -0.4828
  132MOL    H3223874   1.789   4.158   3.008  3.8618  1.0310  0.6403
  132MOL    H3323875   1.906   4.074   2.914 -0.4713 -0.7666  0.5184
  132MOL    H3423876   1.744   4.141   2.705 -0.1701 -2.2483  2.2414
  132MOL    H3523877   1.639   4.368   2.745  0.6779 -1.3929 -2.6383
  132MOL    H3623878   1.567   4.229   2.825  1.1099 -1.3011 -0.1845
  132MOL    H3723879   1.676   4.337   2.923 -1.2100 -0.9750  0.4528
  132MOL    C3823880   1.892   4.299   2.759  0.1434 -0.2531 -0.5945
  132MOL    C3923881   2.013   4.242   2.687 -0.3852 -0.4555  0.1636
  132MOL    C4023882   1.978   4.153   2.571  0.1705 -0.2952 -0.0482
  132MOL    H4123883   1.853   4.383   2.700 -2.1040 -0.2602  0.7953
  132MOL    H4223884   1.922   4.350   2.850 -1.2924  0.2334 -0.3759
  132MOL    H4323885   2.066   4.172   2.751  0.1507  0.4680  0.7409
  132MOL    H4423886   2.058   4.115   2.507  0.8163  0.5502  0.2471
  132MOL    H4523887   1.931   4.066   2.616 -0.0028  0.5024  1.3274
  132MOL    H4623888   1.897   4.188   2.507  0.0937 -0.6241 -0.1333
  132MOL    C4723889   2.129   4.348   2.651 -0.5681  0.2648 -0.1345
  132MOL    C4823890   2.192   4.429   2.768  0.3692 -0.0792  0.4818
  132MOL    C4923891   2.233   4.342   2.891  0.6611 -0.2756 -0.4322
  132MOL    H5023892   2.201   4.302   2.584 -0.8873  1.6681 -1.4664
  132MOL    H5123893   2.077   4.424   2.592 -2.2537 -1.0832 -0.4391
  132MOL    H5223894   2.119   4.497   2.813 -0.2558 -0.5042  0.1169
  132MOL    H5323895   2.150   4.287   2.935  1.4845 -0.9274  0.3084
  132MOL    H5423896   2.311   4.275   2.856  2.5048  0.5864  1.9120
  132MOL    H5523897   2.275   4.394   2.977  3.9489 -0.2975 -1.9309
  132MOL    C5623898   2.317   4.506   2.725 -0.1118 -0.2080 -0.4255
  132MOL    C5723899   2.294   4.623   2.629  0.1862  0.7780  0.3250
  132MOL    C5823900   2.223   4.741   2.708  0.2602  0.4772  0.3698
  132MOL    H5923901   2.389   4.522   2.805 -1.2493 -1.5038  0.8826
  132MOL    H6023902   2.378   4.436   2.668 -0.2633  0.1223 -0.9999
  132MOL    H6123903   2.220   4.595   2.554  0.7978  1.8205 -0.7004
  132MOL    H6223904   2.124   4.708   2.738  1.1731 -1.3457  1.4620
  132MOL    H6323905   2.270   4.760   2.805  2.3262 -1.5262 -0.1912
  132MOL    H6423906   2.214   4.827   2.641  1.0582  0.4166  0.1800
  132MOL    C6523907   2.422   4.657   2.556  0.3245  0.2868  0.2084
  132MOL    C6623908   2.472   4.560   2.445  0.0919  0.0853 -0.1575
  132MOL    C6723909   2.358   4.508   2.348  0.3151 -0.0590  0.3039
  132MOL    H6823910   2.398   4.744   2.495 -2.8400  0.4844  1.6450
  132MOL    H6923911   2.507   4.686   2.617  1.9444 -1.4015 -1.1514
  132MOL    H7023912   2.513   4.471   2.492 -0.3849  0.9120  1.9045
  132MOL    H7123913   2.293   4.431   2.388 -0.1734  1.2277  2.0533
  132MOL    H7223914   2.290   4.571   2.292 -0.0659 -1.2531 -0.6147
  132MOL    H7323915   2.407   4.450   2.270 -3.3224 -1.7005 -0.8582
  132MOL    C7423916   2.588   4.632   2.365  0.1191  0.4307 -0.7654
  132MOL    C7523917   2.725   4.590   2.420 -0.6421 -0.6524 -0.5836
  132MOL    C7623918   2.765   4.454   2.380  0.4265  0.1639 -0.1922
  132MOL    H7723919   2.585   4.611   2.258 -0.6643 -1.7847 -0.3273
  132MOL    H7823920   2.584   4.741   2.368 -0.3545  0.3864  0.9879
  132MOL    H7923921   2.724   4.595   2.529 -1.0626 -1.4710 -0.5489
  132MOL    H8023922   2.855   4.422   2.431  1.4487  0.3708 -1.8254
  132MOL    H8123923   2.692   4.380   2.414  0.1741  0.4905 -0.0236
  132MOL    H8223924   2.783   4.443   2.273  1.6300  0.2929 -0.0028
  132MOL    C8323925   2.835   4.693   2.379  0.3221  0.0687 -0.6221
  132MOL    C8423926   2.936   4.731   2.491  1.0272  0.3934 -0.4147
  132MOL    C8523927   3.045   4.809   2.423 -0.2247 -0.2110  0.2873
  132MOL    H8623928   2.890   4.665   2.289 -0.0077  0.3949 -0.9230
  132MOL    H8723929   2.792   4.791   2.357 -1.9742 -0.2250  2.2636
  132MOL    H8823930   2.984   4.636   2.512  0.3408  0.3064  0.7823
  132MOL    H8923931   3.127   4.841   2.487 -0.7056  0.4350  0.5878
  132MOL    H9023932   3.092   4.752   2.343 -0.7690 -1.8458  1.1137
  132MOL    H9123933   3.007   4.900   2.377  0.1903 -0.8588 -1.3890
  132MOL    C9223934   2.868   4.810   2.611  0.0384 -0.7349 -0.2475
  132MOL    C9323935   2.966   4.819   2.733  0.5112  0.9538 -0.2229
  132MOL    C9423936   2.900   4.920   2.829 -0.1854  0.2141  0.1495
  132MOL    H9523937   2.831   4.907   2.579 -0.5775 -0.0668  2.3417
  132MOL    H9623938   2.774   4.763   2.641 -0.4572  0.0736 -0.5348
  132MOL    H9723939   3.064   4.857   2.708  0.8072 -0.4486 -1.2243
  132MOL    H9823940   2.975   4.964   2.894  0.2130  2.2009 -1.5996
  132MOL    H9923941   2.878   5.014   2.779  1.4841  0.8033  0.5073
  132MOL   H10023942   2.826   4.882   2.900 -0.6009 -1.0368 -0.9438
  132MOL   C10123943   2.984   4.683   2.805  0.4880  0.7964  0.4208
  132MOL   C10223944   3.082   4.667   2.926 -0.1821  0.2505 -0.5835
  132MOL   C10323945   3.058   4.529   2.996 -0.4241 -0.7145  0.2539
  132MOL   H10423946   2.879   4.658   2.821 -0.5479  3.1246 -2.3472
  132MOL   H10523947   3.003   4.606   2.730 -2.9232 -0.7297  1.0172
  132MOL   H10623948   3.056   4.749   2.993  1.3079  1.7100 -1.7430
  132MOL   H10723949   3.097   4.508   3.096  1.5764 -1.1943 -0.5935
  132MOL   H10823950   2.951   4.513   3.008 -0.4271 -1.5413 -0.8486
  132MOL   H10923951   3.096   4.452   2.929 -0.2465  1.2077 -1.8844
  132MOL   C11023952   3.224   4.686   2.885 -0.4830  0.3226  0.6301
  132MOL   C11123953   3.322   4.664   3.005  0.4634  0.4560 -0.1572
  132MOL   C11223954   3.460   4.674   2.939 -0.2619 -0.0185 -0.3487
  132MOL   H11323955   3.249   4.611   2.810  0.9712 -2.2391  3.5416
  132MOL   H11423956   3.236   4.786   2.843  0.2007 -0.6491 -1.5200
  132MOL   H11523957   3.319   4.564   3.047 -2.8273  1.4698  2.1721
  132MOL   H11623958   3.474   4.774   2.898 -1.7288  0.0400 -0.7159
  132MOL   H11723959   3.546   4.671   3.006 -0.2668  2.0449 -0.2210
  132MOL   H11823960   3.471   4.598   2.861  1.3854 -1.5044  1.2784
  132MOL   C11923961   3.314   4.776   3.112  0.1458 -0.5808 -0.5983
  132MOL   C12023962   3.221   4.741   3.236 -0.2761  0.2162  0.0296
  132MOL   C12123963   3.276   4.629   3.324  0.2561  0.9810  0.4794
  132MOL   H12223964   3.417   4.806   3.133  0.2253  0.3824 -2.2824
  132MOL   H12323965   3.270   4.861   3.060 -0.6149  0.2385  1.3226
  132MOL   H12423966   3.125   4.700   3.206  0.2971 -1.3964  0.3492
  132MOL   H12523967   3.379   4.649   3.355  0.1560 -0.8726  2.1103
  132MOL   H12623968   3.215   4.610   3.412 -1.1101  1.1489 -0.4261
  132MOL   H12723969   3.277   4.535   3.268  1.3058  1.0316  0.3971
  132MOL   C12823970   3.206   4.870   3.326  0.3958 -0.0709 -0.2974
  132MOL   C12923971   3.106   4.981   3.270 -0.1103  0.4041 -0.0530
  132MOL   C13023972   2.966   4.925   3.290  0.3758  0.1427 -0.7065
  132MOL   H13123973   3.178   4.846   3.429 -0.4487 -0.3679 -0.5843
  132MOL   H13223974   3.301   4.920   3.347 -0.4464  1.1123  0.8459
  132MOL   H13323975   3.135   4.999   3.167  1.2508 -1.9044 -0.1259
  132MOL   H13423976   2.946   4.913   3.396 -0.8654  2.2509 -0.6672
  132MOL   H13523977   2.887   4.994   3.258  0.4316  0.5666  0.0656
  132MOL   H13623978   2.953   4.831   3.236  0.0820 -1.8307  2.6719
  132MOL   C13723979   3.120   5.106   3.357 -0.0270  0.6400  0.1687
  132MOL   C13823980   3.055   5.233   3.292  0.2756  0.3567 -0.0458
  132MOL   C13923981   3.081   5.247   3.136 -0.7860 -0.7578  0.7551
  132MOL   H14023982   3.085   5.094   3.459 -1.6490 -0.5497 -0.5139
  132MOL   H14123983   3.229   5.120   3.357 -0.0074  0.5934  2.1133
  132MOL   H14223984   3.110   5.310   3.346  1.6168 -0.6637  0.0688
  132MOL   H14323985   3.038   5.162   3.085  2.7321 -1.6130 -0.9382
  132MOL   H14423986   3.038   5.331   3.082 -1.4287 -0.8230  1.1649
  132MOL   H14523987   3.186   5.249   3.105 -1.2449  0.1243 -0.7808
  132MOL   C14623988   2.908   5.259   3.336 -0.8188  0.0244  0.2587
  132MOL   C14723989   2.857   5.404   3.331 -0.9722 -0.3671 -0.0229
  132MOL   C14823990   2.714   5.421   3.275 -0.3372  0.1538  0.2451
  132MOL   H14923991   2.848   5.195   3.272 -0.2540  0.3397 -0.5923
  132MOL   H15023992   2.887   5.211   3.432 -0.4926 -2.0246 -0.6705
  132MOL   H15123993   2.916   5.459   3.259 -1.5205 -1.3242 -1.2136
  132MOL   H15223994   2.687   5.351   3.196 -3.2105  1.7502 -0.2683
  132MOL   H15323995   2.639   5.422   3.354 -2.6625 -5.3133 -1.6813
  132MOL   H15423996   2.723   5.522   3.234  1.4302 -0.7374 -1.6594
  132MOL   C15523997   2.876   5.464   3.477  0.1802 -0.5424 -0.4346
  132MOL   C15623998   2.876   5.611   3.504 -0.7299  0.2316  0.4878
  132MOL   C15723999   2.895   5.647   3.651 -0.0810  0.1429 -0.3057
  132MOL   H15824000   2.819   5.403   3.547 -0.7869  0.2231 -0.5407
  132MOL   H15924001   2.974   5.435   3.514 -0.5713 -0.2217  1.9506
  132MOL   H16024002   2.780   5.652   3.475  0.4144  4.5000  2.3884
  132MOL   H16124003   2.988   5.622   3.701  1.5834  1.6733 -2.5271
  132MOL   H16224004   2.907   5.755   3.663 -0.1747  0.2134 -0.8173
  132MOL   H16324005   2.818   5.616   3.721  1.2513  0.8051  1.5085
  132MOL   C16424006   2.980   5.683   3.412  0.0400  0.3298 -0.3341
  132MOL   C16524007   2.913   5.760   3.289 -0.2642 -0.0565 -0.3234
  132MOL   C16624008   2.897   5.904   3.326 -0.0010 -0.4111  0.1560
  132MOL   H16724009   3.056   5.741   3.465  0.1675 -1.0198  0.9887
  132MOL   H16824010   3.053   5.610   3.375 -0.2427  1.6181 -3.5591
  132MOL   H16924011   2.812   5.724   3.268  0.8620 -2.4607 -1.9078
  132MOL   H17024012   2.990   5.961   3.332  0.8262 -1.8836  1.7481
  132MOL   H17124013   2.831   5.952   3.255  0.9244 -0.0586 -0.4857
  132MOL   H17224014   2.867   5.911   3.430 -1.7006 -2.4607 -0.1723
  132MOL   C17324015   2.992   5.738   3.158  0.1870  0.0308  0.3977
  132MOL   C17424016   2.956   5.841   3.055 -0.2211  0.3062 -0.4100
  132MOL   C17524017   3.025   5.807   2.918 -0.7285 -0.4026 -0.4015
  132MOL   H17624018   3.090   5.765   3.196  0.5236 -1.3855  0.5501
  132MOL   H17724019   2.988   5.631   3.138 -0.4009 -0.4690  3.0209
  132MOL   H17824020   2.971   5.938   3.102 -1.8897  0.3427  0.0706
  132MOL   H17924021   3.039   5.897   2.858  3.4809 -2.0544 -2.0737
  132MOL   H18024022   3.129   5.785   2.941 -0.5504 -0.3092 -1.1021
  132MOL   H18124023   2.975   5.729   2.860 -0.1795  0.2176 -1.7243
  132MOL   H18224024   2.848   5.844   3.046 -0.6176 -2.1675  2.6533
  133MOL     C124025   6.135   1.115   6.039 -0.0994  0.4998 -0.0546
  133MOL     C224026   6.114   1.106   6.191  0.6425  0.0213 -0.1211
  133MOL     C324027   5.996   1.193   6.225  0.2845 -0.3867 -0.0371
  133MOL     H424028   6.124   1.214   5.994 -0.4792 -0.4335 -2.0790
  133MOL     H524029   6.070   1.041   5.992 -0.7379  2.3882 -2.2681
  133MOL     H624030   6.205   1.154   6.229  0.4710 -2.0356  3.0517
  133MOL     H724031   5.905   1.149   6.184  0.4518  0.3543 -1.2342
  133MOL     H824032   5.993   1.219   6.331  0.1992  0.8237 -0.3232
  133MOL     H924033   6.008   1.286   6.170 -1.3205  0.6418  1.2794
  133MOL    H1024034   6.235   1.082   6.012 -0.9688 -3.1500  0.9335
  133MOL    C1124035   6.112   0.970   6.254 -0.0523 -0.0709  0.3409
  133MOL    C1224036   6.099   0.958   6.407  0.6075  0.7141  0.9748
  133MOL    C1324037   6.020   0.829   6.447  0.3785  0.0822 -0.4692
  133MOL    H1424038   6.027   0.914   6.217 -1.2090  1.3555  0.8176
  133MOL    H1524039   6.191   0.905   6.215  1.2266  0.7226  1.5457
  133MOL    H1624040   6.032   1.040   6.427 -2.0618 -0.9162 -0.9820
  133MOL    H1724041   6.008   0.807   6.553  0.1470  4.7015  0.5566
  133MOL    H1824042   5.917   0.826   6.411  0.8925 -2.0400 -1.8773
  133MOL    H1924043   6.080   0.743   6.415 -1.7434 -1.3756 -0.6380
  133MOL    C2024044   6.232   0.974   6.490 -0.2365 -0.5070 -0.6481
  133MOL    C2124045   6.210   1.059   6.615 -0.7098  0.4805  0.5008
  133MOL    C2224046   6.107   1.016   6.723 -0.1272  0.3060 -0.2726
  133MOL    H2324047   6.269   0.875   6.517  0.0317 -0.3732 -0.5276
  133MOL    H2424048   6.303   1.015   6.418 -0.1684  1.5739  0.5736
  133MOL    H2524049   6.165   1.151   6.575  0.8796  0.9884 -0.1501
  133MOL    H2624050   6.017   1.020   6.662  0.6428  2.0222 -1.3412
  133MOL    H2724051   6.121   0.915   6.761 -1.5488 -1.2717 -3.6994
  133MOL    H2824052   6.091   1.077   6.811  1.4794 -1.2802  1.1616
  133MOL    C2924053   6.348   1.066   6.683 -0.5622 -0.0482 -0.0278
  133MOL    C3024054   6.464   1.121   6.593 -0.0660  0.5166  0.0891
  133MOL    C3124055   6.432   1.259   6.539 -0.9830  0.3480  0.0604
  133MOL    H3224056   6.333   1.130   6.769  0.7174 -0.2183  0.3262
  133MOL    H3324057   6.381   0.968   6.719  0.5036  0.7861  1.2839
  133MOL    H3424058   6.484   1.050   6.512 -0.9881 -1.9208  1.9180
  133MOL    H3524059   6.515   1.298   6.480  0.2956  0.4873  1.9135
  133MOL    H3624060   6.330   1.257   6.499 -0.4694 -1.1554 -1.2280
  133MOL    H3724061   6.423   1.335   6.617  0.2949  0.3268  0.2337
  133MOL    C3824062   6.599   1.124   6.660 -0.3636 -0.2641 -0.1406
  133MOL    C3924063   6.646   0.999   6.740  0.1631  0.1801  0.7598
  133MOL    C4024064   6.650   0.872   6.655 -0.4371  0.5396  0.4277
  133MOL    H4124065   6.675   1.130   6.582  0.4593  3.1064  0.8428
  133MOL    H4224066   6.612   1.200   6.736  0.5275 -0.5470 -0.0003
  133MOL    H4324067   6.572   0.990   6.820  1.2674  1.5108  1.9651
  133MOL    H4424068   6.564   0.841   6.596  0.9087 -0.6139 -0.9567
  133MOL    H4524069   6.737   0.871   6.590  0.9689 -2.8618  2.2280
  133MOL    H4624070   6.666   0.793   6.728  1.2117  1.7103  1.3742
  133MOL    C4724071   6.773   1.011   6.827 -0.7034  0.0526 -0.1891
  133MOL    C4824072   6.773   1.121   6.937  1.5007 -0.1151  0.1225
  133MOL    C4924073   6.641   1.123   7.022 -0.1475  0.2713 -0.2873
  133MOL    H5024074   6.786   0.918   6.881 -3.1269  0.7122  1.6224
  133MOL    H5124075   6.861   1.020   6.763 -0.4541  0.9935  0.2689
  133MOL    H5224076   6.785   1.215   6.883 -0.4518 -0.1490 -0.3857
  133MOL    H5324077   6.608   1.026   7.060  0.1431 -0.2882 -1.4567
  133MOL    H5424078   6.640   1.196   7.103 -0.5109 -0.1836  0.1265
  133MOL    H5524079   6.554   1.156   6.965 -0.5219 -0.6912 -0.2788
  133MOL    C5624080   6.883   1.119   7.044  0.0254 -0.3507  0.3764
  133MOL    C5724081   7.033   1.114   6.996 -0.1010  0.3090  0.6632
  133MOL    C5824082   7.068   1.235   6.908 -0.0103  0.7359  0.4250
  133MOL    H5924083   6.868   1.214   7.096 -1.4144 -0.4062  0.0796
  133MOL    H6024084   6.856   1.041   7.116 -3.2309  0.9874  0.7078
  133MOL    H6124085   7.044   1.025   6.935 -0.6822 -1.1172  2.5790
  133MOL    H6224086   7.016   1.246   6.813  1.2339  1.4944 -0.1798
  133MOL    H6324087   7.055   1.324   6.969 -3.9882 -0.0693  0.9284
  133MOL    H6424088   7.170   1.222   6.873 -0.2165 -0.2245  0.1606
  133MOL    C6524089   7.138   1.096   7.108 -1.0329 -0.2339  0.4588
  133MOL    C6624090   7.097   0.999   7.227 -1.0012  0.3269 -0.1851
  133MOL    C6724091   7.082   0.857   7.174 -0.2475 -0.6185 -0.2043
  133MOL    H6824092   7.240   1.084   7.072 -0.3086  1.6968  1.7628
  133MOL    H6924093   7.139   1.194   7.156 -1.3112  0.8865 -1.7614
  133MOL    H7024094   7.002   1.031   7.269  0.5108  3.2721  1.1420
  133MOL    H7124095   7.180   0.816   7.150 -0.2266  0.3853 -1.9386
  133MOL    H7224096   7.019   0.799   7.241 -0.7432 -0.6993 -0.7407
  133MOL    H7324097   7.029   0.851   7.079  0.0804 -1.1382 -0.3527
  133MOL    C7424098   7.200   1.003   7.340 -0.1092  0.2917 -0.3620
  133MOL    C7524099   7.205   1.132   7.427  0.1267  0.7558 -0.1397
  133MOL    C7624100   7.065   1.181   7.475 -0.6167  0.3406  0.1224
  133MOL    H7724101   7.175   0.914   7.397 -0.1009 -0.5441 -1.6468
  133MOL    H7824102   7.302   0.993   7.302 -0.8293 -1.0014 -2.0147
  133MOL    H7924103   7.247   1.207   7.359 -0.5549 -0.2751 -1.7413
  133MOL    H8024104   6.980   1.195   7.409  1.1660  0.3383 -2.2477
  133MOL    H8124105   7.040   1.115   7.558  0.3416  3.1606  2.7331
  133MOL    H8224106   7.073   1.280   7.518 -0.4183  0.1083  0.6274
  133MOL    C8324107   7.309   1.107   7.541  0.3893 -0.0592 -0.0431
  133MOL    C8424108   7.331   1.231   7.624 -0.3274 -0.1168  0.2890
  133MOL    C8524109   7.419   1.192   0.044  0.5440  0.0651  0.0379
  133MOL    H8624110   7.265   1.023   7.595  0.7666  0.3645  0.9357
  133MOL    H8724111   7.409   1.074   7.513  0.3518 -1.8500  1.8354
  133MOL    H8824112   7.240   1.263   7.675 -1.5229 -0.2370 -1.6884
  133MOL    H8924113   7.525   1.178   0.021  1.3349  3.1716  1.4957
  133MOL    H9024114   7.426   1.254   0.133  1.7546 -1.1399  0.8011
  133MOL    H9124115   7.383   1.101   0.091  1.6674  0.0270  0.8329
  133MOL    C9224116   7.398   1.343   7.538 -0.2188  0.3788 -0.5517
  133MOL    C9324117   7.408   1.485   7.602 -0.3688  0.3242 -0.2847
  133MOL    C9424118   7.549   1.500   7.658 -0.4257  0.2262 -0.2671
  133MOL    H9524119   7.493   1.301   7.505 -0.7326 -1.0332 -0.2343
  133MOL    H9624120   7.337   1.368   7.452  1.3295  2.5462 -1.0707
  133MOL    H9724121   7.330   1.492   7.678 -0.5762  2.2265 -0.6388
  133MOL    H9824122   7.577   1.410   0.016  2.4183  0.6488 -0.9465
  133MOL    H9924123   7.608   1.505   7.567  1.0886 -2.2864  0.5208
  133MOL   H10024124   7.571   1.585   0.026  0.1325  0.3364 -0.5914
  133MOL   C10124125   7.371   1.600   7.510 -0.3848 -0.1131  0.8226
  133MOL   C10224126   7.219   1.607   7.468  0.1909  0.6828 -0.7359
  133MOL   C10324127   7.120   1.635   7.571  0.1918  1.0657  0.1303
  133MOL   H10424128   7.403   1.693   7.557 -1.8943  0.8030  0.0970
  133MOL   H10524129   7.436   1.590   7.423  0.2602 -2.1008  1.5131
  133MOL   H10624130   7.191   1.511   7.424  0.7312 -0.4900  1.3698
  133MOL   H10724131   7.124   1.581   7.666 -1.7718  0.2734 -0.2163
  133MOL   H10824132   7.135   1.739   7.599  1.4329  0.8790  0.2105
  133MOL   H10924133   7.021   1.624   7.528 -0.3382 -3.8266  2.2855
  133MOL   C11024134   7.208   1.717   7.355  0.1725 -0.3391 -0.8493
  133MOL   C11124135   7.193   1.664   7.214  0.5875 -0.0704  0.2555
  133MOL   C11224136   7.064   1.585   7.194  0.1302  0.0166 -0.1794
  133MOL   H11324137   7.112   1.768   7.363  0.9188  0.9534 -0.0438
  133MOL   H11424138   7.287   1.790   7.372 -1.1528  1.0824 -0.7166
  133MOL   H11524139   7.278   1.602   7.183  0.3278 -0.1714 -0.2714
  133MOL   H11624140   7.065   1.554   7.089 -0.1955 -1.4098  0.2279
  133MOL   H11724141   7.045   1.494   7.250  1.8358 -0.0476  0.3103
  133MOL   H11824142   6.976   1.649   7.194 -0.0327 -0.1503 -2.6134
  133MOL   C11924143   7.188   1.786   7.117  0.2771  0.3599  0.5413
  133MOL   C12024144   7.298   1.891   7.127  0.8034  0.0042 -0.3865
  133MOL   C12124145   7.436   1.827   7.108  0.4942  0.3608 -0.1082
  133MOL   H12224146   7.185   1.747   7.016  0.9616  1.0485  0.2495
  133MOL   H12324147   7.097   1.845   7.128  1.0810  1.6474  0.3486
  133MOL   H12424148   7.292   1.940   7.224  3.6848  1.3762 -0.8419
  133MOL   H12524149   7.437   1.733   7.164 -0.3763 -0.1857 -0.9807
  133MOL   H12624150   7.449   1.796   7.004  0.2788 -0.4441  0.0937
  133MOL   H12724151   7.518   1.888   7.144 -0.1472  0.9726  0.3284
  133MOL   C12824152   7.276   2.010   7.026  0.0141  0.3931  0.7627
  133MOL   C12924153   7.147   2.089   7.018  0.4808  0.4697  0.0163
  133MOL   C13024154   7.190   2.239   7.023  0.2420  0.4290 -1.0567
  133MOL   H13124155   7.361   2.077   7.017 -0.0136  0.1768 -1.3328
  133MOL   H13224156   7.291   1.952   6.935 -0.4394 -0.0566  0.9708
  133MOL   H13324157   7.075   2.075   7.099  0.4075  1.7397  0.1786
  133MOL   H13424158   7.251   2.270   7.109  0.3857 -1.4443 -0.4625
  133MOL   H13524159   7.253   2.269   6.939  0.4333  0.1440 -1.0143
  133MOL   H13624160   7.104   2.303   7.004 -0.6330 -1.1886 -2.6602
  133MOL   C13724161   7.071   2.054   6.885  0.0330  0.2429  0.2510
  133MOL   C13824162   6.934   2.114   6.857 -0.4171  0.1244  0.2291
  133MOL   C13924163   6.896   2.074   6.714 -0.6307 -0.6335 -0.0191
  133MOL   H14024164   7.146   2.093   6.815  0.2095 -0.1604  0.2131
  133MOL   H14124165   7.062   1.947   6.867 -0.3198 -0.0250  1.9736
  133MOL   H14224166   6.942   2.222   6.867  0.2151  0.3929 -2.5228
  133MOL   H14324167   6.788   2.081   6.708 -0.8258 -2.2748  1.1865
  133MOL   H14424168   6.926   2.125   6.622  0.2067  0.8015  1.0301
  133MOL   H14524169   6.897   1.966   6.706  0.0510 -0.6917  0.7958
  133MOL   C14624170   6.835   2.070   6.964 -0.1874  0.4547 -0.3609
  133MOL   C14724171   6.781   2.180   7.065  0.9340  0.0858 -0.1918
  133MOL   C14824172   6.675   2.277   6.998  0.0759  0.6895 -0.2071
  133MOL   H14924173   6.748   2.032   6.910 -1.3604  3.4908 -0.6888
  133MOL   H15024174   6.863   1.974   7.008  1.4748  0.4117 -1.4550
  133MOL   H15124175   6.866   2.234   7.107  1.1050 -1.6815  1.7792
  133MOL   H15224176   6.718   2.328   6.912  0.3771 -1.9448 -1.6835
  133MOL   H15324177   6.590   2.227   6.951  0.0600 -0.0124  0.5507
  133MOL   H15424178   6.642   2.360   7.062 -0.8901 -1.2469  1.8883
  133MOL   C15524179   6.708   2.128   7.195  0.3982  0.5620  0.2109
  133MOL   C15624180   6.801   2.065   7.310  0.0970  0.2686  0.4614
  133MOL   C15724181   6.892   2.183   7.359  0.6085  0.5103 -0.0292
  133MOL   H15824182   6.651   2.209   7.239  0.0529  0.7714 -0.6094
  133MOL   H15924183   6.637   2.054   7.158 -0.2053  1.8680 -1.3220
  133MOL   H16024184   6.862   1.990   7.260  0.7578  1.3449 -0.3766
  133MOL   H16124185   6.984   2.199   7.303  0.2416 -0.8777 -1.0667
  133MOL   H16224186   6.831   2.273   7.361  0.3687  0.3950 -1.4328
  133MOL   H16324187   6.912   2.172   7.465 -0.3098  2.4490  0.3752
  133MOL   C16424188   6.713   2.014   7.428  0.0824 -0.0948  0.7833
  133MOL   C16524189   6.623   1.888   7.392  0.2194 -0.1287  0.2418
  133MOL   C16624190   6.703   1.755   7.355 -0.9650 -0.8867 -0.4657
  133MOL   H16724191   6.793   1.981   7.494  0.2812 -1.7962 -0.2862
  133MOL   H16824192   6.654   2.098   7.464 -1.6414 -0.0205 -2.0182
  133MOL   H16924193   6.573   1.910   7.297  0.0808 -0.1490  0.3100
  133MOL   H17024194   6.758   1.788   7.267 -1.6639 -0.5092 -0.7640
  133MOL   H17124195   6.769   1.714   7.432 -1.5606 -0.5086  0.2479
  133MOL   H17224196   6.643   1.673   7.315  0.7267 -1.3590 -2.0719
  133MOL   C17324197   6.521   1.857   7.505  0.2536  0.5829  0.3400
  133MOL   C17424198   6.399   1.776   7.456  0.0720  0.3938  0.3732
  133MOL   C17524199   6.288   1.752   7.554  0.2566  0.1049 -0.1775
  133MOL   H17624200   6.564   1.806   7.591  1.2395  2.1966  0.8337
  133MOL   H17724201   6.483   1.946   7.555 -0.9687  0.1106  0.2599
  133MOL   H17824202   6.428   1.681   7.412 -2.3204 -1.4219  2.5460
  133MOL   H17924203   6.319   1.716   7.653 -0.4671 -1.0819 -0.3808
  133MOL   H18024204   6.243   1.845   7.588  0.7253  0.4281 -0.4319
  133MOL   H18124205   6.208   1.687   7.521 -0.9410  2.5887 -2.3794
  133MOL   H18224206   6.354   1.831   7.373  0.2429 -1.7703 -1.1917
  134MOL     C124207   2.216   3.403   3.711 -0.4763 -1.3552  0.8488
  134MOL     C224208   2.268   3.383   3.858 -0.5582 -0.3990 -0.6576
  134MOL     C324209   2.272   3.507   3.943  0.4069 -0.0501  0.0374
  134MOL     H424210   2.218   3.314   3.650 -1.1462 -3.4115  3.7124
  134MOL     H524211   2.271   3.484   3.662 -1.5369 -1.9489 -1.3731
  134MOL     H624212   2.373   3.352   3.863 -0.4094  0.4417  2.8503
  134MOL     H724213   2.179   3.546   3.986  0.3050 -1.8934  1.5734
  134MOL     H824214   2.347   3.501   4.022  0.8668  1.6282 -0.2529
  134MOL     H924215   2.305   3.593   3.884  1.1395 -0.9188 -0.8289
  134MOL    H1024216   2.112   3.436   3.714 -0.3208 -0.8111  0.4296
  134MOL    C1124217   2.189   3.279   3.943 -0.2231  0.6499 -0.6381
  134MOL    C1224218   2.207   3.128   3.896  0.0368  0.0341 -0.4824
  134MOL    C1324219   2.353   3.078   3.916 -0.3054  0.1080 -0.5022
  134MOL    H1424220   2.194   3.284   4.052 -3.5270  0.2288 -0.4197
  134MOL    H1524221   2.088   3.301   3.909 -1.6589 -2.8993  1.0598
  134MOL    H1624222   2.180   3.119   3.791 -1.2047  0.8276 -0.2438
  134MOL    H1724223   2.391   3.086   4.017  1.0859 -0.8908 -0.9392
  134MOL    H1824224   2.367   2.975   3.882  0.1331  0.2559 -0.7631
  134MOL    H1924225   2.421   3.136   3.853 -1.3053  1.2149 -0.5828
  134MOL    C2024226   2.107   3.053   3.987 -0.0300 -0.4350  0.8431
  134MOL    C2124227   2.067   2.914   3.951 -0.2144  0.5050  0.4345
  134MOL    C2224228   2.139   2.808   4.048  0.5269 -0.0885 -0.5993
  134MOL    H2324229   2.136   3.065   4.091  1.1087  1.0362  0.3761
  134MOL    H2424230   2.017   3.114   3.990  1.3130  1.7177 -0.8602
  134MOL    H2524231   2.100   2.896   3.849 -1.4798  0.5593  0.0136
  134MOL    H2624232   2.104   2.705   4.049  0.0272  0.0863 -0.0936
  134MOL    H2724233   2.247   2.803   4.030  0.5659  2.5989 -1.4686
  134MOL    H2824234   2.117   2.828   4.153 -0.1844 -4.7097  0.2450
  134MOL    C2924235   1.913   2.891   3.935 -0.4932 -0.3808  0.3162
  134MOL    C3024236   1.882   2.759   3.857  0.3141  0.2747  0.0017
  134MOL    C3124237   1.747   2.699   3.906  0.9049 -0.4970 -0.6369
  134MOL    H3224238   1.857   2.895   4.029 -2.2682  0.2397 -0.7430
  134MOL    H3324239   1.882   2.975   3.873 -1.4620 -1.1177 -0.2195
  134MOL    H3424240   1.957   2.687   3.891  0.1027  0.6011  1.1814
  134MOL    H3524241   1.729   2.722   4.011 -1.5214 -1.1585 -0.8669
  134MOL    H3624242   1.667   2.758   3.861  0.7923 -1.6272 -1.9555
  134MOL    H3724243   1.720   2.595   3.886  2.3982 -0.7835 -1.1650
  134MOL    C3824244   1.898   2.781   3.704  0.2240  0.8131  0.0088
  134MOL    C3924245   1.855   2.656   3.625 -0.4383  0.0378 -0.1664
  134MOL    C4024246   1.882   2.688   3.465 -0.0158  0.1679  0.4940
  134MOL    H4124247   1.858   2.873   3.661 -0.0537  0.5711 -0.2473
  134MOL    H4224248   2.005   2.789   3.687  0.3679 -0.4814  0.2597
  134MOL    H4324249   1.747   2.639   3.633 -0.5442  0.9107  0.3748
  134MOL    H4424250   1.884   2.797   3.452  1.7272  0.4641  2.7894
  134MOL    H4524251   1.980   2.652   3.434 -0.1434  0.0702  0.2092
  134MOL    H4624252   1.805   2.640   3.405 -0.9859  1.8837  0.3285
  134MOL    C4724253   1.915   2.518   3.666 -0.1962 -0.4712 -0.6325
  134MOL    C4824254   1.873   2.397   3.580  0.0856 -0.2448  0.3309
  134MOL    C4924255   1.974   2.282   3.586  0.2626 -0.0589  0.0451
  134MOL    H5024256   2.023   2.532   3.668  0.0981 -2.7960  2.5820
  134MOL    H5124257   1.880   2.502   3.768  0.7379  2.2731  0.1867
  134MOL    H5224258   1.874   2.439   3.479  0.4196  2.9156  1.5833
  134MOL    H5324259   1.974   2.232   3.683  1.6972  0.8817  0.5259
  134MOL    H5424260   1.954   2.205   3.511 -1.9057  0.9235 -0.4369
  134MOL    H5524261   2.077   2.313   3.573  0.2497 -0.5441 -1.2997
  134MOL    C5624262   1.727   2.354   3.616 -0.5906  0.0924  0.1537
  134MOL    C5724263   1.681   2.243   3.518 -0.0817 -0.3798  0.3484
  134MOL    C5824264   1.655   2.120   3.607 -0.5840  0.0686 -0.5010
  134MOL    H5924265   1.731   2.319   3.719 -1.0701  1.1883  0.5555
  134MOL    H6024266   1.655   2.436   3.611 -0.3305  0.2715 -0.8779
  134MOL    H6124267   1.763   2.214   3.452 -0.1594 -2.3881  1.0935
  134MOL    H6224268   1.571   2.138   3.673 -1.2637 -1.1490 -1.0104
  134MOL    H6324269   1.630   2.031   3.549 -2.7792 -0.5960  1.4204
  134MOL    H6424270   1.737   2.097   3.675 -1.0752  1.2547  0.5087
  134MOL    C6524271   1.564   2.284   3.427 -0.3983  0.3880  0.4581
  134MOL    C6624272   1.588   2.399   3.324  0.3219  0.4521 -0.3418
  134MOL    C6724273   1.689   2.367   3.210  0.2008 -0.9466  0.1598
  134MOL    H6824274   1.525   2.198   3.372  0.0273  0.5943 -0.1677
  134MOL    H6924275   1.478   2.308   3.489 -0.5570  0.2991  0.2738
  134MOL    H7024276   1.641   2.475   3.381 -0.3917  2.1657 -1.9045
  134MOL    H7124277   1.712   2.459   3.157 -1.1918 -0.2444  0.7582
  134MOL    H7224278   1.778   2.318   3.250  0.8407  0.8586  0.9794
  134MOL    H7324279   1.648   2.296   3.138  1.1339 -0.9329 -0.3898
  134MOL    C7424280   1.461   2.460   3.258 -0.1077  0.0010  0.1769
  134MOL    C7524281   1.394   2.575   3.322 -0.6731  0.4403  0.2738
  134MOL    C7624282   1.280   2.631   3.241  0.1275  0.0771  0.3466
  134MOL    H7724283   1.473   2.475   3.150 -1.0823 -1.4162 -0.1480
  134MOL    H7824284   1.387   2.379   3.252  0.1051 -0.3381  1.9474
  134MOL    H7924285   1.474   2.647   3.337  0.6481 -0.9254 -0.0870
  134MOL    H8024286   1.190   2.575   3.267  0.0618  0.3625  0.7334
  134MOL    H8124287   1.263   2.735   3.269 -1.7234 -0.2311  0.4302
  134MOL    H8224288   1.300   2.619   3.134 -1.4329  0.3468  0.0049
  134MOL    C8324289   1.345   2.538   3.465  0.4279  0.1109  0.4368
  134MOL    C8424290   1.278   2.658   3.546 -0.0557 -0.1592 -0.7046
  134MOL    C8524291   1.214   2.596   3.677 -0.1846  0.6370 -0.0142
  134MOL    H8624292   1.274   2.456   3.464 -3.1892  3.1090 -0.4933
  134MOL    H8724293   1.430   2.500   3.521  2.3307  0.3710 -2.1678
  134MOL    H8824294   1.193   2.689   3.485 -1.4718 -0.7527  0.9312
  134MOL    H8924295   1.150   2.677   3.712 -3.2423 -1.9184  0.5467
  134MOL    H9024296   1.141   2.515   3.680  2.6772 -2.0037  0.5381
  134MOL    H9124297   1.287   2.584   3.756 -2.4606  0.5226  2.1152
  134MOL    C9224298   1.381   2.777   3.576  0.5888  0.1307 -0.2487
  134MOL    C9324299   1.322   2.900   3.647  0.6171  0.0861  0.3519
  134MOL    C9424300   1.428   2.987   3.707  0.4179 -0.4471 -0.1379
  134MOL    H9524301   1.462   2.743   3.641  0.2032 -1.6746 -0.6638
  134MOL    H9624302   1.426   2.804   3.481  1.5488  1.1843  0.4930
  134MOL    H9724303   1.253   2.878   3.728  0.1430 -1.5956 -0.4892
  134MOL    H9824304   1.394   3.085   3.740 -2.5379 -2.1718  2.2256
  134MOL    H9924305   1.486   2.944   3.788  0.0074  1.4897  1.2053
  134MOL   H10024306   1.495   3.011   3.625 -1.2706 -0.0438 -1.4383
  134MOL   C10124307   1.250   2.990   3.538  0.4438 -0.6322  0.4943
  134MOL   C10224308   1.139   3.085   3.592 -0.2736 -0.0867 -0.0912
  134MOL   C10324309   1.115   3.192   3.479 -0.0391  0.2337  0.1611
  134MOL   H10424310   1.321   3.047   3.479 -0.7921  1.2615  0.7780
  134MOL   H10524311   1.194   2.936   3.462 -1.2516  1.3118  0.3076
  134MOL   H10624312   1.180   3.137   3.678 -1.8917  1.0036  0.0454
  134MOL   H10724313   1.098   3.132   3.390  0.8420  0.7439 -0.3590
  134MOL   H10824314   1.037   3.267   3.492 -0.3323 -0.3046  1.6139
  134MOL   H10924315   1.206   3.250   3.461 -0.7450  1.1899 -0.3403
  134MOL   C11024316   1.011   3.008   3.639  0.5399  0.7568 -0.4709
  134MOL   C11124317   0.945   3.052   3.774 -0.5568 -0.1208 -0.1360
  134MOL   C11224318   0.907   3.199   3.782  0.0040  0.3146  0.4929
  134MOL   H11324319   0.942   3.016   3.555  1.0369 -3.6087 -1.4095
  134MOL   H11424320   1.050   2.907   3.652 -0.7354  0.2836 -0.2413
  134MOL   H11524321   1.023   3.043   3.850  0.9476 -1.6590 -1.8118
  134MOL   H11624322   0.945   3.256   3.698  1.0605  0.3267  0.9571
  134MOL   H11724323   0.801   3.224   3.785 -0.0335  0.2188 -0.0340
  134MOL   H11824324   0.958   3.251   3.864  1.1413 -1.4778  0.9711
  134MOL   C11924325   0.839   2.952   3.830 -0.3582 -0.8106  0.1507
  134MOL   C12024326   0.782   2.981   3.971 -0.8020 -0.0203  0.3205
  134MOL   C12124327   0.669   2.876   3.997 -0.3649 -0.6504  0.6022
  134MOL   H12224328   0.756   2.941   3.760 -0.9008  0.4447  0.5737
  134MOL   H12324329   0.879   2.851   3.827  0.3711 -0.5204 -0.0040
  134MOL   H12424330   0.743   3.083   3.966 -0.4499  0.1678  1.2866
  134MOL   H12524331   0.616   2.909   4.086 -0.6633 -1.1461  0.6041
  134MOL   H12624332   0.612   2.873   3.904  0.9443  0.4555 -0.2675
  134MOL   H12724333   0.716   2.779   4.014 -2.1065 -1.2576  2.0394
  134MOL   C12824334   0.887   2.988   4.085  0.4526 -0.0460  0.1544
  134MOL   C12924335   0.835   3.045   4.217  0.0643  0.2762 -0.0407
  134MOL   C13024336   0.829   2.934   4.318  0.3697  0.8026 -0.2441
  134MOL   H13124337   0.920   2.885   4.099  1.6431 -0.2284 -3.4975
  134MOL   H13224338   0.980   3.036   4.055  0.3176  1.4964  2.1153
  134MOL   H13324339   0.738   3.089   4.193 -0.5474 -1.9700 -1.9331
  134MOL   H13424340   0.771   2.850   4.282 -4.2778  2.8896  1.9596
  134MOL   H13524341   0.926   2.890   4.342  0.3989  0.2444 -1.3771
  134MOL   H13624342   0.778   2.961   4.410  1.6296 -0.5788  0.8869
  134MOL   C13724343   0.932   3.154   4.280 -0.6447 -0.3563 -0.4281
  134MOL   C13824344   0.953   3.287   4.198 -0.1694 -0.1180  0.0286
  134MOL   C13924345   0.818   3.362   4.166 -0.3529  0.0273  0.3583
  134MOL   H14024346   0.893   3.186   4.376 -1.9017 -2.6824 -0.1449
  134MOL   H14124347   1.029   3.107   4.298  0.3950  3.1454  4.3219
  134MOL   H14224348   0.993   3.251   4.103 -2.2301 -3.0104  0.1736
  134MOL   H14324349   0.752   3.291   4.115 -1.2411 -0.6247  2.3866
  134MOL   H14424350   0.777   3.411   4.254  1.1136  0.2946  0.9143
  134MOL   H14524351   0.834   3.436   4.087 -2.2950 -3.2370 -3.2416
  134MOL   C14624352   1.053   3.384   4.262 -0.4184 -0.0483  0.7869
  134MOL   C14724353   1.198   3.329   4.268 -0.3584  0.7100  0.2100
  134MOL   C14824354   1.259   3.320   4.132 -0.4840 -0.3606 -0.1683
  134MOL   H14924355   1.048   3.480   4.211 -4.1851  0.0198  1.1534
  134MOL   H15024356   1.029   3.405   4.366  2.3190 -0.6080  1.5800
  134MOL   H15124357   1.195   3.227   4.305 -0.8821  1.7394  3.1255
  134MOL   H15224358   1.204   3.270   4.051 -1.7584  1.3153 -0.3740
  134MOL   H15324359   1.289   3.414   4.087 -2.2766  0.4779  0.3377
  134MOL   H15424360   1.350   3.261   4.133 -0.4705 -0.3203  0.7785
  134MOL   C15524361   1.298   3.410   4.361  0.7782  0.4430 -0.9638
  134MOL   C15624362   1.261   3.428   4.514 -0.1704  0.7606  0.0856
  134MOL   C15724363   1.263   3.289   4.577  0.5824 -0.3182  0.0574
  134MOL   H15824364   1.395   3.360   4.364  0.1669 -0.7007  0.2874
  134MOL   H15924365   1.307   3.508   4.315  0.0337 -1.0090 -4.3789
  134MOL   H16024366   1.156   3.454   4.525 -0.3165 -0.0921  0.7641
  134MOL   H16124367   1.215   3.307   4.674  0.0321  1.7186 -0.5642
  134MOL   H16224368   1.203   3.211   4.530 -1.4410  1.1781  0.1019
  134MOL   H16324369   1.365   3.250   4.577  0.6770 -0.0880 -1.2030
  134MOL   C16424370   1.359   3.520   4.589 -0.0812 -0.0660  1.1390
  134MOL   C16524371   1.352   3.668   4.554 -0.5400 -0.4501  0.3186
  134MOL   C16624372   1.201   3.715   4.593  0.4136  0.0926 -0.3847
  134MOL   H16724373   1.344   3.518   4.697 -1.2349  0.1651  0.9886
  134MOL   H16824374   1.461   3.483   4.577 -0.2022  0.2319 -1.0035
  134MOL   H16924375   1.369   3.691   4.449  2.1786 -1.6255  0.4617
  134MOL   H17024376   1.123   3.697   4.519  0.4839 -1.7771 -0.0314
  134MOL   H17124377   1.153   3.674   4.683  0.0436  2.1015  0.3487
  134MOL   H17224378   1.205   3.823   4.603  0.4485  0.0688 -0.1312
  134MOL   C17324379   1.464   3.747   4.624  0.1407 -0.1220  0.6517
  134MOL   C17424380   1.603   3.749   4.561  0.1224  0.3477  0.7773
  134MOL   C17524381   1.711   3.846   4.625 -0.3472 -0.4431 -0.6053
  134MOL   H17624382   1.432   3.847   4.651  4.5300  1.2876  1.0344
  134MOL   H17724383   1.484   3.715   4.727  2.1116  0.4915  0.4647
  134MOL   H17824384   1.607   3.751   4.452  4.1638 -1.4742  0.8003
  134MOL   H17924385   1.723   3.837   4.733  0.1856  1.7722 -0.4494
  134MOL   H18024386   1.808   3.823   4.580  0.0517  0.7438 -0.3987
  134MOL   H18124387   1.693   3.953   4.616  0.5774 -0.1392  0.9386
  134MOL   H18224388   1.649   3.653   4.586  0.6694  0.5141  0.4205
  135MOL     C124389   6.012   7.271   6.530  0.0711  0.4657 -0.1218
  135MOL     C224390   6.120   7.217   6.424 -0.1910 -0.4855  0.3705
  135MOL     C324391   6.111   7.300   6.293 -0.0371  0.1358 -1.1869
  135MOL     H424392   6.032   7.239   6.632  3.3626 -0.3062 -0.9346
  135MOL     H524393   5.912   7.231   6.511  0.1008  0.6928 -0.7717
  135MOL     H624394   6.098   7.112   6.406  0.8158 -0.4510 -1.1170
  135MOL     H724395   6.189   7.278   6.221  1.0923  0.5617 -0.1265
  135MOL     H824396   6.012   7.297   6.248 -0.4343  1.1919 -0.4215
  135MOL     H924397   6.121   7.407   6.315 -1.0713  0.4580 -2.2445
  135MOL    H1024398   6.009   7.378   6.550  0.2831  0.1660  1.6258
  135MOL    C1124399   6.262   7.235   6.487  0.5348 -0.4700 -0.0851
  135MOL    C1224400   6.394   7.174   6.431 -0.3261 -0.7386 -0.4409
  135MOL    C1324401   6.520   7.214   6.509 -0.6499  0.1431  0.0111
  135MOL    H1424402   6.263   7.343   6.501 -0.2645 -0.3156 -1.1512
  135MOL    H1524403   6.266   7.188   6.586 -0.1275  1.7990  1.0558
  135MOL    H1624404   6.404   7.205   6.327 -1.8461 -2.6762 -1.2192
  135MOL    H1724405   6.530   7.318   6.541  4.1147 -0.5708  1.3467
  135MOL    H1824406   6.553   7.148   6.589  0.8893  1.9987  0.9566
  135MOL    H1924407   6.597   7.200   6.433 -1.1546 -2.6092 -0.0462
  135MOL    C2024408   6.378   7.015   6.426  1.1005 -0.0293 -0.7018
  135MOL    C2124409   6.501   6.922   6.383 -0.0233 -0.1645 -0.0362
  135MOL    C2224410   6.559   6.838   6.503  0.2046  0.1818 -0.0203
  135MOL    H2324411   6.343   6.977   6.522 -0.5176  0.4195 -1.0876
  135MOL    H2424412   6.297   6.997   6.355  1.3305 -1.4260 -0.6089
  135MOL    H2524413   6.583   6.983   6.347  1.4777 -2.6940 -0.9987
  135MOL    H2624414   6.582   6.905   6.586  1.7584  1.8941 -1.7742
  135MOL    H2724415   6.478   6.776   6.541 -0.5044  2.1429  1.7726
  135MOL    H2824416   6.640   6.771   6.476  0.4890  0.0039  1.2786
  135MOL    C2924417   6.456   6.827   6.268 -0.3430  0.1883  0.4734
  135MOL    C3024418   6.435   6.887   6.125  0.2837 -0.5889 -0.5346
  135MOL    C3124419   6.564   6.878   6.050  0.2233 -0.0834 -0.2703
  135MOL    H3224420   6.524   6.743   6.253  0.4369  0.8516  0.2490
  135MOL    H3324421   6.366   6.777   6.304  0.6177  1.2628  4.6625
  135MOL    H3424422   6.413   6.993   6.137  3.4239 -0.3563  4.0366
  135MOL    H3524423   6.643   6.930   6.104  0.3517 -0.1632 -0.3806
  135MOL    H3624424   6.588   6.776   6.021  3.8563  1.1204 -1.7948
  135MOL    H3724425   6.556   6.915   5.947  1.3313 -0.9004 -0.6611
  135MOL    C3824426   6.321   6.820   6.039  0.5284 -0.1105 -0.2842
  135MOL    C3924427   6.182   6.847   6.099 -0.6423 -0.5795 -0.4237
  135MOL    C4024428   6.138   6.998   6.104 -0.5334 -0.4956 -0.1842
  135MOL    H4124429   6.320   6.850   5.934  2.3095  0.0583 -0.2766
  135MOL    H4224430   6.344   6.713   6.044 -1.9794 -0.5555  3.5960
  135MOL    H4324431   6.184   6.803   6.199 -1.0861 -0.6018 -0.4234
  135MOL    H4424432   6.043   6.998   6.157 -1.3167  1.3219 -1.5493
  135MOL    H4524433   6.206   7.054   6.168 -1.3839 -1.5031  1.6379
  135MOL    H4624434   6.131   7.038   6.003 -0.6396  1.3103  0.5320
  135MOL    C4724435   6.079   6.769   6.011  0.4638  0.0929  0.5422
  135MOL    C4824436   5.938   6.738   6.060 -0.4556 -0.4650 -1.1025
  135MOL    C4924437   5.848   6.675   5.959 -1.0196 -0.0022  0.3224
  135MOL    H5024438   6.085   6.818   5.914  2.3612 -1.2353 -0.0509
  135MOL    H5124439   6.131   6.679   5.977  1.7079  0.1926  2.1359
  135MOL    H5224440   5.883   6.827   6.091 -0.7954 -1.1814  0.4176
  135MOL    H5324441   5.895   6.588   5.911  0.7282  0.8167  0.5180
  135MOL    H5424442   5.754   6.644   6.005 -1.7660  0.7175 -0.6886
  135MOL    H5524443   5.827   6.752   5.885  0.5328  1.1881  1.0919
  135MOL    C5624444   5.966   6.635   6.179 -0.1805 -0.6648 -0.3654
  135MOL    C5724445   5.847   6.582   6.261  1.0573  0.8564  0.1325
  135MOL    C5824446   5.888   6.464   6.353  0.2199  0.3404 -0.0043
  135MOL    H5924447   6.019   6.547   6.143  0.2087 -0.2388 -0.8393
  135MOL    H6024448   6.048   6.655   6.249 -0.0763 -0.0408 -0.6610
  135MOL    H6124449   5.788   6.541   6.179  3.2088 -0.9924 -0.5373
  135MOL    H6224450   5.962   6.484   6.431  1.2291  1.0204 -1.1133
  135MOL    H6324451   5.804   6.421   6.407  0.6861  0.2871  0.6854
  135MOL    H6424452   5.929   6.381   6.295  1.7934  1.2370 -0.2166
  135MOL    C6524453   5.750   6.681   6.326 -0.0948  0.0373 -0.4181
  135MOL    C6624454   5.797   6.744   6.458 -0.3710  0.2354  0.0396
  135MOL    C6724455   5.926   6.828   6.448 -0.1835 -0.1084 -0.3884
  135MOL    H6824456   5.729   6.755   6.249  2.2575 -0.6922 -1.7924
  135MOL    H6924457   5.659   6.624   6.348 -0.0051  0.3174  0.7281
  135MOL    H7024458   5.820   6.651   6.510 -1.9242  0.2303  0.7626
  135MOL    H7124459   5.917   6.902   6.368 -0.8002 -0.0469 -0.2684
  135MOL    H7224460   5.947   6.877   6.543 -0.1839 -2.3042  0.7683
  135MOL    H7324461   6.017   6.774   6.424 -0.1962 -1.0862  1.6855
  135MOL    C7424462   5.679   6.818   6.535 -0.1967  0.3777 -0.0253
  135MOL    C7524463   5.701   6.816   6.692 -0.3997  0.6478  0.1216
  135MOL    C7624464   5.737   6.957   6.741  0.0877  0.7403  0.5110
  135MOL    H7724465   5.659   6.921   6.505  0.3278 -0.2989 -2.9253
  135MOL    H7824466   5.588   6.769   6.502 -1.9674  3.9284 -0.6313
  135MOL    H7924467   5.779   6.742   6.711  0.2488  0.6815 -2.2680
  135MOL    H8024468   5.753   6.962   6.849 -0.8609 -0.4107  0.7270
  135MOL    H8124469   5.815   7.011   6.689 -2.8364  2.8225 -1.9185
  135MOL    H8224470   5.651   7.025   6.742  0.2274  0.9117  0.9264
  135MOL    C8324471   5.567   6.772   6.766  0.1183 -0.3963  0.3031
  135MOL    C8424472   5.520   6.622   6.743  0.0874  0.1288 -0.1082
  135MOL    C8524473   5.620   6.537   6.834  0.1275 -0.1768 -0.2688
  135MOL    H8624474   5.554   6.812   6.867 -0.2158  2.0483 -0.6727
  135MOL    H8724475   5.495   6.836   6.716 -0.7576 -0.7809  1.0637
  135MOL    H8824476   5.523   6.600   6.636  3.1023 -1.0813  0.2001
  135MOL    H8924477   5.703   6.596   6.873 -1.5397  2.5598 -0.7361
  135MOL    H9024478   5.568   6.489   6.917 -0.6455 -0.0391 -0.6722
  135MOL    H9124479   5.668   6.455   6.782 -0.2429 -0.9009  0.5172
  135MOL    C9224480   5.370   6.614   6.787  1.3741  0.7324  0.3874
  135MOL    C9324481   5.264   6.640   6.675 -0.4404 -0.0782  0.0048
  135MOL    C9424482   5.242   6.514   6.591 -0.9060  0.4399 -0.3282
  135MOL    H9524483   5.356   6.513   6.824 -1.4588 -0.5593 -3.8378
  135MOL    H9624484   5.356   6.678   6.875  0.1907  3.6847 -1.8503
  135MOL    H9724485   5.296   6.724   6.614  1.5601 -1.3764 -0.7589
  135MOL    H9824486   5.200   6.439   6.659 -0.0992  0.8050  0.5811
  135MOL    H9924487   5.158   6.525   6.522  0.3941 -1.5634 -2.2714
  135MOL   H10024488   5.335   6.484   6.544 -0.1356  0.0208  1.3961
  135MOL   C10124489   5.129   6.686   6.734  0.2236  0.4586 -0.1998
  135MOL   C10224490   5.123   6.822   6.808  1.2368 -0.8191 -0.7129
  135MOL   C10324491   5.178   6.940   6.729  0.4967  0.2247 -0.1722
  135MOL   H10424492   5.052   6.697   6.657  1.0196 -1.8423 -1.3655
  135MOL   H10524493   5.077   6.611   6.794 -0.8678 -0.1540 -1.8699
  135MOL   H10624494   5.195   6.827   6.889  0.4558 -0.0365 -0.0474
  135MOL   H10724495   5.169   7.030   6.790 -0.1272  0.9809 -1.3706
  135MOL   H10824496   5.283   6.937   6.699  0.6564 -2.0132  0.5239
  135MOL   H10924497   5.127   6.952   6.634  1.6000 -3.5620 -1.3435
  135MOL   C11024498   4.976   6.853   6.851 -0.1296 -0.1091  0.4004
  135MOL   C11124499   4.928   6.793   6.979 -0.6866  0.1182 -0.0096
  135MOL   C11224500   4.992   6.858   7.102  0.6704 -0.5968  0.2027
  135MOL   H11324501   4.953   6.959   6.849 -0.1569 -0.1343 -0.8352
  135MOL   H11424502   4.904   6.832   6.773 -0.4224  0.6547  0.4599
  135MOL   H11524503   4.969   6.692   6.981  1.4117  0.8652 -2.1303
  135MOL   H11624504   5.085   6.908   7.078  0.5498  0.2443  1.3820
  135MOL   H11724505   4.925   6.938   7.134 -2.6673 -2.6940 -1.2526
  135MOL   H11824506   5.011   6.790   7.185  0.4038 -0.5631  0.2928
  135MOL   C11924507   4.770   6.788   6.981 -0.6517 -0.4467 -0.7369
  135MOL   C12024508   4.696   6.751   7.109 -0.2470  0.1857 -0.5341
  135MOL   C12124509   4.554   6.827   7.117 -0.6721 -0.3127  0.2740
  135MOL   H12224510   4.733   6.883   6.942  0.2201  0.7879  1.3567
  135MOL   H12324511   4.734   6.714   6.910 -1.2526 -0.2082 -0.6822
  135MOL   H12424512   4.758   6.796   7.187 -0.8136 -2.7668  1.7608
  135MOL   H12524513   4.512   6.806   7.215 -2.7706  0.7650 -0.3732
  135MOL   H12624514   4.562   6.936   7.122 -1.2290 -0.2945  0.8488
  135MOL   H12724515   4.483   6.798   7.039 -0.5731 -2.3568  0.9198
  135MOL   C12824516   4.681   6.598   7.108  0.4652 -1.0091 -0.0783
  135MOL   C12924517   4.634   6.516   7.234 -0.0779 -0.3472 -0.3243
  135MOL   C13024518   4.485   6.489   7.242  0.7330 -0.5896  0.4656
  135MOL   H13124519   4.599   6.578   7.039 -0.6239  0.6402  0.6880
  135MOL   H13224520   4.766   6.551   7.060 -1.0893 -1.9402 -1.9808
  135MOL   H13324521   4.646   6.575   7.325  0.4980 -0.3924 -0.3719
  135MOL   H13424522   4.463   6.436   7.334 -2.0272  0.7005  0.6124
  135MOL   H13524523   4.423   6.579   7.249 -0.1542 -1.3172  2.1706
  135MOL   H13624524   4.453   6.419   7.165  1.9210 -1.4126  0.7132
  135MOL   C13724525   4.715   6.383   7.251 -0.2077 -0.2983 -0.4383
  135MOL   C13824526   4.871   6.401   7.275  0.6039  0.6697  0.2889
  135MOL   C13924527   4.909   6.499   7.387  0.3317  0.4369 -0.1622
  135MOL   H14024528   4.669   6.335   7.337 -0.4668 -0.4029 -0.6340
  135MOL   H14124529   4.710   6.315   7.166  4.1128 -1.0204 -0.2235
  135MOL   H14224530   4.902   6.441   7.179  0.2438  3.5109  1.2921
  135MOL   H14324531   4.873   6.462   7.483  2.2903 -1.4947 -0.1233
  135MOL   H14424532   5.015   6.524   7.397  0.5117 -0.0288 -0.8440
  135MOL   H14524533   4.862   6.596   7.370  1.1332  0.7974 -0.3963
  135MOL   C14624534   4.945   6.266   7.295  0.1496 -0.8556 -0.7016
  135MOL   C14724535   5.109   6.268   7.270  0.2513 -0.0134 -0.3164
  135MOL   C14824536   5.156   6.162   7.373 -0.6314 -0.2344 -0.0009
  135MOL   H14924537   4.929   6.233   7.397  1.2958  3.4627  0.9913
  135MOL   H15024538   4.904   6.193   7.224 -0.8888 -0.6370 -0.3331
  135MOL   H15124539   5.147   6.366   7.299  0.1970 -0.5325  1.6357
  135MOL   H15224540   5.153   6.188   7.479  0.5274  1.6521 -0.3860
  135MOL   H15324541   5.103   6.068   7.363 -0.3427 -0.4375  0.3482
  135MOL   H15424542   5.261   6.153   7.346 -0.5685 -1.9276  0.7667
  135MOL   C15524543   5.140   6.228   7.128 -0.0923  0.1888  0.1901
  135MOL   C15624544   5.288   6.227   7.081  0.4652 -0.1021 -0.1018
  135MOL   C15724545   5.297   6.179   6.940  0.2448  0.7121  0.7144
  135MOL   H15824546   5.098   6.128   7.118 -1.7180  0.6834  1.9685
  135MOL   H15924547   5.108   6.296   7.049 -1.2770 -1.6982 -0.9851
  135MOL   H16024548   5.339   6.160   7.151 -0.0234 -1.7490 -1.2852
  135MOL   H16124549   5.261   6.077   6.937  2.8580 -0.1864 -1.9670
  135MOL   H16224550   5.269   6.247   6.860 -2.0342  0.6449  1.4051
  135MOL   H16324551   5.401   6.148   6.929  0.0333  0.5733 -0.9855
  135MOL   C16424552   5.348   6.366   7.095  1.0900  0.4717  0.2756
  135MOL   C16524553   5.423   6.428   7.215 -0.0820 -0.0561 -0.1273
  135MOL   C16624554   5.567   6.362   7.225  0.7205  0.2705 -0.1937
  135MOL   H16724555   5.412   6.385   7.009 -0.0367  2.1619 -0.2118
  135MOL   H16824556   5.274   6.442   7.071 -0.1126 -0.3943  1.1890
  135MOL   H16924557   5.377   6.418   7.313  0.8381 -0.0555  0.3181
  135MOL   H17024558   5.632   6.402   7.304  0.5535  0.2184 -0.0284
  135MOL   H17124559   5.554   6.257   7.252  0.3182  0.4381  0.2889
  135MOL   H17224560   5.618   6.361   7.129  0.7295 -1.9459 -0.1985
  135MOL   C17324561   5.445   6.579   7.200 -0.1439  0.1158  0.5527
  135MOL   C17424562   5.338   6.676   7.242 -0.4331  0.0512 -0.3878
  135MOL   C17524563   5.351   6.815   7.186  0.5741 -0.2292  0.3646
  135MOL   H17624564   5.537   6.611   7.249 -0.9655  0.4647  1.8906
  135MOL   H17724565   5.458   6.612   7.097 -0.9714 -0.6181  0.2162
  135MOL   H17824566   5.325   6.676   7.350 -0.8371 -1.1395 -0.4314
  135MOL   H17924567   5.371   6.829   7.080 -0.3785 -0.6831  0.1127
  135MOL   H18024568   5.263   6.876   7.210  0.6639  0.5613 -1.2495
  135MOL   H18124569   5.432   6.860   7.243  1.5151 -0.2164 -0.9547
  135MOL   H18224570   5.244   6.640   7.201 -1.6311  1.0060  1.4495
  136MOL     C124571   4.218   2.254   1.146  0.4096  0.5339  0.1722
  136MOL     C224572   4.176   2.152   1.045 -0.0116 -0.6845 -0.6900
  136MOL     C324573   4.277   2.132   0.933 -0.2863  0.1312 -0.8391
  136MOL     H424574   4.134   2.280   1.211  1.0085 -0.9706  1.5710
  136MOL     H524575   4.237   2.352   1.101  2.9718 -1.6000 -3.6612
  136MOL     H624576   4.082   2.185   1.001 -1.0700 -1.3365  1.0422
  136MOL     H724577   4.371   2.096   0.975  1.0685  1.2287 -2.8493
  136MOL     H824578   4.242   2.055   0.865  1.1837 -1.1781 -0.1538
  136MOL     H924579   4.308   2.224   0.883  1.2697  1.0943  1.7751
  136MOL    H1024580   4.295   2.209   1.209 -0.9006  0.7978  1.9846
  136MOL    C1124581   4.150   2.013   1.096  0.2937  0.4043  0.5136
  136MOL    C1224582   4.043   1.999   1.200  0.2211 -0.0715 -0.4590
  136MOL    C1324583   3.913   2.077   1.155 -0.0679  0.3429  0.0845
  136MOL    H1424584   4.132   1.945   1.012  1.9579 -0.6638  0.9855
  136MOL    H1524585   4.239   1.963   1.134  0.0811  0.2063  0.7543
  136MOL    H1624586   4.088   2.045   1.287 -0.5606  1.9294 -1.0832
  136MOL    H1724587   3.831   2.071   1.227 -0.7426 -1.4656 -0.7909
  136MOL    H1824588   3.931   2.184   1.151  1.1083  0.0919 -2.9162
  136MOL    H1924589   3.875   2.059   1.054  0.0769  0.3183  0.0346
  136MOL    C2024590   4.011   1.845   1.219  0.1397  0.2892  0.3507
  136MOL    C2124591   4.113   1.772   1.306 -0.3930  0.1469 -0.0486
  136MOL    C2224592   4.081   1.781   1.455  0.2522 -0.2547 -0.0549
  136MOL    H2324593   3.914   1.852   1.268 -0.2894  0.2170 -0.4846
  136MOL    H2424594   3.980   1.803   1.123 -1.1520 -0.1439  0.9441
  136MOL    H2524595   4.200   1.835   1.290 -1.6848  2.5956  2.1725
  136MOL    H2624596   3.990   1.732   1.489  1.2405 -2.8173 -0.9958
  136MOL    H2724597   4.153   1.732   1.520 -0.8813 -1.5891  0.2261
  136MOL    H2824598   4.066   1.882   1.494 -1.8492  0.0625 -1.5962
  136MOL    C2924599   4.140   1.626   1.265 -0.2870  0.2061 -0.2250
  136MOL    C3024600   4.263   1.558   1.329 -0.2819  0.2541 -0.1454
  136MOL    C3124601   4.263   1.418   1.273  0.0776 -0.6639 -0.5946
  136MOL    H3224602   4.052   1.562   1.278 -0.2221  0.3155  0.8639
  136MOL    H3324603   4.148   1.633   1.157 -2.7702  1.4803 -0.3656
  136MOL    H3424604   4.247   1.549   1.436  0.8966 -2.5581 -0.1517
  136MOL    H3524605   4.162   1.375   1.277 -0.2318  0.1112 -0.0620
  136MOL    H3624606   4.305   1.412   1.172  1.6280 -2.5521  0.1164
  136MOL    H3724607   4.320   1.357   1.343  0.5777 -0.1996 -0.5964
  136MOL    C3824608   4.392   1.638   1.290  0.2825  0.1306 -0.2179
  136MOL    C3924609   4.523   1.564   1.331  0.0409  0.4510 -0.4409
  136MOL    C4024610   4.642   1.638   1.264  0.1690 -0.5110  0.1325
  136MOL    H4124611   4.383   1.668   1.186 -0.4368  0.2238 -0.1343
  136MOL    H4224612   4.398   1.729   1.350  0.5948  0.2282 -0.3956
  136MOL    H4324613   4.520   1.480   1.261  1.4936 -0.4488  0.5349
  136MOL    H4424614   4.636   1.691   1.169  1.3475  1.3729  1.0758
  136MOL    H4524615   4.676   1.719   1.329 -0.1866 -0.0312 -0.2710
  136MOL    H4624616   4.727   1.571   1.256  0.9791  0.6462 -1.1833
  136MOL    C4724617   4.538   1.520   1.478 -0.9688 -0.6979  0.0119
  136MOL    C4824618   4.670   1.450   1.510 -0.3742  0.8950  0.4014
  136MOL    C4924619   4.685   1.459   1.661 -0.6885  0.0555  0.2842
  136MOL    H5024620   4.537   1.609   1.541  0.1930 -1.1302  0.6605
  136MOL    H5124621   4.452   1.463   1.513  0.0636 -2.1257  0.2717
  136MOL    H5224622   4.758   1.510   1.484  0.2140  0.7162  1.9735
  136MOL    H5324623   4.769   1.400   1.699 -0.8527 -0.0549  0.4714
  136MOL    H5424624   4.699   1.561   1.697 -0.9141  0.0314  0.4394
  136MOL    H5524625   4.595   1.421   1.709 -0.0294  0.4417  1.8647
  136MOL    C5624626   4.679   1.307   1.451  0.0057 -0.7598 -0.3624
  136MOL    C5724627   4.788   1.209   1.491  0.0500 -0.3895 -0.1636
  136MOL    C5824628   4.757   1.128   1.628 -0.7973 -0.4688 -0.6101
  136MOL    H5924629   4.582   1.259   1.459  0.0979 -0.7375  0.9043
  136MOL    H6024630   4.682   1.330   1.344 -0.8144 -2.5410 -0.7758
  136MOL    H6124631   4.879   1.266   1.508 -0.7078  1.8210 -3.0520
  136MOL    H6224632   4.827   1.047   1.647  1.2181  1.1137 -1.0143
  136MOL    H6324633   4.761   1.189   1.718  0.5369 -0.9502 -0.3308
  136MOL    H6424634   4.655   1.090   1.626 -2.2358  3.2170 -0.8078
  136MOL    C6524635   4.817   1.100   1.392 -0.0633 -0.2178  0.7851
  136MOL    C6624636   4.966   1.088   1.354 -0.3921  0.1850  0.3334
  136MOL    C6724637   5.039   0.988   1.442  0.8059 -0.4527 -0.4156
  136MOL    H6824638   4.782   1.000   1.418 -1.1894 -0.3629 -1.2013
  136MOL    H6924639   4.766   1.134   1.302  0.3646 -1.3916  0.0931
  136MOL    H7024640   5.022   1.180   1.370 -4.0433  2.2160  2.0501
  136MOL    H7124641   4.991   0.890   1.447 -0.7604  0.3577  1.1420
  136MOL    H7224642   5.138   0.969   1.401  1.2938 -0.7049  0.8740
  136MOL    H7324643   5.049   1.031   1.542  0.2960  1.5822 -1.2200
  136MOL    C7424644   4.982   1.039   1.209 -0.6835  0.4419  0.1513
  136MOL    C7524645   5.016   1.144   1.097  0.1301  0.3230  0.2847
  136MOL    C7624646   5.052   1.070   0.963 -0.4424  0.4680  0.2746
  136MOL    H7724647   5.063   0.966   1.199 -1.8495 -0.4736 -3.6468
  136MOL    H7824648   4.886   1.001   1.175 -0.0601 -0.6080 -0.4747
  136MOL    H7924649   5.107   1.196   1.126  1.1744 -1.1277 -0.3349
  136MOL    H8024650   4.977   0.999   0.931  1.8527 -0.9146 -2.3092
  136MOL    H8124651   5.065   1.147   0.887  2.0090  2.2843  2.4319
  136MOL    H8224652   5.151   1.024   0.962 -1.6461 -2.2018 -1.5013
  136MOL    C8324653   4.907   1.246   1.075 -0.1955  0.3733  0.3644
  136MOL    C8424654   4.956   1.365   0.985 -0.5821 -0.7359 -0.5835
  136MOL    C8524655   4.835   1.450   0.951 -0.0753  0.0607 -0.4627
  136MOL    H8624656   4.834   1.190   1.018 -1.5749  1.1313  1.3440
  136MOL    H8724657   4.865   1.280   1.170 -0.4898  2.0056 -0.3331
  136MOL    H8824658   4.999   1.326   0.893  3.0017 -0.0239  0.6952
  136MOL    H8924659   4.764   1.388   0.897  1.0543  1.9155 -4.2340
  136MOL    H9024660   4.784   1.479   1.043  0.8941 -1.1664  0.4722
  136MOL    H9124661   4.871   1.535   0.893  0.8606 -0.5962 -0.8576
  136MOL    C9224662   5.064   1.446   1.056 -0.6638  0.0139 -1.2207
  136MOL    C9324663   5.198   1.457   0.978 -0.0968  0.8156 -0.3198
  136MOL    C9424664   5.190   1.529   0.848 -0.5791  0.4263  0.3229
  136MOL    H9524665   5.026   1.543   1.089  0.0793  0.1831 -0.8648
  136MOL    H9624666   5.092   1.400   1.151 -0.0712  0.8674 -0.9753
  136MOL    H9724667   5.223   1.353   0.957 -2.3993  0.6992 -2.6815
  136MOL    H9824668   5.151   1.629   0.870  0.9193  1.1688 -0.3026
  136MOL    H9924669   5.285   1.536   0.795 -0.3026  1.9754  0.9857
  136MOL   H10024670   5.115   1.495   0.777  0.7996 -0.3342 -0.7898
  136MOL   C10124671   5.306   1.530   1.063  0.7292 -0.3127  0.5807
  136MOL   C10224672   5.392   1.431   1.145 -0.9649  0.2759  0.3321
  136MOL   C10324673   5.447   1.320   1.041  0.0493  0.0655 -0.3643
  136MOL   H10424674   5.366   1.601   1.005 -2.1313  0.0860 -2.0294
  136MOL   H10524675   5.263   1.604   1.129  0.2827  1.0276 -1.1611
  136MOL   H10624676   5.331   1.373   1.214 -0.0669 -1.5951 -0.4124
  136MOL   H10724677   5.400   1.222   1.050 -0.1994  0.0675 -1.5002
  136MOL   H10824678   5.444   1.344   0.935  1.2557 -0.1045 -0.4399
  136MOL   H10924679   5.550   1.287   1.049 -0.4307 -1.6544 -0.9101
  136MOL   C11024680   5.510   1.504   1.215 -0.1097  0.4155  0.6063
  136MOL   C11124681   5.474   1.590   1.332 -0.2323  0.0708  0.2909
  136MOL   C11224682   5.391   1.522   1.438  0.0887 -0.3643  0.2707
  136MOL   H11324683   5.566   1.420   1.254  0.4997 -0.0181 -1.1288
  136MOL   H11424684   5.566   1.560   1.139  0.6269 -2.7814 -1.3193
  136MOL   H11524685   5.414   1.669   1.286  0.4912  0.4240 -0.0534
  136MOL   H11624686   5.374   1.602   1.510 -1.0544  0.9181 -1.4007
  136MOL   H11724687   5.290   1.503   1.402  0.3049  1.1670 -1.2146
  136MOL   H11824688   5.429   1.439   1.498  0.8017  0.4137  0.8972
  136MOL   C11924689   5.595   1.653   1.413  0.5633  0.5345 -0.5443
  136MOL   C12024690   5.685   1.747   1.337 -0.1754 -0.7658  0.7296
  136MOL   C12124691   5.614   1.876   1.339 -0.7639  0.8526  0.2734
  136MOL   H12224692   5.553   1.703   1.500  1.5813 -0.2288  0.3964
  136MOL   H12324693   5.656   1.568   1.442 -1.0883 -0.6995 -0.6387
  136MOL   H12424694   5.696   1.710   1.235 -0.8557  0.8604  0.0520
  136MOL   H12524695   5.516   1.863   1.294 -1.1002 -0.1544  1.2502
  136MOL   H12624696   5.604   1.931   1.433  0.6094  0.5982  0.5788
  136MOL   H12724697   5.654   1.941   1.261 -2.3419 -1.3491 -2.4504
  136MOL   C12824698   5.830   1.758   1.409  0.3777 -0.5571 -1.1255
  136MOL   C12924699   5.931   1.844   1.340 -0.4526  0.2638  0.4754
  136MOL   C13024700   6.030   1.897   1.435 -0.1984 -0.3366  0.5960
  136MOL   H13124701   5.822   1.786   1.514 -0.3200 -1.3479 -0.9652
  136MOL   H13224702   5.874   1.659   1.413 -0.4817 -0.9462 -1.1625
  136MOL   H13324703   5.887   1.934   1.296 -0.5546  0.5462  1.1553
  136MOL   H13424704   6.100   1.969   1.393 -1.7062  0.5670 -0.4160
  136MOL   H13524705   5.985   1.948   1.520  0.3889  0.1457  0.6144
  136MOL   H13624706   6.084   1.808   1.467  0.0903 -0.0394  0.9389
  136MOL   C13724707   6.000   1.778   1.217  0.2888  0.3990  0.3514
  136MOL   C13824708   6.102   1.851   1.137 -0.2211  0.1431 -0.4368
  136MOL   C13924709   6.254   1.815   1.197  0.6812 -0.0738  0.4576
  136MOL   H14024710   6.041   1.682   1.248  0.0143  0.3066  0.4347
  136MOL   H14124711   5.921   1.740   1.152  0.1593  0.0047  0.7327
  136MOL   H14224712   6.095   1.960   1.141  1.2713  0.1766  3.2574
  136MOL   H14324713   6.328   1.868   1.138  0.7721 -1.4818 -0.7320
  136MOL   H14424714   6.268   1.852   1.298  0.8446 -1.2169  0.8650
  136MOL   H14524715   6.282   1.709   1.197 -2.7268 -1.0802 -0.9346
  136MOL   C14624716   6.099   1.805   0.993 -0.5681 -0.5405  0.2972
  136MOL   C14724717   5.976   1.852   0.905 -0.9132 -0.3631 -0.0075
  136MOL   C14824718   6.034   1.950   0.807  0.2877 -0.6863  0.2106
  136MOL   H14924719   6.191   1.847   0.951 -0.3758  0.4525  1.6865
  136MOL   H15024720   6.106   1.697   0.982 -1.4536 -0.5715 -0.0264
  136MOL   H15124721   5.900   1.898   0.967 -1.2890 -0.0470 -0.6924
  136MOL   H15224722   6.079   1.885   0.731  1.1619 -0.7470  0.7749
  136MOL   H15324723   5.958   2.016   0.765 -1.5116 -1.4877  2.0929
  136MOL   H15424724   6.116   2.014   0.840  1.1802 -2.2438  1.0829
  136MOL   C15524725   5.907   1.724   0.845  0.3895  0.2069  0.6360
  136MOL   C15624726   5.820   1.743   0.719  0.1271 -0.4659 -0.2333
  136MOL   C15724727   5.817   1.602   0.647 -0.0140  0.5340  0.1170
  136MOL   H15824728   5.983   1.650   0.824  0.5403  0.5716 -0.1231
  136MOL   H15924729   5.838   1.680   0.917 -1.1939 -1.6393 -1.9285
  136MOL   H16024730   5.863   1.815   0.649  0.8089  0.8478  1.4897
  136MOL   H16124731   5.916   1.593   0.603  0.8213  2.3550  1.5530
  136MOL   H16224732   5.804   1.509   0.702 -1.1644 -0.2556 -1.4799
  136MOL   H16324733   5.744   1.615   0.568 -1.5431  2.7970  1.8335
  136MOL   C16424734   5.674   1.793   0.743 -0.3401 -0.6183  0.7376
  136MOL   C16524735   5.659   1.944   0.775  0.2797 -0.6518  0.3162
  136MOL   C16624736   5.652   2.039   0.646  0.0309  0.0490 -0.3229
  136MOL   H16724737   5.632   1.786   0.642  0.2115 -1.7219  0.5744
  136MOL   H16824738   5.613   1.728   0.806 -3.4255  0.2158 -1.2716
  136MOL   H16924739   5.742   1.963   0.843 -0.2503 -4.0883  2.0419
  136MOL   H17024740   5.712   1.993   0.567  1.8683  0.7291  0.6488
  136MOL   H17124741   5.553   2.032   0.601  0.2128  4.1649 -1.5346
  136MOL   H17224742   5.690   2.139   0.663 -0.9389  0.6788 -1.7451
  136MOL   C17324743   5.527   1.978   0.848 -0.0334  0.3489  0.2502
  136MOL   C17424744   5.519   1.909   0.989 -0.3910 -0.0829  0.2122
  136MOL   C17524745   5.370   1.868   1.001 -0.2443  0.5842 -0.5837
  136MOL   H17624746   5.521   2.087   0.858 -1.7156  0.0503  2.9612
  136MOL   H17724747   5.445   1.940   0.788 -0.6574  1.3236  0.4608
  136MOL   H17824748   5.550   1.980   1.066 -0.4178 -0.4219  0.5347
  136MOL   H17924749   5.296   1.947   1.008  0.1726  0.8335  1.4647
  136MOL   H18024750   5.334   1.805   0.920  0.0042 -0.6537  0.2411
  136MOL   H18124751   5.359   1.812   1.095 -1.3546 -0.8885 -1.5587
  136MOL   H18224752   5.573   1.816   1.004 -3.0097 -1.2674  2.5405
  137MOL     C124753   1.722   6.983   4.468 -0.3117 -0.1031  0.1280
  137MOL     C224754   1.861   6.926   4.407  0.0308  0.3805 -0.0382
  137MOL     C324755   1.860   6.949   4.259  0.2011  1.1775 -1.0391
  137MOL     H424756   1.717   7.089   4.442 -1.6661 -0.0898  0.4136
  137MOL     H524757   1.710   6.957   4.573 -2.2988  0.6889  0.1230
  137MOL     H624758   1.865   6.818   4.413  1.9347  0.4139 -0.4107
  137MOL     H724759   1.952   6.907   4.220  1.2311  2.1086  0.3446
  137MOL     H824760   1.788   6.885   4.208  1.0831  0.0920 -0.9466
  137MOL     H924761   1.837   7.051   4.229  1.0080  2.0003  1.0463
  137MOL    H1024762   1.641   6.930   4.418 -0.2241 -0.1359  0.0197
  137MOL    C1124763   1.988   6.997   4.481  0.3080 -0.1190 -0.2345
  137MOL    C1224764   2.095   6.897   4.530  1.3832 -0.7421 -0.5913
  137MOL    C1324765   2.165   6.827   4.418 -0.0199  0.1761 -0.5137
  137MOL    H1424766   2.031   7.067   4.409  0.8716 -1.7845 -1.5722
  137MOL    H1524767   1.948   7.062   4.558  0.2588 -1.6628  1.0690
  137MOL    H1624768   2.039   6.823   4.586 -0.0710  1.4411  0.9063
  137MOL    H1724769   2.103   6.749   4.372 -1.1453  1.1407 -0.6505
  137MOL    H1824770   2.209   6.892   4.343 -0.2487  0.9855  0.0464
  137MOL    H1924771   2.253   6.773   4.452 -1.2066 -0.3786  1.8137
  137MOL    C2024772   2.187   6.980   4.625  0.2454 -0.4668  0.4384
  137MOL    C2124773   2.222   6.916   4.759 -0.1482  0.4711  0.2946
  137MOL    C2224774   2.092   6.902   4.845  0.0716 -0.0948 -0.6311
  137MOL    H2324775   2.282   7.008   4.579  0.3135 -2.4415 -0.6376
  137MOL    H2424776   2.133   7.071   4.652 -0.9018 -0.9292 -0.2789
  137MOL    H2524777   2.280   6.987   4.818  2.8183 -1.0932 -0.6717
  137MOL    H2624778   2.023   6.828   4.803 -0.0032  0.3501 -1.2887
  137MOL    H2724779   2.124   6.872   4.945  0.3459 -1.1366 -1.0219
  137MOL    H2824780   2.042   6.995   4.871 -0.0317 -0.1897 -0.4834
  137MOL    C2924781   2.299   6.785   4.734 -0.2084 -0.2554 -0.6535
  137MOL    C3024782   2.359   6.711   4.852  0.0397 -0.5708 -0.2817
  137MOL    C3124783   2.442   6.599   4.796  0.1366  0.5338 -0.4367
  137MOL    H3224784   2.244   6.718   4.668 -0.3003 -0.9354  0.1026
  137MOL    H3324785   2.378   6.809   4.664  1.8786  0.2894  1.8348
  137MOL    H3424786   2.269   6.671   4.900  0.4277  0.5869  1.4594
  137MOL    H3524787   2.474   6.538   4.881 -0.8638  0.8821  0.2035
  137MOL    H3624788   2.388   6.536   4.725  0.8743 -1.5686  0.8001
  137MOL    H3724789   2.536   6.633   4.753 -0.0005 -0.4522 -1.5533
  137MOL    C3824790   2.437   6.812   4.952 -0.7079 -0.3179 -0.4685
  137MOL    C3924791   2.503   6.752   5.081  0.1210  0.5951 -0.7002
  137MOL    C4024792   2.641   6.823   5.107  0.7407 -0.2112  0.5382
  137MOL    H4124793   2.516   6.866   4.901 -0.8210  0.1624 -0.1404
  137MOL    H4224794   2.382   6.896   4.994 -0.8768  0.5901 -2.4532
  137MOL    H4324795   2.535   6.649   5.063  0.0976  0.6604 -1.1364
  137MOL    H4424796   2.701   6.816   5.016 -0.0388  0.7692 -0.0622
  137MOL    H4524797   2.620   6.922   5.147  0.4317  0.4542 -1.2071
  137MOL    H4624798   2.702   6.772   5.181 -0.1169 -0.4797  1.0640
  137MOL    C4724799   2.414   6.749   5.206 -0.2501  0.7682 -0.3226
  137MOL    C4824800   2.297   6.648   5.206 -0.0343  0.5301 -0.5650
  137MOL    C4924801   2.350   6.502   5.229  1.1972 -0.0866 -0.1453
  137MOL    H5024802   2.484   6.736   5.288 -0.2489  1.0636 -0.2769
  137MOL    H5124803   2.373   6.849   5.216 -1.8782  0.3028 -1.9987
  137MOL    H5224804   2.257   6.643   5.105  1.1276 -1.6598 -0.9538
  137MOL    H5324805   2.277   6.430   5.265  0.6594  0.6859  0.3445
  137MOL    H5424806   2.382   6.461   5.134  0.2659  0.3282 -0.6482
  137MOL    H5524807   2.430   6.494   5.303  0.4535  0.9930  0.8028
  137MOL    C5624808   2.198   6.689   5.321 -0.1907  0.5321 -0.6887
  137MOL    C5724809   2.056   6.644   5.303 -0.1171  0.3983 -0.5764
  137MOL    C5824810   1.984   6.661   5.444 -0.2996  0.3144  0.1384
  137MOL    H5924811   2.245   6.646   5.410  3.5480 -0.5383 -3.0582
  137MOL    H6024812   2.194   6.798   5.325 -1.0988  0.6423 -3.4336
  137MOL    H6124813   2.060   6.539   5.277  1.4067 -0.0143  1.2698
  137MOL    H6224814   2.034   6.596   5.515 -1.7248 -1.9011 -0.8535
  137MOL    H6324815   1.977   6.763   5.481 -2.1955 -0.3188  1.5719
  137MOL    H6424816   1.890   6.609   5.457 -0.5781  0.5734 -0.7899
  137MOL    C6524817   1.989   6.731   5.190 -0.5258  0.7677 -0.3897
  137MOL    C6624818   1.859   6.676   5.136 -0.1541  0.7951  0.2530
  137MOL    C6724819   1.804   6.781   5.040 -0.1730  0.1878 -0.5325
  137MOL    H6824820   1.977   6.834   5.223  1.3765  0.5900  0.9392
  137MOL    H6924821   2.063   6.720   5.111  0.2738 -2.5571  0.7487
  137MOL    H7024822   1.789   6.668   5.219 -1.3036  0.0915 -0.7507
  137MOL    H7124823   1.859   6.812   4.951 -3.3367  1.7735 -2.0198
  137MOL    H7224824   1.706   6.744   5.010  0.2565 -0.5694 -1.0285
  137MOL    H7324825   1.776   6.872   5.093  1.4235  0.1100  0.4698
  137MOL    C7424826   1.857   6.533   5.082  0.1300  0.0078  0.3107
  137MOL    C7524827   1.951   6.507   4.967 -0.2506 -0.1307  0.5854
  137MOL    C7624828   2.062   6.401   4.997  0.2686 -0.2410 -0.4506
  137MOL    H7724829   1.865   6.459   5.162 -1.7790 -2.3523 -1.5937
  137MOL    H7824830   1.759   6.529   5.035  0.0496 -1.1090  0.5667
  137MOL    H7924831   2.017   6.594   4.962  1.6355 -1.4929  1.0523
  137MOL    H8024832   2.161   6.445   4.989  0.4534 -0.7323 -0.9449
  137MOL    H8124833   2.060   6.355   5.096  0.5217  1.7390  0.4848
  137MOL    H8224834   2.077   6.312   4.935  0.3130 -2.0912  2.1144
  137MOL    C8324835   1.895   6.484   4.827 -0.2365  0.4988 -0.2652
  137MOL    C8424836   1.983   6.525   4.701 -0.9444  0.0554  0.1475
  137MOL    C8524837   2.097   6.423   4.675  0.1861 -0.1242 -0.2999
  137MOL    H8624838   1.865   6.379   4.825 -3.2034  1.2995 -1.3112
  137MOL    H8724839   1.801   6.539   4.825 -0.1732  0.5780 -1.2102
  137MOL    H8824840   2.033   6.616   4.733 -1.7937  0.5634  0.0183
  137MOL    H8924841   2.160   6.397   4.760  0.0555  2.0245  0.4807
  137MOL    H9024842   2.072   6.332   4.621  0.5233  0.0033 -0.6808
  137MOL    H9124843   2.158   6.471   4.598 -0.1753 -1.0883 -1.1903
  137MOL    C9224844   1.902   6.571   4.582  0.8291 -0.1104  0.6978
  137MOL    C9324845   1.828   6.465   4.496 -0.3980  0.1263  0.2814
  137MOL    C9424846   1.691   6.509   4.449  0.4302 -0.1747 -0.0703
  137MOL    H9524847   1.842   6.658   4.608  0.9462 -0.0897  0.9003
  137MOL    H9624848   1.979   6.598   4.509  1.0311 -2.2785  0.0671
  137MOL    H9724849   1.813   6.385   4.568  1.1754 -1.4513 -1.1174
  137MOL    H9824850   1.696   6.602   4.392 -1.6915  0.3748  0.5918
  137MOL    H9924851   1.637   6.426   4.404 -0.1003  0.5941 -0.8703
  137MOL   H10024852   1.638   6.527   4.543  2.6201 -1.5463  1.4825
  137MOL   C10124853   1.911   6.408   4.385 -0.3236  0.4077 -0.0896
  137MOL   C10224854   1.858   6.268   4.332  0.1606  0.0330  0.1058
  137MOL   C10324855   1.926   6.239   4.195 -0.3111  0.6801  0.2559
  137MOL   H10424856   1.915   6.484   4.307 -0.2919 -0.2480 -0.7278
  137MOL   H10524857   2.015   6.389   4.409  0.2951  1.2764 -1.9407
  137MOL   H10624858   1.751   6.281   4.314  0.7010  1.4998 -2.3314
  137MOL   H10724859   2.034   6.248   4.206 -0.2346  1.0051 -0.6749
  137MOL   H10824860   1.885   6.144   4.160 -2.5189  1.5565  0.3355
  137MOL   H10924861   1.897   6.316   4.123  0.1318 -1.8102 -2.6870
  137MOL   C11024862   1.871   6.155   4.430 -0.1859 -1.0121  0.0294
  137MOL   C11124863   1.790   6.030   4.385  0.0280  0.2184 -0.6358
  137MOL   C11224864   1.885   5.904   4.382 -0.0914  0.2341  0.6864
  137MOL   H11324865   1.978   6.130   4.431 -0.2973 -1.4761  1.6712
  137MOL   H11424866   1.853   6.181   4.534 -2.2273  0.8517 -0.7554
  137MOL   H11524867   1.754   6.036   4.282 -2.4949 -2.2822  0.0392
  137MOL   H11624868   1.831   5.813   4.356  0.8127  0.3713 -1.7651
  137MOL   H11724869   1.964   5.923   4.310  0.6027 -0.0950  1.3636
  137MOL   H11824870   1.926   5.886   4.482  1.6288  1.1404  0.1628
  137MOL   C11924871   1.679   6.003   4.489 -0.7875 -0.1569  0.3483
  137MOL   C12024872   1.556   6.091   4.457  0.1264 -0.0060  0.3346
  137MOL   C12124873   1.482   6.041   4.325 -0.1029 -0.1124 -0.2883
  137MOL   H12224874   1.652   5.897   4.491  4.2414 -1.5393  1.4227
  137MOL   H12324875   1.718   6.019   4.590  1.4824 -2.0348 -0.1910
  137MOL   H12424876   1.586   6.196   4.450  1.1440 -0.2923  0.3310
  137MOL   H12524877   1.380   6.078   4.311 -1.2291 -1.6771  3.1710
  137MOL   H12624878   1.529   6.061   4.229  0.3097  0.9655  0.1325
  137MOL   H12724879   1.471   5.932   4.333  2.8590 -0.3669  0.9625
  137MOL   C12824880   1.446   6.085   4.562 -0.6854  0.1569  0.4656
  137MOL   C12924881   1.470   6.141   4.700  0.4236 -0.0184  0.1821
  137MOL   C13024882   1.432   6.284   4.709 -0.3844 -0.0815 -0.1799
  137MOL   H13124883   1.358   6.138   4.524 -0.3948 -1.6687 -2.8874
  137MOL   H13224884   1.419   5.982   4.582  0.8672 -0.2577  0.4549
  137MOL   H13324885   1.578   6.133   4.710  0.4467 -0.4959 -0.4232
  137MOL   H13424886   1.323   6.290   4.716 -0.5221 -0.0260 -2.0268
  137MOL   H13524887   1.481   6.330   4.795  0.9143 -2.5022  0.4316
  137MOL   H13624888   1.458   6.339   4.619 -2.5833 -0.4441 -1.0751
  137MOL   C13724889   1.411   6.051   4.804  1.0903  0.5557 -0.0361
  137MOL   C13824890   1.437   6.083   4.955  0.3649 -0.0560 -0.0071
  137MOL   C13924891   1.302   6.060   5.041  0.0568 -1.4967  0.2296
  137MOL   H14024892   1.302   6.059   4.796  1.0939 -0.3612 -0.9911
  137MOL   H14124893   1.426   5.945   4.787 -1.6610  0.6893 -4.1802
  137MOL   H14224894   1.452   6.190   4.968  1.0192 -0.0955 -0.4305
  137MOL   H14324895   1.280   5.954   5.052  0.5496 -1.7269 -0.9599
  137MOL   H14424896   1.321   6.085   5.146 -0.4942  1.7018 -0.3682
  137MOL   H14524897   1.219   6.123   5.008  1.4249  0.3977  0.2973
  137MOL   C14624898   1.550   5.998   5.009  0.2761 -0.1399  0.0897
  137MOL   C14724899   1.691   6.049   4.970  0.1488 -0.0749 -0.5199
  137MOL   C14824900   1.699   6.203   4.998  0.3658  0.5485  0.2935
  137MOL   H14924901   1.541   6.005   5.118 -0.3206  0.0994  0.0303
  137MOL   H15024902   1.522   5.895   4.991  0.9232  0.0414 -2.0513
  137MOL   H15124903   1.701   6.013   4.868  0.7401 -0.7186 -0.2421
  137MOL   H15224904   1.658   6.251   4.910  1.5267  0.9317 -0.0524
  137MOL   H15324905   1.657   6.240   5.091  2.1843 -0.0274  1.3658
  137MOL   H15424906   1.804   6.232   4.997  0.3345  0.6881  1.0353
  137MOL   C15524907   1.809   5.976   5.045  0.1710 -0.1076  0.6322
  137MOL   C15624908   1.828   5.827   5.018  0.2709 -0.1207  0.7791
  137MOL   C15724909   1.859   5.803   4.864  0.3123 -0.7536  0.0780
  137MOL   H15824910   1.897   6.037   5.026  1.4549 -2.3675 -0.7129
  137MOL   H15924911   1.795   5.992   5.152  2.0017 -0.1892  0.8983
  137MOL   H16024912   1.732   5.782   5.044 -0.0492  0.5927  0.8349
  137MOL   H16124913   1.914   5.710   4.847  1.8900  0.2038 -0.2023
  137MOL   H16224914   1.764   5.809   4.809  0.4903  1.7229 -0.0320
  137MOL   H16324915   1.924   5.880   4.822 -1.8669  1.0869 -0.0545
  137MOL   C16424916   1.938   5.759   5.104  0.2343 -0.4232 -0.3546
  137MOL   C16524917   1.954   5.604   5.106  0.5369 -0.3650  0.0242
  137MOL   C16624918   2.099   5.564   5.132  0.5321  0.1003  0.2729
  137MOL   H16724919   2.032   5.806   5.074 -0.3959  0.0846 -1.6242
  137MOL   H16824920   1.928   5.779   5.210 -0.0360 -1.0028 -0.2689
  137MOL   H16924921   1.927   5.563   5.009 -0.7909 -2.3184  1.1948
  137MOL   H17024922   2.130   5.596   5.232  1.7847  0.4341 -0.2098
  137MOL   H17124923   2.117   5.457   5.145  1.4388  0.1747 -0.3053
  137MOL   H17224924   2.174   5.601   5.062  0.1147  1.2035  0.3992
  137MOL   C17324925   1.860   5.542   5.209  0.0016  0.5988  0.4277
  137MOL   C17424926   1.859   5.389   5.202 -0.1496 -0.8924 -0.2365
  137MOL   C17524927   1.753   5.321   5.285  0.1366  0.2520  0.0942
  137MOL   H17624928   1.875   5.560   5.316  1.3093 -2.1599  0.7315
  137MOL   H17724929   1.760   5.574   5.181  0.8521  2.7176 -0.2767
  137MOL   H17824930   1.950   5.347   5.246  0.1531  1.0653  1.0821
  137MOL   H17924931   1.650   5.341   5.253 -0.1742 -2.8974 -1.0116
  137MOL   H18024932   1.768   5.214   5.276 -1.5020 -0.0761  0.9342
  137MOL   H18124933   1.764   5.352   5.390 -2.1651  0.4090  0.3266
  137MOL   H18224934   1.863   5.347   5.102 -2.0422 -2.4396  0.3139
  138MOL     C124935   5.036   4.028   0.904 -0.4965  0.1656  0.5773
  138MOL     C224936   5.052   3.905   0.992 -0.2494 -0.5943  0.4043
  138MOL     C324937   5.196   3.898   1.047 -0.2637  0.6609 -0.0260
  138MOL     H424938   5.106   4.027   0.821 -1.1176 -1.7422  0.0599
  138MOL     H524939   5.048   4.121   0.961 -3.0875  0.6614  0.4008
  138MOL     H624940   5.033   3.823   0.923 -1.3105 -0.8300  0.9745
  138MOL     H724941   5.210   3.804   1.102  0.2664  0.3157 -0.7512
  138MOL     H824942   5.255   3.888   0.956 -2.5036  1.3191 -1.6111
  138MOL     H924943   5.229   3.984   1.104  2.2619  0.3829 -0.9992
  138MOL    H1024944   4.941   4.026   0.850 -1.9395 -0.7983  3.0588
  138MOL    C1124945   4.930   3.897   1.095 -0.4896  0.1113 -0.1380
  138MOL    C1224946   4.928   3.774   1.193 -0.2324 -0.6377  0.2734
  138MOL    C1324947   4.842   3.809   1.319 -0.3258 -0.5587  0.4037
  138MOL    H1424948   4.941   3.989   1.152  1.2744 -0.3860  0.3511
  138MOL    H1524949   4.831   3.893   1.049 -1.5117  1.8719  1.8297
  138MOL    H1624950   5.031   3.772   1.231  0.0302 -2.1021 -0.4636
  138MOL    H1724951   4.879   3.896   1.372  1.9126  0.1790 -2.2480
  138MOL    H1824952   4.738   3.831   1.292 -0.0011  0.3603 -0.1303
  138MOL    H1924953   4.853   3.722   1.383  1.3143 -1.0054 -0.4595
  138MOL    C2024954   4.877   3.651   1.124  0.3902  0.8386 -0.7201
  138MOL    C2124955   4.881   3.514   1.196  0.3215 -0.0046 -0.6640
  138MOL    C2224956   4.824   3.414   1.100 -0.2303  0.1572 -0.3377
  138MOL    H2324957   4.773   3.672   1.097 -0.9034 -3.6405  0.3413
  138MOL    H2424958   4.934   3.647   1.031  0.0563 -3.3925 -0.8147
  138MOL    H2524959   4.816   3.535   1.280  0.9599  2.0215 -0.6604
  138MOL    H2624960   4.723   3.437   1.067 -1.4450  2.3290  4.5205
  138MOL    H2724961   4.886   3.394   1.012  0.5883 -1.2196  0.5348
  138MOL    H2824962   4.813   3.318   1.150  0.5707  1.3009  2.1038
  138MOL    C2924963   5.024   3.466   1.237 -0.5764 -0.8180  0.3791
  138MOL    C3024964   5.050   3.324   1.286 -0.0402 -0.1293 -0.7102
  138MOL    C3124965   5.202   3.301   1.316 -0.2770  0.1133 -0.0998
  138MOL    H3224966   5.077   3.485   1.144 -3.6394  0.5589 -1.1574
  138MOL    H3324967   5.055   3.539   1.311  1.0742  1.0364 -2.0642
  138MOL    H3424968   5.031   3.255   1.204 -1.1145 -1.2844  0.4734
  138MOL    H3524969   5.223   3.194   1.323  2.6262  0.7685  2.3407
  138MOL    H3624970   5.263   3.331   1.230 -1.4418  0.1236 -0.9381
  138MOL    H3724971   5.243   3.343   1.408 -1.9123  1.5407 -0.0109
  138MOL    C3824972   4.959   3.295   1.408 -0.3685  0.8233 -0.5062
  138MOL    C3924973   5.000   3.162   1.478  0.4029  0.4346 -0.0175
  138MOL    C4024974   4.915   3.154   1.603 -0.6350  0.1329 -0.0273
  138MOL    H4124975   4.963   3.376   1.480 -1.4705  0.7364 -0.3345
  138MOL    H4224976   4.858   3.298   1.368  0.5586  1.6718 -2.8769
  138MOL    H4324977   5.104   3.175   1.505 -0.0901 -0.1016  2.2661
  138MOL    H4424978   4.980   3.085   1.659  0.1303  0.6177 -0.3181
  138MOL    H4524979   4.930   3.246   1.658  1.6741 -0.6737  0.7592
  138MOL    H4624980   4.815   3.111   1.594 -0.5840  0.1142 -0.5050
  138MOL    C4724981   4.987   3.037   1.388 -0.1474  0.2357 -0.2288
  138MOL    C4824982   5.008   2.901   1.458  0.4869 -0.8087  0.4711
  138MOL    C4924983   4.956   2.787   1.377  0.1135  0.1040  0.2854
  138MOL    H5024984   4.885   3.053   1.353  0.2829  1.0612 -1.1433
  138MOL    H5124985   5.048   3.033   1.298 -0.6561 -0.5960 -0.5393
  138MOL    H5224986   4.949   2.891   1.548  0.1480 -0.1270  0.3302
  138MOL    H5324987   4.980   2.684   1.404  0.4015  0.1643  0.2658
  138MOL    H5424988   4.850   2.785   1.355  0.3542  2.8830 -1.3987
  138MOL    H5524989   4.991   2.790   1.274  1.0916 -1.3978  0.5532
  138MOL    C5624990   5.146   2.883   1.509 -0.6144 -0.0437 -0.0503
  138MOL    C5724991   5.149   2.842   1.659 -0.1881 -0.0757  0.3844
  138MOL    C5824992   5.116   2.694   1.669  0.7841 -0.5246 -0.8890
  138MOL    H5924993   5.205   2.819   1.445  1.4280 -1.8279  3.4547
  138MOL    H6024994   5.208   2.970   1.488 -0.0118  0.2321  2.6046
  138MOL    H6124995   5.074   2.890   1.722  0.3568 -0.3410  1.2333
  138MOL    H6224996   5.014   2.676   1.636 -0.7925  0.6850  2.9735
  138MOL    H6324997   5.173   2.633   1.599 -0.0175 -0.0194 -2.0011
  138MOL    H6424998   5.148   2.654   1.766  0.3490  3.4070  0.9869
  138MOL    C6524999   5.295   2.871   1.717  0.3803 -0.0178  0.0693
  138MOL    C6625000   5.320   3.018   1.745  0.6917  0.1044 -1.0471
  138MOL    C6725001   5.242   3.057   1.875 -0.2030 -0.1869 -0.1351
  138MOL    H6825002   5.322   2.816   1.807 -3.5142  0.6192  1.7540
  138MOL    H6925003   5.360   2.829   1.640 -0.6047  2.3580 -2.1231
  138MOL    H7025004   5.276   3.086   1.671  0.3911  0.4264 -0.5754
  138MOL    H7125005   5.135   3.043   1.857  0.1102 -0.9075 -1.4619
  138MOL    H7225006   5.277   2.999   1.961 -1.0218 -0.8051 -0.2138
  138MOL    H7325007   5.253   3.161   1.905  1.6699 -0.9986  2.1321
  138MOL    C7425008   5.473   3.053   1.737  0.7843 -0.5782 -0.1230
  138MOL    C7525009   5.501   3.084   1.593  0.0935  0.0883  0.1430
  138MOL    C7625010   5.493   3.236   1.569 -0.1758 -0.1186 -0.0716
  138MOL    H7725011   5.496   3.138   1.802  0.1750 -0.8724  0.4877
  138MOL    H7825012   5.533   2.976   1.785  1.6276 -0.1138 -0.4228
  138MOL    H7925013   5.426   3.042   1.525  0.8378 -1.1307  0.0552
  138MOL    H8025014   5.484   3.259   1.463  0.5461  2.0875  0.3144
  138MOL    H8125015   5.412   3.275   1.630  0.0428 -1.0770  0.8483
  138MOL    H8225016   5.586   3.287   1.596  0.9271 -1.2938 -1.6165
  138MOL    C8325017   5.638   3.028   1.554 -0.3254  0.1504  0.3348
  138MOL    C8425018   5.684   3.041   1.403 -0.3817 -0.4977  0.0341
  138MOL    C8525019   5.829   3.062   1.385 -0.3449  0.1534 -0.7067
  138MOL    H8625020   5.714   3.078   1.613  0.5088  0.0619 -0.6457
  138MOL    H8725021   5.660   2.927   1.588  1.6466  0.2095 -0.7080
  138MOL    H8825022   5.651   3.138   1.366 -1.6321 -1.2355 -0.8143
  138MOL    H8925023   5.907   2.998   1.426  0.0698  0.3132 -1.2334
  138MOL    H9025024   5.864   3.070   1.281  1.0899  4.0205  0.0024
  138MOL    H9125025   5.856   3.163   1.416 -1.1550 -0.0443  0.6558
  138MOL    C9225026   5.642   2.921   1.312  0.1221  0.0397 -0.3867
  138MOL    C9325027   5.493   2.882   1.299 -0.2696 -0.0911  0.3743
  138MOL    C9425028   5.407   2.986   1.232  0.3410 -0.6511 -0.3421
  138MOL    H9525029   5.680   2.929   1.210 -0.2286  3.2290 -0.3195
  138MOL    H9625030   5.701   2.839   1.353 -0.3889  0.0625  0.3994
  138MOL    H9725031   5.452   2.871   1.400 -1.2703 -1.0067 -0.1224
  138MOL    H9825032   5.419   3.085   1.276  0.4657 -1.5833  1.7659
  138MOL    H9925033   5.431   2.995   1.126 -1.5067 -3.4934 -1.0729
  138MOL   H10025034   5.300   2.964   1.240  0.2043 -1.1453 -2.9082
  138MOL   C10125035   5.475   2.742   1.225  0.1000 -0.3747 -0.5928
  138MOL   C10225036   5.554   2.621   1.271  0.5093  0.2258  0.5452
  138MOL   C10325037   5.525   2.588   1.421 -0.1605 -0.3766 -0.1673
  138MOL   H10425038   5.371   2.713   1.237  0.3094 -1.0590 -0.3845
  138MOL   H10525039   5.479   2.753   1.116  0.9512 -1.4503 -0.6812
  138MOL   H10625040   5.662   2.637   1.265  0.4506 -0.0601 -1.7160
  138MOL   H10725041   5.417   2.577   1.432 -0.0711  0.7080  2.0812
  138MOL   H10825042   5.571   2.497   1.459  1.6701 -0.0306 -1.4898
  138MOL   H10925043   5.554   2.667   1.490 -1.5831  0.6693 -0.7499
  138MOL   C11025044   5.506   2.494   1.186 -0.3227  0.5425  0.2079
  138MOL   C11125045   5.593   2.366   1.206  0.2055 -0.0361 -1.0019
  138MOL   C11225046   5.521   2.240   1.145  0.3579  0.5834 -0.0292
  138MOL   H11325047   5.400   2.483   1.207 -1.2558  2.2706 -3.1385
  138MOL   H11425048   5.511   2.517   1.079 -3.9907 -2.2344 -0.6543
  138MOL   H11525049   5.590   2.351   1.314  0.3550  1.8161 -0.7245
  138MOL   H11625050   5.415   2.233   1.169  0.7412  0.1698  1.5697
  138MOL   H11725051   5.524   2.240   1.036  1.6124  2.4869 -0.0167
  138MOL   H11825052   5.575   2.160   1.195 -0.3282  0.7790  1.0379
  138MOL   C11925053   5.734   2.386   1.144 -1.1283  0.5906 -1.2796
  138MOL   C12025054   5.835   2.281   1.179  0.6562 -0.1692 -0.8181
  138MOL   C12125055   5.914   2.236   1.056 -0.0421  0.1823  0.3279
  138MOL   H12225056   5.716   2.405   1.038 -2.2197  0.1605 -1.1788
  138MOL   H12325057   5.780   2.479   1.178  0.2671 -0.2432 -0.8171
  138MOL   H12425058   5.791   2.188   1.216 -1.2828  1.0619  0.1131
  138MOL   H12525059   5.952   2.328   1.013 -1.3897 -0.0709 -1.4967
  138MOL   H12625060   6.003   2.177   1.075 -0.9781 -1.2924  0.2498
  138MOL   H12725061   5.850   2.183   0.984  0.3333  2.3272 -1.6314
  138MOL   C12825062   5.926   2.315   1.296 -0.1512 -0.0549  0.1615
  138MOL   C12925063   5.857   2.343   1.436  0.2610 -0.9942  0.2601
  138MOL   C13025064   5.777   2.227   1.497 -0.2111 -0.4351 -0.9051
  138MOL   H13125065   5.996   2.232   1.307 -0.1152  0.1167  1.2841
  138MOL   H13225066   5.988   2.399   1.265  1.8650 -1.4833  0.2272
  138MOL   H13325067   5.791   2.427   1.414  1.0670 -0.1004  1.2055
  138MOL   H13425068   5.730   2.269   1.586  3.2688  0.6521  0.5058
  138MOL   H13525069   5.696   2.185   1.437 -1.8682  0.7777  0.4127
  138MOL   H13625070   5.846   2.150   1.529 -1.1182 -0.5447  0.8543
  138MOL   C13725071   5.952   2.411   1.545  0.3354 -0.2195  0.5649
  138MOL   C13825072   6.003   2.555   1.509  0.9623  0.1002  0.0857
  138MOL   C13925073   5.891   2.660   1.531  0.3350  0.0839 -0.4163
  138MOL   H14025074   5.898   2.419   1.639  0.4492 -2.8062  0.8920
  138MOL   H14125075   6.036   2.342   1.552 -0.3229 -1.0182  0.6153
  138MOL   H14225076   6.039   2.556   1.406  0.5365 -1.2640 -0.0778
  138MOL   H14325077   5.808   2.623   1.471  0.9677  0.0410 -1.2715
  138MOL   H14425078   5.843   2.665   1.629 -0.4085  0.4253 -0.7871
  138MOL   H14525079   5.915   2.758   1.490  0.6151 -1.1190 -3.2452
  138MOL   C14625080   6.119   2.605   1.588 -0.4519 -0.5441 -0.1288
  138MOL   C14725081   6.258   2.539   1.562 -0.4731  0.8128 -0.3503
  138MOL   C14825082   6.310   2.580   1.429 -0.2743 -0.3657  0.0142
  138MOL   H14925083   6.136   2.708   1.558  0.4091 -0.5350  0.3892
  138MOL   H15025084   6.095   2.619   1.694  0.0784 -0.2536 -0.0485
  138MOL   H15125085   6.244   2.431   1.563 -0.9743  0.8790  0.2414
  138MOL   H15225086   6.242   2.574   1.344 -0.9195  0.3653  0.4608
  138MOL   H15325087   6.348   2.683   1.432 -0.0249 -0.4685  0.5173
  138MOL   H15425088   6.392   2.511   1.411 -0.5542 -0.9474  0.9283
  138MOL   C15525089   6.360   2.581   1.673 -0.0270 -0.2663 -0.3206
  138MOL   C15625090   6.343   2.530   1.823 -0.2700  0.1909 -0.0499
  138MOL   C15725091   6.416   2.395   1.844 -0.5360  0.2657  0.1268
  138MOL   H15825092   6.459   2.539   1.651 -0.1169 -1.0242  0.6560
  138MOL   H15925093   6.371   2.687   1.694 -1.2446 -0.3979  1.0456
  138MOL   H16025094   6.240   2.499   1.838 -0.3986  1.3918  1.6464
  138MOL   H16125095   6.524   2.409   1.846 -0.6245  0.8807  1.4354
  138MOL   H16225096   6.397   2.341   1.937  2.8984 -0.7781  0.2825
  138MOL   H16325097   6.388   2.318   1.772  1.1772 -0.1725 -0.0809
  138MOL   C16425098   6.394   2.634   1.927 -0.1701  0.5037 -0.2599
  138MOL   C16525099   6.291   2.723   1.997  0.5273 -0.5572 -0.3028
  138MOL   C16625100   6.356   2.793   2.117 -0.1154 -0.1452  0.3554
  138MOL   H16725101   6.453   2.594   2.010  0.7661 -0.9308 -1.6050
  138MOL   H16825102   6.468   2.694   1.874 -0.0317 -0.6517 -1.3736
  138MOL   H16925103   6.204   2.665   2.028 -0.1242 -0.2335 -1.4778
  138MOL   H17025104   6.383   2.719   2.192  0.7450  0.4332  0.6104
  138MOL   H17125105   6.443   2.856   2.104  1.1166 -1.8099  0.3367
  138MOL   H17225106   6.294   2.872   2.158 -1.1236 -0.0621 -1.2883
  138MOL   C17325107   6.236   2.836   1.901  0.3409  0.3279  0.0913
  138MOL   C17425108   6.339   2.949   1.865  0.6465 -0.2110  0.4225
  138MOL   C17525109   6.273   3.034   1.754 -0.3372  0.2159 -0.1109
  138MOL   H17625110   6.200   2.782   1.813  0.5565  1.1636 -0.5156
  138MOL   H17725111   6.151   2.892   1.939  0.1509  0.3991 -0.4454
  138MOL   H17825112   6.426   2.898   1.824 -0.3362 -0.3860 -1.5012
  138MOL   H17925113   6.173   3.069   1.782 -1.0358 -0.6850 -1.4233
  138MOL   H18025114   6.337   3.118   1.726  0.8186 -1.4704 -2.6997
  138MOL   H18125115   6.240   2.966   1.675 -0.9696  0.0961  0.2479
  138MOL   H18225116   6.365   3.016   1.947 -0.7986  0.9494 -0.0349
  139MOL     C125117   2.712   1.153   4.384  0.1553 -0.3637 -0.3236
  139MOL     C225118   2.842   1.229   4.347  0.0955 -0.4741 -0.4886
  139MOL     C325119   2.963   1.205   4.435  0.5971  0.5774  0.2363
  139MOL     H425120   2.734   1.054   4.346 -0.3928 -1.3295  1.7844
  139MOL     H525121   2.633   1.200   4.325  1.4507  0.6650 -1.2671
  139MOL     H625122   2.807   1.331   4.366 -0.8239 -0.6734 -1.0530
  139MOL     H725123   3.046   1.268   4.401  0.0325  1.9559  1.3611
  139MOL     H825124   2.947   1.225   4.541 -1.7480  1.2960 -0.2121
  139MOL     H925125   2.999   1.105   4.414 -0.2806  0.4733 -0.7669
  139MOL    H1025126   2.681   1.152   4.488  0.4122  1.5503 -0.2065
  139MOL    C1125127   2.878   1.201   4.200  0.1926  0.0364  0.6274
  139MOL    C1225128   2.932   1.328   4.127 -0.8325  0.5429 -0.3488
  139MOL    C1325129   3.057   1.294   4.038  0.3949 -0.1964 -0.2945
  139MOL    H1425130   2.950   1.120   4.203  1.7003  1.3754  2.1319
  139MOL    H1525131   2.789   1.166   4.148  0.2838 -1.1281  1.2434
  139MOL    H1625132   2.966   1.398   4.203 -2.0054  1.2769 -0.5040
  139MOL    H1725133   3.033   1.209   3.974  2.1015 -1.0622  0.1846
  139MOL    H1825134   3.097   1.382   3.987 -0.7492  1.4217  1.5250
  139MOL    H1925135   3.139   1.264   4.103  0.6426  1.1504  0.0341
  139MOL    C2025136   2.815   1.388   4.050  0.2277  0.1280 -0.0311
  139MOL    C2125137   2.842   1.519   3.979  0.2412 -0.1288  0.1818
  139MOL    C2225138   2.892   1.509   3.831  0.2136  0.3904  0.8743
  139MOL    H2325139   2.766   1.322   3.978  1.1536 -1.5160  0.8000
  139MOL    H2425140   2.732   1.405   4.118 -1.7190 -0.9253 -2.0744
  139MOL    H2525141   2.920   1.567   4.038 -1.2400  2.0406  0.4152
  139MOL    H2625142   2.815   1.493   3.756 -1.5029 -1.2931  2.9371
  139MOL    H2725143   2.935   1.604   3.802 -1.1136  1.0735  1.1252
  139MOL    H2825144   2.973   1.439   3.810 -0.6668 -0.4482  0.2023
  139MOL    C2925145   2.721   1.618   3.986 -0.4508 -0.6136 -0.0753
  139MOL    C3025146   2.721   1.733   4.093  0.2935 -0.0578  0.9101
  139MOL    C3125147   2.729   1.675   4.235 -0.8485 -0.2916  0.7410
  139MOL    H3225148   2.713   1.676   3.894  2.4757  0.4016  0.2493
  139MOL    H3325149   2.632   1.557   3.999 -1.8270  0.5649 -3.3615
  139MOL    H3425150   2.623   1.781   4.093 -0.8710 -2.3533  1.3125
  139MOL    H3525151   2.833   1.645   4.248 -0.9105  0.0713  2.0618
  139MOL    H3625152   2.704   1.754   4.305  0.4489 -0.9207  1.9448
  139MOL    H3725153   2.684   1.577   4.249 -0.4079 -0.2509  2.4628
  139MOL    C3825154   2.834   1.837   4.071  0.3841 -0.3831 -0.0454
  139MOL    C3925155   2.778   1.982   4.052 -0.1430  0.4798 -0.0186
  139MOL    C4025156   2.690   1.994   3.931  0.5132 -0.0710 -0.5246
  139MOL    H4125157   2.904   1.849   4.153  1.2541 -0.0880 -0.8267
  139MOL    H4225158   2.895   1.800   3.989  2.6240 -0.4848  1.6344
  139MOL    H4325159   2.872   2.033   4.032  0.2775  0.6602  2.2851
  139MOL    H4425160   2.741   1.955   3.843  0.7605  0.9452 -0.8426
  139MOL    H4525161   2.601   1.932   3.926  0.7872 -0.6620  1.5206
  139MOL    H4625162   2.658   2.097   3.911  0.9858 -0.0408 -1.1452
  139MOL    C4725163   2.713   2.033   4.181 -0.5029  0.4934 -0.0079
  139MOL    C4825164   2.723   2.186   4.192 -1.0128  0.4608  0.0058
  139MOL    C4925165   2.624   2.237   4.293  0.0766  0.3050 -0.1132
  139MOL    H5025166   2.609   2.000   4.188 -1.1240  2.0880 -1.4188
  139MOL    H5125167   2.767   1.981   4.261  1.0475 -0.6122 -1.7308
  139MOL    H5225168   2.716   2.234   4.094 -0.8473  0.5369  0.0293
  139MOL    H5325169   2.654   2.200   4.391  2.3558  0.5846 -0.6867
  139MOL    H5425170   2.646   2.343   4.301 -0.4001  0.4795 -1.1457
  139MOL    H5525171   2.522   2.217   4.260 -0.9063  0.7802  2.5182
  139MOL    C5625172   2.873   2.222   4.244  0.2716 -0.0970  0.1601
  139MOL    C5725173   2.919   2.377   4.253 -0.3158 -0.1489 -0.5876
  139MOL    C5825174   3.072   2.375   4.271 -0.2132  0.0239  0.3106
  139MOL    H5925175   2.897   2.158   4.329  0.5066 -1.1010 -0.6468
  139MOL    H6025176   2.945   2.186   4.171  0.0389 -0.4080  0.0804
  139MOL    H6125177   2.875   2.422   4.343  1.4986  1.7798 -0.6324
  139MOL    H6225178   3.098   2.318   4.360 -0.9047  0.0593  0.5418
  139MOL    H6325179   3.122   2.347   4.178 -3.6793 -0.4372 -1.4813
  139MOL    H6425180   3.122   2.471   4.284  0.9607 -0.0457 -2.9811
  139MOL    C6525181   2.879   2.447   4.123 -0.1093 -0.3936 -0.9221
  139MOL    C6625182   2.919   2.604   4.118  0.3954 -0.1585  0.0494
  139MOL    C6725183   2.900   2.654   3.972 -0.3618  0.2830 -0.3548
  139MOL    H6825184   2.929   2.395   4.042  1.1765  0.5019 -0.7191
  139MOL    H6925185   2.772   2.441   4.102 -0.0146  1.8455 -2.2263
  139MOL    H7025186   3.024   2.601   4.148  0.1789 -0.1031  0.8042
  139MOL    H7125187   2.933   2.757   3.981 -2.1047  0.6477  2.5939
  139MOL    H7225188   2.968   2.608   3.900 -1.4770 -2.1835  0.0952
  139MOL    H7325189   2.797   2.642   3.938 -0.8379  1.7199  0.5393
  139MOL    C7425190   2.842   2.682   4.222  0.3600 -0.3038  0.2851
  139MOL    C7525191   2.872   2.834   4.223 -0.2698 -0.4449 -0.4603
  139MOL    C7625192   2.761   2.907   4.157  0.5380  0.5180  0.0590
  139MOL    H7725193   2.735   2.664   4.214  0.1915 -0.0436  1.7134
  139MOL    H7825194   2.864   2.640   4.320 -0.2778 -0.0692  0.5337
  139MOL    H7925195   2.964   2.850   4.167 -0.3816  3.7883  0.3612
  139MOL    H8025196   2.761   2.872   4.054  0.6869  1.0373 -0.1153
  139MOL    H8125197   2.662   2.885   4.198 -0.4693  1.7219 -1.6755
  139MOL    H8225198   2.783   3.014   4.156 -2.0833  1.0921 -0.0808
  139MOL    C8325199   2.896   2.898   4.366  0.0189  0.5362  0.2625
  139MOL    C8425200   2.992   2.832   4.467 -1.1092 -0.4024  0.1652
  139MOL    C8525201   3.136   2.831   4.418 -0.5549  0.2623 -0.1542
  139MOL    H8625202   2.913   3.005   4.354 -2.1159  0.8296 -0.5159
  139MOL    H8725203   2.799   2.883   4.413  0.3434 -0.1541  0.7134
  139MOL    H8825204   2.958   2.730   4.483  0.4146 -1.0110 -0.4694
  139MOL    H8925205   3.178   2.931   4.408 -0.9809  0.6032  1.3453
  139MOL    H9025206   3.198   2.779   4.491 -2.0407  0.6411  1.4380
  139MOL    H9125207   3.145   2.782   4.321 -1.8841  0.7386 -0.5328
  139MOL    C9225208   3.003   2.906   4.612 -0.4077  0.7267  0.4760
  139MOL    C9325209   2.884   2.890   4.710 -0.8111 -0.2003 -0.1754
  139MOL    C9425210   2.878   2.737   4.749 -0.6258 -0.5803 -0.7462
  139MOL    H9525211   3.099   2.878   4.654 -0.0129  1.9506  0.4023
  139MOL    H9625212   3.011   3.013   4.591  0.1192  0.6293  0.1904
  139MOL    H9725213   2.792   2.920   4.660 -0.8654  1.7050  1.0273
  139MOL    H9825214   2.868   2.673   4.661 -0.4849  1.5598 -2.3723
  139MOL    H9925215   2.966   2.702   4.803 -0.8686 -1.2494 -0.7813
  139MOL   H10025216   2.794   2.713   4.813 -0.0661 -0.4935  0.0250
  139MOL   C10125217   2.896   2.966   4.839 -0.6581 -0.6723  0.0347
  139MOL   C10225218   2.846   3.114   4.833 -0.4070 -0.7616  0.1961
  139MOL   C10325219   2.942   3.202   4.749  0.1293  0.0020  0.0964
  139MOL   H10425220   2.841   2.904   4.910  1.1867 -0.1296  2.0018
  139MOL   H10525221   3.000   2.965   4.872 -0.2027 -0.1639 -1.3452
  139MOL   H10625222   2.873   3.142   4.935 -0.8571  1.6516 -0.3082
  139MOL   H10725223   2.933   3.304   4.788  0.1384 -0.5846  1.6490
  139MOL   H10825224   3.044   3.165   4.754  0.3809  0.5599 -0.7572
  139MOL   H10925225   2.908   3.197   4.645 -0.5144  1.6634  0.2037
  139MOL   C11025226   2.701   3.157   4.810 -0.7169 -0.3898  0.1173
  139MOL   C11125227   2.608   3.104   4.925 -0.8188 -0.4728  0.1791
  139MOL   C11225228   2.666   3.096   5.067 -0.2295 -0.4754 -0.1256
  139MOL   H11325229   2.702   3.266   4.818  1.4180 -0.4101  0.2887
  139MOL   H11425230   2.663   3.123   4.714 -2.0324 -0.0230  0.4913
  139MOL   H11525231   2.589   3.000   4.899  0.9274 -0.7723  0.0677
  139MOL   H11625232   2.683   3.197   5.102  2.5797 -0.7391 -0.6136
  139MOL   H11725233   2.592   3.058   5.138  1.7140  1.1710  2.8912
  139MOL   H11825234   2.755   3.033   5.073  0.4524  0.5779  0.9804
  139MOL   C11925235   2.479   3.186   4.923 -0.1641 -0.3033 -0.0607
  139MOL   C12025236   2.397   3.209   4.791 -0.2972 -0.4895  0.0095
  139MOL   C12125237   2.366   3.085   4.707 -0.0543 -0.5073  0.7547
  139MOL   H12225238   2.407   3.134   4.987 -1.8106  0.6087 -1.1468
  139MOL   H12325239   2.495   3.284   4.969  0.2470  0.6328 -2.1674
  139MOL   H12425240   2.464   3.277   4.739 -0.9602  0.0854 -0.0955
  139MOL   H12525241   2.455   3.043   4.660  0.0243 -2.4993  2.5997
  139MOL   H12625242   2.324   3.003   4.766 -4.5259  1.3589  0.3054
  139MOL   H12725243   2.295   3.100   4.626  0.5990  0.9222  0.4422
  139MOL   C12825244   2.265   3.274   4.814  0.2044  0.0120 -0.2331
  139MOL   C12925245   2.258   3.405   4.899  0.1751 -1.0122 -0.4250
  139MOL   C13025246   2.349   3.519   4.838  0.5373 -0.0381  0.1035
  139MOL   H13125247   2.222   3.305   4.719 -0.4813  0.4508  0.2124
  139MOL   H13225248   2.194   3.205   4.861  0.2406  1.1295  1.5049
  139MOL   H13325249   2.292   3.382   5.000 -0.4551 -0.3317 -0.0504
  139MOL   H13425250   2.312   3.550   4.740  2.2081  0.6960 -0.3146
  139MOL   H13525251   2.349   3.608   4.901  0.8964 -0.5516  0.8324
  139MOL   H13625252   2.453   3.490   4.823  0.5877  0.4679 -0.5175
  139MOL   C13725253   2.117   3.461   4.908  0.5407  1.1719  0.4210
  139MOL   C13825254   2.094   3.552   5.024 -0.0474 -0.1416  0.0404
  139MOL   C13925255   1.962   3.627   4.996  0.1647 -0.7586 -0.1955
  139MOL   H14025256   2.090   3.503   4.811 -0.9816 -1.6546 -0.4597
  139MOL   H14125257   2.048   3.379   4.927  2.0289 -0.2021  0.0546
  139MOL   H14225258   2.167   3.633   5.020  0.2410 -0.3931  0.2091
  139MOL   H14325259   1.882   3.555   4.981  0.1250 -0.9715  0.9982
  139MOL   H14425260   1.947   3.699   5.077  3.0819  0.1821 -0.4041
  139MOL   H14525261   1.960   3.679   4.900 -2.7085 -0.6637 -0.1139
  139MOL   C14625262   2.079   3.472   5.159  0.4960 -0.2444 -0.4998
  139MOL   C14725263   2.178   3.527   5.270 -0.4209  0.0880  0.0141
  139MOL   C14825264   2.118   3.651   5.334  0.0024  0.6157 -0.6305
  139MOL   H14925265   1.977   3.467   5.198  0.8581 -2.0504  0.2341
  139MOL   H15025266   2.101   3.369   5.132 -1.7393 -0.9820  0.3942
  139MOL   H15125267   2.278   3.544   5.231  0.3475 -1.0785  1.4103
  139MOL   H15225268   2.127   3.740   5.273  1.4645  0.2477 -0.9737
  139MOL   H15325269   2.016   3.615   5.348  0.3121  0.6292  1.8815
  139MOL   H15425270   2.166   3.663   5.431 -1.4114 -0.6390  0.2454
  139MOL   C15525271   2.187   3.407   5.374 -0.1058  0.0699 -0.1127
  139MOL   C15625272   2.258   3.276   5.333 -0.4049  0.0633  0.2138
  139MOL   C15725273   2.408   3.282   5.362  0.6815 -0.0814 -0.2336
  139MOL   H15825274   2.239   3.430   5.467  0.1591 -0.3238 -0.1633
  139MOL   H15925275   2.083   3.394   5.403 -0.1232 -0.2897 -0.3433
  139MOL   H16025276   2.253   3.248   5.228  1.4554 -0.4039  0.2346
  139MOL   H16125277   2.463   3.365   5.318  0.1141  0.5364  0.2175
  139MOL   H16225278   2.427   3.290   5.469 -0.8443 -1.1564  0.1342
  139MOL   H16325279   2.460   3.194   5.325  1.2950  0.6616 -1.1722
  139MOL   C16425280   2.196   3.158   5.421  0.3472  0.6248 -0.1303
  139MOL   C16525281   2.233   3.013   5.395 -0.3585 -0.2651  0.5073
  139MOL   C16625282   2.160   2.929   5.506 -0.5242  0.1190 -0.0452
  139MOL   H16725283   2.212   3.190   5.524 -1.1563  0.1731  0.2480
  139MOL   H16825284   2.089   3.162   5.401  0.7709  1.7432 -2.3668
  139MOL   H16925285   2.342   3.007   5.400 -0.0497 -1.0324 -4.3157
  139MOL   H17025286   2.143   2.825   5.479  0.4876  0.4321 -1.9976
  139MOL   H17125287   2.221   2.927   5.596  0.4556 -3.7447 -0.6743
  139MOL   H17225288   2.060   2.968   5.526 -0.7126 -0.5420  0.3299
  139MOL   C17325289   2.207   2.968   5.246  0.3699 -0.0209  0.4809
  139MOL   C17425290   2.251   2.825   5.210  0.7472  0.1008 -0.6623
  139MOL   C17525291   2.196   2.773   5.075  0.0037 -0.5608  0.1612
  139MOL   H17625292   2.099   2.975   5.233  0.3060 -0.8932  0.4804
  139MOL   H17725293   2.249   3.037   5.173  3.0374 -1.6758  0.3813
  139MOL   H17825294   2.214   2.752   5.283 -1.0758  1.1622 -0.4938
  139MOL   H17925295   2.256   2.810   4.992 -1.9542  1.4674 -0.3788
  139MOL   H18025296   2.215   2.666   5.069  0.0840 -0.5069 -0.5540
  139MOL   H18125297   2.089   2.793   5.070 -0.0175 -0.2638  1.5008
  139MOL   H18225298   2.360   2.827   5.213  0.7938 -1.7211 -0.8924
  140MOL     C125299   7.173   1.580   6.776 -0.9306 -0.0932 -0.0784
  140MOL     C225300   7.262   1.611   6.654  0.4425  0.1169  0.3282
  140MOL     C325301   7.349   1.738   6.668  0.4663  0.4350 -0.0210
  140MOL     H425302   7.225   1.576   6.872  0.7574 -1.2420 -1.0090
  140MOL     H525303   7.108   1.493   6.767 -1.7356  0.6934 -2.1306
  140MOL     H625304   7.192   1.623   6.570 -0.2074  1.9348  1.1179
  140MOL     H725305   7.423   1.737   6.748 -0.3593  3.0881  0.8642
  140MOL     H825306   7.402   1.755   6.575 -0.1601 -2.3182 -0.9134
  140MOL     H925307   7.276   1.818   6.680 -0.5590 -0.2084 -1.7965
  140MOL    H1025308   7.108   1.665   6.795  1.3101  1.9602 -1.2826
  140MOL    C1125309   7.354   1.493   6.632  0.2237  0.2114 -0.8903
  140MOL    C1225310   7.304   1.380   6.539  0.0675  0.0389  0.3573
  140MOL    C1325311   7.317   1.410   6.388  0.8868  0.5835 -0.0523
  140MOL    H1425312   7.450   1.526   6.593 -0.9062  1.9569 -2.2691
  140MOL    H1525313   7.377   1.454   6.731 -2.3164  2.4661  0.6517
  140MOL    H1625314   7.196   1.372   6.554 -0.2478  1.8664 -0.7799
  140MOL    H1725315   7.420   1.421   6.355  0.8073  3.4272  0.5201
  140MOL    H1825316   7.275   1.333   6.323  0.8279  0.1907  0.4455
  140MOL    H1925317   7.283   1.511   6.365  1.5887  0.8799  0.2093
  140MOL    C2025318   7.373   1.247   6.589  0.4372 -0.3557 -0.0442
  140MOL    C2125319   7.334   1.127   6.515 -0.0805 -0.3551  0.1540
  140MOL    C2225320   7.424   1.007   6.549 -0.1724  0.1651  0.0655
  140MOL    H2325321   7.479   1.265   6.571  0.2313  1.2851  0.3557
  140MOL    H2425322   7.348   1.232   6.694 -0.5052  0.4247 -0.1527
  140MOL    H2525323   7.341   1.149   6.408 -0.1209 -2.3938 -0.2763
  140MOL    H2625324   7.395   0.959   6.643 -0.2605  0.0047 -0.0426
  140MOL    H2725325   7.422   0.924   6.478 -0.0635  1.0762 -1.0078
  140MOL    H2825326   7.528   1.037   6.553 -0.1041  0.1771 -1.5447
  140MOL    C2925327   7.189   1.086   6.549 -0.2817 -0.2001  0.1125
  140MOL    C3025328   7.117   0.987   6.456  0.2277  0.5152  0.2301
  140MOL    C3125329   6.992   0.940   6.525  0.1497 -0.3044 -0.0561
  140MOL    H3225330   7.186   1.039   6.648  1.6282 -1.3730 -0.3537
  140MOL    H3325331   7.122   1.171   6.552 -0.5793 -0.4711  1.6530
  140MOL    H3425332   7.189   0.905   6.452  0.6593  0.9220 -0.4139
  140MOL    H3525333   6.914   1.015   6.528  0.4407  0.0687 -1.3429
  140MOL    H3625334   6.951   0.852   6.475  0.3996  0.6745 -2.0584
  140MOL    H3725335   7.028   0.909   6.623  0.2069  2.3917  0.8045
  140MOL    C3825336   7.097   1.033   6.310  0.6791  0.1416  0.1375
  140MOL    C3925337   7.060   0.922   6.218  0.1474 -0.2811  0.2268
  140MOL    C4025338   7.021   0.993   6.092 -0.0698  0.0214  0.0863
  140MOL    H4125339   7.017   1.107   6.307  1.8480  1.4701  0.8900
  140MOL    H4225340   7.178   1.090   6.264  0.9097  0.2845  0.7106
  140MOL    H4325341   6.970   0.874   6.256 -1.3471  0.5659 -2.1352
  140MOL    H4425342   7.097   1.061   6.053 -0.0939  1.3142  2.2080
  140MOL    H4525343   6.996   0.915   6.020  0.1336 -0.9884  1.1052
  140MOL    H4625344   6.928   1.049   6.100  0.2312  1.1555 -3.2502
  140MOL    C4725345   7.174   0.816   6.190 -0.2783  0.8096 -0.1281
  140MOL    C4825346   7.122   0.687   6.122  0.4352 -0.2104 -0.3828
  140MOL    C4925347   7.255   0.615   6.068 -0.3495  0.1510 -0.2933
  140MOL    H5025348   7.252   0.863   6.131 -1.5013 -0.3764 -2.7372
  140MOL    H5125349   7.230   0.785   6.279 -0.3925 -1.7862 -0.9117
  140MOL    H5225350   7.062   0.705   6.033  1.9878  2.3735 -1.0003
  140MOL    H5325351   7.317   0.673   5.999  1.2366 -0.3886  0.6384
  140MOL    H5425352   7.315   0.575   6.150  1.1440  0.8343 -1.0146
  140MOL    H5525353   7.238   0.539   5.992  2.4085 -1.0709  0.2406
  140MOL    C5625354   7.042   0.592   6.218  0.2967 -0.1515 -0.3441
  140MOL    C5725355   6.964   0.475   6.151  0.0785  0.0246  0.1455
  140MOL    C5825356   6.988   0.337   6.224 -0.3396 -0.2688 -0.2983
  140MOL    H5925357   7.101   0.558   6.303  0.8297  0.2806 -0.5462
  140MOL    H6025358   6.970   0.656   6.270  0.1742 -3.1967  3.4800
  140MOL    H6125359   7.003   0.467   6.049 -1.8188  1.8618 -0.7482
  140MOL    H6225360   6.903   0.272   6.204  0.6293 -1.9065  0.7893
  140MOL    H6325361   7.079   0.297   6.179 -0.6347  0.1207 -1.2576
  140MOL    H6425362   7.008   0.350   6.330 -0.6139  0.1439 -0.2975
  140MOL    C6525363   6.807   0.493   6.144  0.4503 -0.6206  0.3544
  140MOL    C6625364   6.766   0.615   6.058 -0.5462 -0.3353 -0.1509
  140MOL    C6725365   6.802   0.578   5.908  0.5782  0.1013  0.5004
  140MOL    H6825366   6.753   0.402   6.116 -0.0979 -0.6208  1.3793
  140MOL    H6925367   6.767   0.504   6.245 -1.6015 -3.6164 -0.0477
  140MOL    H7025368   6.832   0.699   6.080 -0.2474 -0.1099 -1.8943
  140MOL    H7125369   6.754   0.485   5.879  2.4240  0.0592 -2.5935
  140MOL    H7225370   6.762   0.655   5.842  0.2687  0.2130  0.8135
  140MOL    H7325371   6.908   0.583   5.885  0.1903 -0.7434 -1.6163
  140MOL    C7425372   6.617   0.656   6.075  0.4185 -0.3446 -0.0780
  140MOL    C7525373   6.575   0.719   6.208 -0.0710  0.6549 -0.4286
  140MOL    C7625374   6.601   0.871   6.207 -0.0280 -0.0191 -0.5441
  140MOL    H7725375   6.590   0.729   5.998 -2.4867  0.4091  1.5620
  140MOL    H7825376   6.559   0.570   6.045 -1.1947  0.8017 -0.3305
  140MOL    H7925377   6.647   0.685   6.283  0.2967  0.7478 -0.7358
  140MOL    H8025378   6.621   0.902   6.310  1.3575 -1.0368 -0.4976
  140MOL    H8125379   6.698   0.899   6.166  0.0355  0.2436 -0.2228
  140MOL    H8225380   6.517   0.921   6.158  0.9523 -0.0260 -2.2717
  140MOL    C8325381   6.437   0.681   6.264 -0.6787  0.5146 -0.1150
  140MOL    C8425382   6.417   0.536   6.298  0.1827 -0.2500 -0.9299
  140MOL    C8525383   6.482   0.516   6.441 -0.1432  0.7071 -0.5244
  140MOL    H8625384   6.409   0.746   6.347  0.5801  0.2611  0.5211
  140MOL    H8725385   6.370   0.699   6.180 -0.6537  0.9398 -0.0427
  140MOL    H8825386   6.464   0.472   6.223  2.1083 -1.5256  1.2677
  140MOL    H8925387   6.423   0.579   6.507  0.1782 -0.4203  0.8641
  140MOL    H9025388   6.483   0.411   6.472 -1.6729  0.8864  0.1893
  140MOL    H9125389   6.586   0.547   6.446  0.2189 -0.6384  0.7237
  140MOL    C9225390   6.269   0.483   6.290  0.5772 -0.5630 -0.5146
  140MOL    C9325391   6.260   0.328   6.278 -0.4208  1.0911 -0.1487
  140MOL    C9425392   6.146   0.270   6.366 -0.1473  1.0213  0.1118
  140MOL    H9525393   6.220   0.522   6.379 -0.6638  0.8046 -1.7744
  140MOL    H9625394   6.218   0.522   6.203 -0.6440 -1.0165 -0.0130
  140MOL    H9725395   6.355   0.290   6.315 -0.1628  1.1468 -0.7563
  140MOL    H9825396   6.154   0.162   6.369  0.0117  1.0643  3.6362
  140MOL    H9925397   6.153   0.295   6.472 -0.8957 -0.6826  0.5730
  140MOL   H10025398   6.047   0.304   6.333  0.3071  1.5463 -0.7168
  140MOL   C10125399   6.260   0.276   6.129 -0.7508 -1.2334 -0.0165
  140MOL   C10225400   6.277   0.124   6.110  0.4804  0.9057  0.6148
  140MOL   C10325401   6.268   0.089   5.965 -0.6720  0.2964 -0.2258
  140MOL   H10425402   6.166   0.302   6.079  0.0088  0.6917 -0.4783
  140MOL   H10525403   6.340   0.324   6.074 -2.5781 -0.0660 -1.7323
  140MOL   H10625404   6.189   0.081   6.158  0.9490 -0.1162  0.5673
  140MOL   H10725405   6.294   7.682   5.948 -0.8261  0.3397 -0.7508
  140MOL   H10825406   6.167   0.110   5.929 -0.7228 -2.7359 -1.9746
  140MOL   H10925407   6.348   0.143   5.914  1.5932 -1.8473  0.9915
  140MOL   C11025408   6.404   0.060   6.173 -0.3341  0.2565  0.3097
  140MOL   C11125409   6.400   0.018   6.324 -0.3007  0.0370  0.0680
  140MOL   C11225410   6.301   7.600   6.341  0.0144  0.3509  0.3507
  140MOL   H11325411   6.441   7.670   6.119 -0.2514 -0.4722  1.5210
  140MOL   H11425412   6.493   0.119   6.152  0.2622 -1.7868 -3.3168
  140MOL   H11525413   6.349   0.092   6.385 -0.7989  0.0772 -0.3924
  140MOL   H11625414   6.330   7.509   6.288 -2.9209  0.4717 -1.5597
  140MOL   H11725415   6.307   7.562   6.443  2.1283 -0.3514  0.0011
  140MOL   H11825416   6.198   7.628   6.321 -0.3315  0.0686  1.6658
  140MOL   C11925417   6.542   7.671   6.391  0.6359  0.0655  0.1160
  140MOL   C12025418   6.612   0.105   6.453 -0.4741 -0.2125 -0.2299
  140MOL   C12125419   6.568   0.138   6.596 -0.1299  0.0439  0.4285
  140MOL   H12225420   6.536   7.589   6.463  0.4258 -0.2741 -0.2778
  140MOL   H12325421   6.608   7.629   6.313  1.7430 -0.0599  1.1047
  140MOL   H12425422   6.582   0.188   6.388  1.2689  1.0720  0.5762
  140MOL   H12525423   6.569   0.044   6.651 -1.4575  0.5782  1.4027
  140MOL   H12625424   6.631   0.216   6.640 -0.0436 -0.3087  0.9401
  140MOL   H12725425   6.465   0.173   6.596  0.2356  1.2595  3.6068
  140MOL   C12825426   6.759   0.090   6.443 -0.5234  0.5785 -0.1011
  140MOL   C12925427   6.830   0.001   6.558 -0.0229  0.5551 -0.0609
  140MOL   C13025428   6.780   7.551   6.565 -0.7271 -0.1912  0.4197
  140MOL   H13125429   6.788   0.048   6.346  0.7929  1.3463 -0.0553
  140MOL   H13225430   6.796   0.187   6.476  0.2129  0.3602 -0.2811
  140MOL   H13325431   6.795   0.034   6.656 -2.2898 -0.3049 -0.5722
  140MOL   H13425432   6.850   7.486   6.617 -0.4202 -0.4457 -0.3081
  140MOL   H13525433   6.679   7.536   6.604 -1.0149 -0.5368 -0.4658
  140MOL   H13625434   6.780   7.499   6.470  0.0966 -1.4196  1.0749
  140MOL   C13725435   6.981   0.008   6.549 -0.1746  0.2160  0.8351
  140MOL   C13825436   7.057   7.695   6.681  0.1393 -0.1314 -0.3880
  140MOL   C13925437   7.184   7.603   6.687  0.1090  0.6436 -0.2986
  140MOL   H14025438   7.009   7.633   6.472 -2.0307  1.6584 -1.2515
  140MOL   H14125439   7.012   0.098   6.496  0.3422 -0.3603  0.1481
  140MOL   H14225440   6.996   7.643   6.755  0.0941 -0.6324 -0.7745
  140MOL   H14325441   7.160   7.505   6.645  1.3969  0.2477 -0.1510
  140MOL   H14425442   7.269   7.649   6.636  1.5576 -1.1600  0.4261
  140MOL   H14525443   7.201   7.580   6.792 -1.3659 -0.6591 -0.3352
  140MOL   C14625444   7.082   0.139   6.746  0.0188  0.3146  0.8194
  140MOL   C14725445   6.958   0.239   6.756  0.6398 -0.8491 -0.2080
  140MOL   C14825446   6.863   0.214   6.876  0.7926 -0.1851  0.2402
  140MOL   H14925447   7.124   0.113   6.844 -0.1727 -3.6461 -0.0354
  140MOL   H15025448   7.157   0.192   6.688 -0.8600 -0.3330 -0.9636
  140MOL   H15125449   6.906   0.225   6.661 -0.5711  1.3506  0.0979
  140MOL   H15225450   6.839   0.110   6.898  2.6077 -0.6097  0.2847
  140MOL   H15325451   6.897   0.240   6.976 -1.6699  0.4753  0.9424
  140MOL   H15425452   6.771   0.271   6.869  1.3519  0.5852 -0.9129
  140MOL   C15525453   6.995   0.384   6.767  0.3231 -0.1120 -0.2956
  140MOL   C15625454   7.019   0.453   6.627  0.0111 -0.4066 -0.4371
  140MOL   C15725455   6.885   0.500   6.573  0.0981  0.2188 -0.0778
  140MOL   H15825456   6.930   0.446   6.828  1.8440  2.4605 -1.1955
  140MOL   H15925457   7.084   0.392   6.830 -0.5598  0.6076  0.8737
  140MOL   H16025458   7.070   0.386   6.559 -2.1283 -1.1873 -1.2903
  140MOL   H16125459   6.884   0.533   6.469  1.3011 -1.0776 -0.5127
  140MOL   H16225460   6.804   0.427   6.572  0.6649 -0.4459 -2.5510
  140MOL   H16325461   6.848   0.582   6.634 -0.9447 -0.5604  0.3446
  140MOL   C16425462   7.106   0.586   6.648 -0.2047 -0.0018  0.0043
  140MOL   C16525463   7.251   0.563   6.688  0.6956 -0.5771  0.8185
  140MOL   C16625464   7.323   0.480   6.580 -0.1749  0.5294 -0.0489
  140MOL   H16725465   7.099   0.650   6.560  0.4723  0.2814  0.1582
  140MOL   H16825466   7.052   0.648   6.720 -0.6048  1.3960 -1.4728
  140MOL   H16925467   7.255   0.504   6.780 -0.0937  0.6083  1.6301
  140MOL   H17025468   7.430   0.480   6.602 -0.7163  1.2901  2.7839
  140MOL   H17125469   7.298   0.374   6.590  1.7064 -0.0296 -0.9971
  140MOL   H17225470   7.302   0.517   6.480  0.9740  3.6994  0.8230
  140MOL   C17325471   7.328   0.690   6.713  0.1477 -0.5404  0.4883
  140MOL   C17425472   7.329   0.724   6.863 -0.2783 -0.1137 -0.1118
  140MOL   C17525473   7.414   0.841   6.918 -0.0730  0.3314 -0.0922
  140MOL   H17625474   7.430   0.690   6.677  0.2845  1.1161  0.8755
  140MOL   H17725475   7.284   0.773   6.659  2.7137 -0.9293 -2.3271
  140MOL   H17825476   7.374   0.640   6.916  0.8296  1.7116  1.9268
  140MOL   H17925477   7.399   0.945   6.891  0.8644  0.6160  0.4662
  140MOL   H18025478   7.397   0.837   7.026  0.4963  1.1413  0.0259
  140MOL   H18125479   7.522   0.830   6.923  0.0351  2.1151  2.2403
  140MOL   H18225480   7.223   0.743   6.882 -1.4990 -1.9868 -4.4165
  141MOL     C125481   2.429   2.621   2.402  0.1854  0.2235  0.4728
  141MOL     C225482   2.466   2.700   2.536  0.2491 -0.1890 -0.0386
  141MOL     C325483   2.533   2.828   2.500 -0.5461 -0.0726 -1.0205
  141MOL     H425484   2.430   2.513   2.419 -2.8118  0.0003 -0.4896
  141MOL     H525485   2.492   2.630   2.314 -0.8018  0.5343 -0.2074
  141MOL     H625486   2.541   2.635   2.579  0.8972  0.0375 -0.8064
  141MOL     H725487   2.554   2.904   2.576  0.9468 -2.1903  0.7561
  141MOL     H825488   2.634   2.802   2.467 -0.6034  1.1507 -2.1920
  141MOL     H925489   2.472   2.882   2.428 -1.2747  1.3094  0.5787
  141MOL    H1025490   2.327   2.645   2.371  0.0855 -2.0770 -1.1141
  141MOL    C1125491   2.354   2.739   2.642  0.1440  0.1322 -0.5894
  141MOL    C1225492   2.258   2.625   2.685  0.1512  0.0388 -0.0296
  141MOL    C1325493   2.329   2.509   2.768  0.0257 -0.1631  0.0408
  141MOL    H1425494   2.400   2.802   2.719  1.2712  0.7770 -1.7857
  141MOL    H1525495   2.294   2.818   2.596 -0.3725 -0.9148 -1.7584
  141MOL    H1625496   2.236   2.577   2.590 -0.5685  0.4270 -0.0598
  141MOL    H1725497   2.277   2.413   2.764 -0.5206  0.1874 -2.1115
  141MOL    H1825498   2.429   2.494   2.726 -0.1703  1.2805 -1.0138
  141MOL    H1925499   2.331   2.524   2.876  0.5112 -0.7214  0.1109
  141MOL    C2025500   2.132   2.676   2.763 -0.8565 -0.0645 -0.1803
  141MOL    C2125501   2.010   2.730   2.682  0.4804  0.3215  0.8220
  141MOL    C2225502   2.041   2.868   2.619 -0.4808  0.5495 -0.6372
  141MOL    H2325503   2.092   2.608   2.838 -0.0657  0.0645  0.3603
  141MOL    H2425504   2.161   2.763   2.823 -0.0562  0.2233 -0.9778
  141MOL    H2525505   1.922   2.738   2.746 -1.5544 -0.6416 -1.7503
  141MOL    H2625506   2.093   2.875   2.523 -0.2849  1.4022 -0.4710
  141MOL    H2725507   1.946   2.911   2.587 -0.6771  1.0756  0.6286
  141MOL    H2825508   2.061   2.938   2.699  0.3725 -1.5134  1.0114
  141MOL    C2925509   1.961   2.631   2.578 -0.2785  0.3630 -0.1609
  141MOL    C3025510   1.817   2.644   2.529 -0.2454 -0.3614  0.2261
  141MOL    C3125511   1.816   2.547   2.409 -0.3665  0.2110  0.5479
  141MOL    H3225512   2.034   2.624   2.497 -0.7368 -1.4190 -0.4411
  141MOL    H3325513   1.983   2.533   2.622 -2.4772 -0.8001 -1.5436
  141MOL    H3425514   1.805   2.749   2.500  4.8609  0.3967  0.3756
  141MOL    H3525515   1.716   2.515   2.379 -0.2119 -0.7171  1.0202
  141MOL    H3625516   1.851   2.598   2.319  1.5936  0.3198  1.3598
  141MOL    H3725517   1.871   2.455   2.429 -0.4488  0.3263  1.2967
  141MOL    C3825518   1.716   2.603   2.640 -0.2594 -1.0299 -0.2701
  141MOL    C3925519   1.566   2.592   2.610 -0.2986 -0.3448 -0.3060
  141MOL    C4025520   1.499   2.524   2.733 -0.0834 -0.6307  0.0142
  141MOL    H4125521   1.742   2.501   2.666 -2.2020 -1.0573  1.7420
  141MOL    H4225522   1.733   2.666   2.727  1.9746 -0.3327 -1.1976
  141MOL    H4325523   1.557   2.513   2.535 -1.8070  0.0511 -0.5597
  141MOL    H4425524   1.390   2.520   2.726 -0.1818 -2.1398  2.1309
  141MOL    H4525525   1.534   2.423   2.751  1.4899 -0.3953 -1.5552
  141MOL    H4625526   1.533   2.581   2.819 -0.3288 -0.2194 -0.1560
  141MOL    C4725527   1.495   2.720   2.567  0.0330 -0.2384  0.6713
  141MOL    C4825528   1.495   2.746   2.415  0.1262 -0.1393  0.1188
  141MOL    C4925529   1.395   2.657   2.334  0.0523 -0.3623  0.0129
  141MOL    H5025530   1.391   2.699   2.591 -0.3670 -0.6761 -1.3935
  141MOL    H5125531   1.528   2.806   2.626  1.9311 -0.5333  0.0927
  141MOL    H5225532   1.591   2.720   2.371 -0.6727 -2.0043 -0.5522
  141MOL    H5325533   1.290   2.677   2.352  0.4246 -0.2222  2.1116
  141MOL    H5425534   1.406   2.678   2.227 -2.6333  1.9166  0.1199
  141MOL    H5525535   1.409   2.552   2.359  3.0140  0.2526  1.1366
  141MOL    C5625536   1.478   2.891   2.381  0.2605  0.0552  0.2467
  141MOL    C5725537   1.602   2.982   2.395  0.0938 -0.2959  0.2040
  141MOL    C5825538   1.707   2.958   2.284 -0.5155  0.0417  0.1366
  141MOL    H5925539   1.450   2.903   2.277  0.8911 -1.1976 -0.0704
  141MOL    H6025540   1.388   2.925   2.434 -0.2604  0.4474 -0.8750
  141MOL    H6125541   1.639   2.967   2.497 -2.8846  0.2942  1.4334
  141MOL    H6225542   1.702   2.856   2.247  0.8248 -0.7849  2.2123
  141MOL    H6325543   1.708   3.026   2.198  0.1505  0.3758  0.3991
  141MOL    H6425544   1.806   2.964   2.329 -0.0046 -0.8998 -0.8378
  141MOL    C6525545   1.562   3.137   2.399  0.3543 -0.1978  0.3789
  141MOL    C6625546   1.675   3.236   2.436 -0.4979 -0.5888  0.2011
  141MOL    C6725547   1.627   3.388   2.415  0.1989  0.3164 -0.0387
  141MOL    H6825548   1.505   3.171   2.312  0.9583  1.2559  0.5399
  141MOL    H6925549   1.483   3.145   2.474 -1.5639 -2.1133 -1.3699
  141MOL    H7025550   1.753   3.203   2.368 -0.3812 -0.4782  0.2809
  141MOL    H7125551   1.567   3.398   2.325  0.9099 -3.2870 -1.0018
  141MOL    H7225552   1.559   3.422   2.493  0.7257  1.1401  0.0728
  141MOL    H7325553   1.714   3.453   2.409  0.8767 -0.4100  1.5012
  141MOL    C7425554   1.736   3.208   2.569 -0.7776 -0.6303  0.0273
  141MOL    C7525555   1.864   3.290   2.601  0.4866 -0.5095 -0.4416
  141MOL    C7625556   1.900   3.261   2.750 -0.0183 -0.4275 -0.0857
  141MOL    H7725557   1.650   3.226   2.634 -2.2488  0.1181 -2.0882
  141MOL    H7825558   1.772   3.106   2.577  1.4884  0.1212 -0.1562
  141MOL    H7925559   1.852   3.398   2.587  1.9650 -0.3175 -0.3555
  141MOL    H8025560   1.825   3.297   2.819  0.9117  2.9046 -0.6982
  141MOL    H8125561   1.925   3.157   2.769 -0.6547 -0.6748 -0.5698
  141MOL    H8225562   1.988   3.322   2.771 -0.4317  0.1885 -0.1489
  141MOL    C8325563   1.985   3.255   2.513 -0.8101  0.4578  0.9959
  141MOL    C8425564   2.026   3.353   2.401 -0.5192 -0.7865  0.2945
  141MOL    C8525565   2.067   3.482   2.461 -0.2066 -0.1213 -0.2708
  141MOL    H8625566   2.077   3.255   2.572 -0.6518  0.2907  0.7503
  141MOL    H8725567   1.978   3.157   2.465  1.0631 -0.1073  1.8130
  141MOL    H8825568   1.935   3.372   2.344 -0.7870 -1.3394  0.5280
  141MOL    H8925569   2.116   3.547   2.389  0.0569  0.7520  0.6700
  141MOL    H9025570   1.989   3.554   2.489  0.7417  1.2078 -0.9637
  141MOL    H9125571   2.136   3.468   2.544  0.1175 -0.9497 -0.6791
  141MOL    C9225572   2.135   3.291   2.302 -0.0252  0.0026  0.5226
  141MOL    C9325573   2.080   3.207   2.188  0.2890  0.8915  0.2611
  141MOL    C9425574   1.983   3.279   2.091  0.1571  0.5804 -0.9517
  141MOL    H9525575   2.197   3.365   2.252 -0.9615  0.7042  0.3900
  141MOL    H9625576   2.205   3.233   2.363  2.7585  2.6011 -0.0344
  141MOL    H9725577   2.010   3.131   2.222  1.8509 -0.2376  1.0397
  141MOL    H9825578   2.024   3.372   2.051 -2.8612  2.4863  0.1888
  141MOL    H9925579   1.961   3.221   2.001  1.7266  1.8793 -2.1996
  141MOL   H10025580   1.892   3.299   2.147  0.0961 -0.2069 -0.7638
  141MOL   C10125581   2.190   3.125   2.124  0.1430  0.7930  0.5895
  141MOL   C10225582   2.248   2.997   2.196  0.2355 -0.4984 -0.6305
  141MOL   C10325583   2.144   2.888   2.235 -0.7285  0.2803 -0.4509
  141MOL   H10425584   2.156   3.090   2.026  2.4525  1.2290 -0.4128
  141MOL   H10525585   2.270   3.198   2.107  0.1060  0.5999 -0.4507
  141MOL   H10625586   2.285   3.029   2.293 -2.2772  0.7707 -0.0305
  141MOL   H10725587   2.119   2.848   2.137 -2.8469  0.5505 -0.0510
  141MOL   H10825588   2.187   2.817   2.305 -2.7934  0.0235  0.6086
  141MOL   H10925589   2.050   2.923   2.278 -0.5113  0.0591  0.2091
  141MOL   C11025590   2.366   2.924   2.125 -0.1179 -0.1454 -0.0486
  141MOL   C11125591   2.488   3.011   2.077  1.1396  0.5900  0.3412
  141MOL   C11225592   2.557   3.081   2.188 -0.4096 -0.6707 -0.1011
  141MOL   H11325593   2.404   2.831   2.166  0.0448  0.0717  0.2978
  141MOL   H11425594   2.312   2.883   2.040  1.4008 -1.6786 -0.2857
  141MOL   H11525595   2.446   3.088   2.012  0.0767 -1.4299 -1.4726
  141MOL   H11625596   2.484   3.157   2.217 -1.0580 -1.8445  1.3517
  141MOL   H11725597   2.574   3.012   2.270  1.6032 -1.4521 -1.1326
  141MOL   H11825598   2.652   3.129   2.165 -0.3143 -0.9627 -0.3197
  141MOL   C11925599   2.591   2.927   2.005  0.1227  0.0327  0.3233
  141MOL   C12025600   2.554   2.868   1.864 -0.4269 -0.0661 -0.3043
  141MOL   C12125601   2.565   2.981   1.758  0.0606  0.4860 -0.3796
  141MOL   H12225602   2.683   2.983   1.993 -0.0255  0.3394  0.6094
  141MOL   H12325603   2.613   2.843   2.071 -1.7801 -2.2274 -1.8127
  141MOL   H12425604   2.450   2.837   1.871 -0.1637 -0.7771  0.4745
  141MOL   H12525605   2.511   3.071   1.787 -0.7273 -0.2985  0.6423
  141MOL   H12625606   2.669   3.010   1.748 -0.0357  0.3067 -2.0424
  141MOL   H12725607   2.531   2.954   1.658  0.4417  0.7664 -0.5863
  141MOL   C12825608   2.633   2.735   1.827 -0.3376 -0.6792  0.3182
  141MOL   C12925609   2.598   2.658   1.698  0.2403 -0.2256  0.4970
  141MOL   C13025610   2.720   2.592   1.642  0.6301  0.8829  0.1895
  141MOL   H13125611   2.738   2.766   1.819 -0.6049 -0.0178 -0.7274
  141MOL   H13225612   2.621   2.664   1.909 -0.1482 -0.9970  0.0730
  141MOL   H13325613   2.565   2.731   1.625  2.5226 -0.2409 -0.5936
  141MOL   H13425614   2.801   2.663   1.625 -0.0622  1.9220  1.1402
  141MOL   H13525615   2.758   2.506   1.698 -0.8353  1.3206  1.9164
  141MOL   H13625616   2.700   2.556   1.541  0.5935 -1.7119  1.0891
  141MOL   C13725617   2.468   2.575   1.705 -0.0237  0.3582 -0.2609
  141MOL   C13825618   2.417   2.514   1.573  0.0051  0.1942 -0.2681
  141MOL   C13925619   2.450   2.365   1.547  0.6872 -0.7974  0.1999
  141MOL   H14025620   2.480   2.497   1.780 -0.8346  0.2242 -0.2721
  141MOL   H14125621   2.396   2.643   1.749  0.3789 -0.0817  1.0991
  141MOL   H14225622   2.462   2.568   1.489 -0.4003 -1.2004 -1.4040
  141MOL   H14325623   2.418   2.329   1.450 -0.7770 -0.6438  0.6190
  141MOL   H14425624   2.559   2.355   1.555  1.1779  2.7990 -1.1824
  141MOL   H14525625   2.403   2.309   1.627 -1.5483 -2.0957 -1.9736
  141MOL   C14625626   2.266   2.542   1.562 -0.4952 -0.0649 -0.3203
  141MOL   C14725627   2.232   2.684   1.523 -0.3726  0.2332 -0.3652
  141MOL   C14825628   2.248   2.718   1.372 -0.4623  0.6379  0.0468
  141MOL   H14925629   2.227   2.470   1.490 -1.6782 -0.5520  0.7966
  141MOL   H15025630   2.222   2.511   1.657 -0.1820 -1.2528 -0.5552
  141MOL   H15125631   2.293   2.764   1.566 -1.8490  0.8681  0.5981
  141MOL   H15225632   2.223   2.823   1.355  0.7696  0.7583 -1.0518
  141MOL   H15325633   2.347   2.702   1.329 -0.5538  0.0082  0.0677
  141MOL   H15425634   2.183   2.654   1.312 -0.8034  2.5362 -1.6318
  141MOL   C15525635   2.083   2.712   1.565  0.9320 -0.1978  0.0481
  141MOL   C15625636   2.059   2.735   1.716  0.2079  0.5187 -0.4357
  141MOL   C15725637   2.139   2.845   1.780 -0.0112  0.6176 -0.1113
  141MOL   H15825638   2.056   2.806   1.517  1.2957 -0.2086 -0.1797
  141MOL   H15925639   2.008   2.643   1.526 -0.1443  0.6306  0.6211
  141MOL   H16025640   2.077   2.638   1.763 -0.1262  1.0525  0.8184
  141MOL   H16125641   2.107   2.872   1.881 -2.1688  1.0654 -0.9105
  141MOL   H16225642   2.245   2.821   1.792 -0.2839 -0.6959 -0.2561
  141MOL   H16325643   2.151   2.931   1.715 -0.2532 -0.1201 -1.1465
  141MOL   C16425644   1.904   2.757   1.741 -0.0715 -0.2677  0.3070
  141MOL   C16525645   1.852   2.786   1.884 -0.4697  0.2779 -0.2128
  141MOL   C16625646   1.706   2.815   1.891 -0.4926  0.2800  0.1029
  141MOL   H16725647   1.878   2.845   1.681  0.0889  1.2935  2.4614
  141MOL   H16825648   1.855   2.667   1.703  1.4287  0.1132 -2.6531
  141MOL   H16925649   1.914   2.867   1.923 -0.4483 -0.1630  0.6571
  141MOL   H17025650   1.672   2.816   1.994  0.4270  0.1764  0.4119
  141MOL   H17125651   1.685   2.908   1.839  2.5943  0.4980 -0.8683
  141MOL   H17225652   1.645   2.740   1.840 -1.0965  0.6437  0.2960
  141MOL   C17325653   1.894   2.672   1.978 -0.2052  0.0483 -0.4929
  141MOL   C17425654   1.856   2.535   1.932  0.6237 -0.0976  0.5861
  141MOL   C17525655   1.837   2.440   2.054 -0.6344  0.0848  0.5169
  141MOL   H17625656   2.003   2.670   1.983 -0.1623 -1.1786 -1.5207
  141MOL   H17725657   1.853   2.689   2.077  0.7146  0.3987 -0.1671
  141MOL   H17825658   1.933   2.489   1.870  0.7798  0.4325  0.3832
  141MOL   H17925659   1.750   2.467   2.114 -1.9374 -1.3401 -0.7114
  141MOL   H18025660   1.814   2.341   2.016  1.3426  0.1882 -1.0195
  141MOL   H18125661   1.925   2.431   2.118  0.9020  2.8555 -1.1077
  141MOL   H18225662   1.758   2.548   1.885  0.9730  0.9192  0.1276
  142MOL     C125663   6.551   0.595   1.274  0.1995 -0.1862  0.0384
  142MOL     C225664   6.549   0.433   1.264  0.1777 -0.2625 -0.0616
  142MOL     C325665   6.666   0.403   1.173 -0.5372  0.0036  0.2341
  142MOL     H425666   6.645   0.636   1.311  0.5537  0.6353 -1.7470
  142MOL     H525667   6.482   0.615   1.357  0.8227  0.9437  0.2936
  142MOL     H625668   6.454   0.396   1.225 -0.1849  0.9975 -0.4053
  142MOL     H725669   6.757   0.422   1.230 -0.8719  1.4239  0.3030
  142MOL     H825670   6.659   0.298   1.145  0.8917 -0.2102  0.6381
  142MOL     H925671   6.675   0.460   1.081  3.0011  1.0250  1.1334
  142MOL    H1025672   6.525   0.640   1.179 -0.0582  0.1118  0.2491
  142MOL    C1125673   6.564   0.372   1.406 -0.5939 -0.4473 -0.1508
  142MOL    C1225674   6.522   0.226   1.426  0.3002 -0.1751 -0.2623
  142MOL    C1325675   6.623   0.123   1.356  0.1015 -0.0433  0.3934
  142MOL    H1425676   6.661   0.402   1.447 -0.4870 -2.1283  0.8614
  142MOL    H1525677   6.488   0.419   1.469 -0.9873  0.0120 -0.9574
  142MOL    H1625678   6.438   0.214   1.357  1.4414 -2.4144 -1.3118
  142MOL    H1725679   6.619   0.032   1.415  0.3581  0.3601  1.0360
  142MOL    H1825680   6.593   0.095   1.255 -0.0015 -0.3125  0.4985
  142MOL    H1925681   6.727   0.157   1.352 -0.2197  0.7587 -2.6566
  142MOL    C2025682   6.496   0.189   1.572  0.6639  0.3436  0.1441
  142MOL    C2125683   6.376   0.095   1.612 -0.5340 -0.4405 -0.6483
  142MOL    C2225684   6.400   0.048   1.756 -0.3970  0.3490  0.2844
  142MOL    H2325685   6.586   0.147   1.615  2.4011  2.0208 -1.7016
  142MOL    H2425686   6.485   0.280   1.631  1.1902 -0.4532  1.4742
  142MOL    H2525687   6.382   0.011   1.542  2.6125 -0.1733 -0.7501
  142MOL    H2625688   6.482   7.674   1.763 -2.4393 -2.2251 -1.1880
  142MOL    H2725689   6.397   0.120   1.838 -1.3481 -1.3521  1.7823
  142MOL    H2825690   6.323   7.673   1.782 -0.2307  0.0727  0.0141
  142MOL    C2925691   6.233   0.165   1.599 -0.0676  0.3962 -0.5972
  142MOL    C3025692   6.157   0.155   1.464  0.4668 -0.3441  0.2440
  142MOL    C3125693   6.082   0.016   1.439 -0.4225 -0.2277 -0.0935
  142MOL    H3225694   6.175   0.119   1.679  1.3791 -3.7261 -1.8033
  142MOL    H3325695   6.257   0.267   1.630 -0.5791 -0.3227  2.3577
  142MOL    H3425696   6.232   0.164   1.385 -0.4944  0.3467 -0.6048
  142MOL    H3525697   6.029   7.685   1.349 -1.8273  0.8821  0.3767
  142MOL    H3625698   6.155   7.633   1.445 -0.3486 -0.0380  2.0414
  142MOL    H3725699   6.019   7.688   1.524 -1.8200 -0.7507 -1.2672
  142MOL    C3825700   6.056   0.272   1.444  0.1509 -0.4018 -0.4388
  142MOL    C3925701   6.111   0.417   1.439  0.6905  0.6148  0.2155
  142MOL    C4025702   6.167   0.442   1.299 -1.3843  0.7177 -1.5948
  142MOL    H4125703   6.004   0.251   1.351  0.0647 -0.6760 -0.3297
  142MOL    H4225704   5.981   0.259   1.522 -0.4821 -0.8940 -1.1212
  142MOL    H4325705   6.198   0.429   1.502  1.5326  1.3655 -1.0688
  142MOL    H4425706   6.240   0.523   1.293  0.8296 -1.0492  0.4562
  142MOL    H4525707   6.235   0.362   1.269  0.3742  1.2547  0.7527
  142MOL    H4625708   6.097   0.456   1.217 -0.8769 -2.5125 -2.6527
  142MOL    C4725709   5.998   0.535   1.466 -0.4720  0.5538 -0.1746
  142MOL    C4825710   6.050   0.679   1.474 -0.1921  0.4831  0.2978
  142MOL    C4925711   5.932   0.772   1.509 -0.2652  0.1161  0.6657
  142MOL    H5025712   5.926   0.524   1.385  1.7892 -1.5932 -1.9710
  142MOL    H5125713   5.946   0.513   1.560  1.9525  0.5110  1.2147
  142MOL    H5225714   6.087   0.700   1.374  1.1080 -1.6311  0.2966
  142MOL    H5325715   5.959   0.862   1.565 -0.3346  0.4662  0.1433
  142MOL    H5425716   5.892   0.794   1.410  1.4098 -2.5704 -0.6716
  142MOL    H5525717   5.857   0.729   1.575 -0.5449 -2.0920 -1.0448
  142MOL    C5625718   6.174   0.721   1.557 -0.2226  0.0830 -0.5283
  142MOL    C5725719   6.159   0.699   1.709  0.4520  0.2925  0.5735
  142MOL    C5825720   6.226   0.561   1.749 -0.3696  0.4750 -0.3473
  142MOL    H5925721   6.261   0.673   1.512  0.5675  0.8258  0.1941
  142MOL    H6025722   6.208   0.822   1.533  0.6246 -0.2337 -0.6793
  142MOL    H6125723   6.054   0.702   1.735  0.0321  3.5461 -1.2659
  142MOL    H6225724   6.170   0.475   1.710  0.3861  0.0642 -0.5264
  142MOL    H6325725   6.324   0.560   1.703 -1.0312 -0.9441 -1.7965
  142MOL    H6425726   6.240   0.557   1.857  1.7621 -2.7994 -0.6958
  142MOL    C6525727   6.221   0.823   1.781  0.2650  0.0672  0.9142
  142MOL    C6625728   6.228   0.836   1.936  0.0285 -0.6962 -0.7296
  142MOL    C6725729   6.328   0.945   1.981  0.1425 -0.1698  0.8055
  142MOL    H6825730   6.327   0.836   1.760  0.2137  1.2141  1.3314
  142MOL    H6925731   6.185   0.918   1.741 -0.2683 -0.9484 -1.0503
  142MOL    H7025732   6.257   0.740   1.977 -1.6347 -0.3326  1.3458
  142MOL    H7125733   6.430   0.909   1.989 -0.3113 -1.0638  2.6772
  142MOL    H7225734   6.345   1.029   1.912 -0.4168 -0.4028  0.3759
  142MOL    H7325735   6.295   0.987   2.076  1.1116  1.6349  0.3788
  142MOL    C7425736   6.093   0.886   1.995 -0.6974 -0.1459 -0.0811
  142MOL    C7525737   5.982   0.784   2.028  0.0056  0.3458  0.4614
  142MOL    C7625738   6.034   0.665   2.118  1.0056 -0.6708  0.4107
  142MOL    H7725739   6.103   0.923   2.097 -0.1254 -2.2683  0.6582
  142MOL    H7825740   6.048   0.964   1.934 -0.4447 -0.4279 -0.6330
  142MOL    H7925741   5.954   0.728   1.939 -0.0611 -1.0081  1.3181
  142MOL    H8025742   6.065   0.711   2.211 -0.8265 -1.4553  1.4409
  142MOL    H8125743   5.955   0.592   2.139  1.1878 -0.9571  0.1172
  142MOL    H8225744   6.122   0.619   2.072  0.1663 -0.4736 -1.4636
  142MOL    C8325745   5.859   0.844   2.101 -0.5376 -0.1095  0.1969
  142MOL    C8425746   5.770   0.947   2.029 -0.6155 -0.9789  0.0315
  142MOL    C8525747   5.697   0.873   1.915 -0.5534 -0.6011 -0.2062
  142MOL    H8625748   5.795   0.762   2.132 -0.5860 -0.3038 -0.4084
  142MOL    H8725749   5.893   0.871   2.201  0.2642 -1.9983  0.4532
  142MOL    H8825750   5.840   1.016   1.980 -0.4037  0.4791  2.3007
  142MOL    H8925751   5.646   0.943   1.849  2.0079  2.1261  0.6485
  142MOL    H9025752   5.756   0.800   1.859 -0.5568 -1.4041  0.8233
  142MOL    H9125753   5.612   0.825   1.963 -0.6069  0.4327  0.7388
  142MOL    C9225754   5.674   1.024   2.119  0.5003 -0.0082  0.0226
  142MOL    C9325755   5.750   1.104   2.229 -0.8328  0.3653  0.0166
  142MOL    C9425756   5.882   1.172   2.184  0.0216  0.5284  0.6247
  142MOL    H9525757   5.624   1.098   2.056  0.4079  1.5110  1.8326
  142MOL    H9625758   5.595   0.961   2.161  0.9011 -0.8580 -0.4865
  142MOL    H9725759   5.780   1.048   2.317 -1.0483  2.1790  1.2850
  142MOL    H9825760   5.911   1.219   2.278  0.3812  0.4401  0.5599
  142MOL    H9925761   5.964   1.106   2.157 -1.0976 -1.2725  1.5541
  142MOL   H10025762   5.864   1.248   2.108 -1.2957 -0.5997 -0.2028
  142MOL   C10125763   5.656   1.221   2.283 -0.7011  0.2592  0.1301
  142MOL   C10225764   5.512   1.182   2.330  0.2454  0.2831 -0.2319
  142MOL   C10325765   5.513   1.113   2.462 -0.0610  0.2486 -0.3210
  142MOL   H10425766   5.716   1.282   2.350 -0.8198  0.8317 -0.2768
  142MOL   H10525767   5.641   1.284   2.195 -0.8671 -1.2413 -0.9503
  142MOL   H10625768   5.471   1.113   2.256  1.3853 -0.0873 -0.5279
  142MOL   H10725769   5.569   1.019   2.457 -0.9052 -0.2292 -0.8448
  142MOL   H10825770   5.558   1.170   2.543  3.3533 -1.3793 -0.9564
  142MOL   H10925771   5.419   1.079   2.505  0.7292 -2.7393 -0.8270
  142MOL   C11025772   5.422   1.308   2.331  0.2796  0.3435 -0.0924
  142MOL   C11125773   5.272   1.283   2.330 -0.8469  0.9598 -0.6352
  142MOL   C11225774   5.186   1.404   2.372 -0.6187  0.1515 -0.3352
  142MOL   H11325775   5.440   1.358   2.427  0.0856 -0.6885  0.4916
  142MOL   H11425776   5.449   1.376   2.251 -2.0569  1.3290 -0.0773
  142MOL   H11525777   5.250   1.202   2.400 -2.6490  1.7804 -0.1993
  142MOL   H11625778   5.200   1.489   2.306  0.4639  0.6998  0.5930
  142MOL   H11725779   5.079   1.383   2.371 -1.0201  2.1761 -0.5126
  142MOL   H11825780   5.200   1.450   2.470  1.9301  0.3007 -0.7370
  142MOL   C11925781   5.221   1.238   2.193 -0.0341 -0.0006 -0.7209
  142MOL   C12025782   5.127   1.113   2.180 -0.3529  0.4676 -0.0785
  142MOL   C12125783   5.212   0.980   2.191  0.1205  0.5495 -0.2679
  142MOL   H12225784   5.166   1.319   2.146  0.3109  1.4452  1.2838
  142MOL   H12325785   5.308   1.218   2.129 -1.1708 -0.8420 -2.0188
  142MOL   H12425786   5.092   1.116   2.077  1.9165  1.7989 -0.8436
  142MOL   H12525787   5.296   0.991   2.123  1.0199  0.0435  0.7366
  142MOL   H12625788   5.245   0.962   2.294 -0.9226  3.2607  0.5839
  142MOL   H12725789   5.159   0.891   2.157  0.8569  0.6798 -1.7641
  142MOL   C12825790   4.995   1.115   2.256 -0.2222  0.3726  0.0547
  142MOL   C12925791   4.881   1.013   2.211 -0.2816  0.9356 -0.1206
  142MOL   C13025792   4.776   0.974   2.317 -0.8710  0.2634 -0.0755
  142MOL   H13125793   5.025   1.081   2.355 -0.4656  2.8439  1.0231
  142MOL   H13225794   4.948   1.210   2.282 -0.9051 -0.0525  0.3759
  142MOL   H13325795   4.930   0.918   2.188 -1.1293  0.8847 -1.8181
  142MOL   H13425796   4.718   1.062   2.347 -0.1042  1.0023 -0.7278
  142MOL   H13525797   4.693   0.913   2.281 -0.1951 -1.0091  0.5042
  142MOL   H13625798   4.830   0.925   2.398  0.5554 -1.2227 -1.9082
  142MOL   C13725799   4.815   1.048   2.077 -0.0636 -0.5395  0.0774
  142MOL   C13825800   4.752   1.187   2.065 -0.0476  0.5655 -0.1217
  142MOL   C13925801   4.848   1.292   2.011 -0.2023  0.2912 -0.1637
  142MOL   H14025802   4.889   1.039   1.998 -1.0724 -2.3621 -0.6861
  142MOL   H14125803   4.745   0.969   2.049 -1.5313  1.4766 -2.1141
  142MOL   H14225804   4.722   1.225   2.163 -0.3784  0.5784 -0.2299
  142MOL   H14325805   4.870   1.268   1.907  0.8397  2.2694 -0.4312
  142MOL   H14425806   4.812   1.395   2.010 -0.9464  0.0311 -0.5766
  142MOL   H14525807   4.941   1.301   2.066  1.0142  0.8270 -2.2321
  142MOL   C14625808   4.620   1.174   1.986  0.2811 -0.3743  0.4672
  142MOL   C14725809   4.498   1.090   2.049 -0.1396 -0.4928  0.2477
  142MOL   C14825810   4.460   1.142   2.180 -0.4557  0.4374 -0.2317
  142MOL   H14925811   4.591   1.275   1.956 -1.6412 -1.2377 -0.6216
  142MOL   H15025812   4.644   1.115   1.898 -1.4208 -1.7585  0.9054
  142MOL   H15125813   4.543   0.992   2.066  1.3695 -0.0313 -0.9806
  142MOL   H15225814   4.430   1.246   2.166  2.0181  1.1173 -0.8141
  142MOL   H15325815   4.373   1.085   2.212  0.6892 -1.1018  0.1825
  142MOL   H15425816   4.536   1.140   2.258  1.0440  1.4207 -1.6303
  142MOL   C15525817   4.381   1.063   1.945 -0.3234 -0.4204  0.2793
  142MOL   C15625818   4.417   0.994   1.806  0.2209 -0.2792 -0.0682
  142MOL   C15725819   4.491   0.865   1.816 -0.5500  0.7029 -0.5999
  142MOL   H15825820   4.298   1.016   1.998 -0.2837  0.3115  0.9975
  142MOL   H15925821   4.350   1.165   1.921  1.0659 -0.0807 -0.0979
  142MOL   H16025822   4.476   1.066   1.749 -0.3443  1.5857  1.6379
  142MOL   H16125823   4.468   0.798   1.734  0.7041 -0.5430  0.0543
  142MOL   H16225824   4.597   0.887   1.828 -1.1557  2.0466  3.3730
  142MOL   H16325825   4.450   0.806   1.898  0.1643 -1.2920 -1.6483
  142MOL   C16425826   4.294   0.964   1.720  0.1513 -0.3203  0.3506
  142MOL   C16525827   4.212   1.084   1.668 -0.2977 -0.0645 -0.5659
  142MOL   C16625828   4.290   1.177   1.576  0.1669 -0.2372 -0.8470
  142MOL   H16725829   4.316   0.922   1.622  0.6322  0.3054  0.1926
  142MOL   H16825830   4.241   0.897   1.789 -0.3560  2.1208  2.3884
  142MOL   H16925831   4.176   1.146   1.751 -0.7343 -0.6185 -0.3389
  142MOL   H17025832   4.231   1.266   1.554  1.2559  0.5694 -0.5889
  142MOL   H17125833   4.377   1.222   1.625 -1.7390  0.4587  2.0048
  142MOL   H17225834   4.322   1.125   1.486  0.0735 -0.5607 -0.6930
  142MOL   C17325835   4.079   1.042   1.598 -0.1807 -0.0430  0.0779
  142MOL   C17425836   4.100   0.956   1.469  0.0221 -0.0364  0.2494
  142MOL   C17525837   3.958   0.903   1.428 -0.1947  0.9202  0.1778
  142MOL   H17625838   4.015   0.987   1.667  1.7540 -1.0791  1.0832
  142MOL   H17725839   4.017   1.131   1.582 -0.2777 -0.2718 -0.8633
  142MOL   H17825840   4.159   0.866   1.484 -0.5393 -0.3442  0.6130
  142MOL   H17925841   3.930   0.813   1.483 -4.5690  2.2382  0.3169
  142MOL   H18025842   3.881   0.980   1.429  1.6606  2.8354 -1.2253
  142MOL   H18125843   3.956   0.871   1.324 -0.0718 -1.7476  0.9621
  142MOL   H18225844   4.144   1.007   1.383  1.1730 -0.8955  0.3312
  143MOL     C125845   2.441   2.962   7.580  0.3067 -0.0915 -0.0358
  143MOL     C225846   2.511   3.054   7.483 -0.0790 -0.2539  0.1076
  143MOL     C325847   2.619   3.125   7.566 -0.0547 -0.0690 -0.2054
  143MOL     H425848   2.395   3.021   7.659  1.1302  0.3944  0.0924
  143MOL     H525849   2.514   2.904   7.636 -0.0930  2.0937  2.8966
  143MOL     H625850   2.441   3.129   7.445  0.5374 -0.0554 -0.6490
  143MOL     H725851   2.692   3.053   7.604 -0.2774 -0.0783  0.2039
  143MOL     H825852   2.679   3.190   7.502  0.4515 -0.5292 -0.1979
  143MOL     H925853   2.575   3.174   7.653  1.2170  2.1575 -0.7699
  143MOL    H1025854   2.374   2.896   7.525  2.4212 -1.4968 -1.0208
  143MOL    C1125855   2.565   2.972   7.363 -0.5935  0.1999  0.3237
  143MOL    C1225856   2.643   3.052   7.261 -0.3375  0.3074  0.3445
  143MOL    C1325857   2.785   2.993   7.230  0.8906  0.9532  0.4007
  143MOL    H1425858   2.637   2.903   7.407 -0.9862 -1.3517 -1.4181
  143MOL    H1525859   2.497   2.904   7.312  1.3620  0.7476 -3.1678
  143MOL    H1625860   2.647   3.155   7.298 -0.3474 -0.2976  2.0604
  143MOL    H1725861   2.848   2.996   7.319  0.4943  1.3444  0.6699
  143MOL    H1825862   2.786   2.887   7.207 -1.0291  0.1624  3.6141
  143MOL    H1925863   2.836   3.050   7.152  0.4684  0.6815 -0.0795
  143MOL    C2025864   2.576   3.055   7.117  0.5761 -0.2153  0.2988
  143MOL    C2125865   2.434   3.114   7.115 -0.1394  0.3259  0.6761
  143MOL    C2225866   2.442   3.271   7.116 -0.0681  0.4847 -0.4915
  143MOL    H2325867   2.643   3.117   7.059  1.4470 -1.7948 -0.4286
  143MOL    H2425868   2.581   2.957   7.069 -1.1167 -0.4093  0.4537
  143MOL    H2525869   2.383   3.088   7.208  0.4769 -0.5392  0.7785
  143MOL    H2625870   2.465   3.321   7.022 -1.5823  1.4522 -0.3856
  143MOL    H2725871   2.343   3.301   7.151 -0.1975  1.0890 -1.3778
  143MOL    H2825872   2.497   3.307   7.203 -0.3044  0.3992 -0.3033
  143MOL    C2925873   2.352   3.059   6.999  0.2338 -0.3727 -0.2985
  143MOL    C3025874   2.301   2.912   7.008  0.2681 -0.3444  0.0054
  143MOL    C3125875   2.221   2.883   7.138 -0.2532 -0.0631  1.2518
  143MOL    H3225876   2.265   3.125   6.994  1.0287  0.7727  0.9732
  143MOL    H3325877   2.412   3.074   6.909 -1.0649  2.1067 -0.8042
  143MOL    H3425878   2.393   2.854   7.016 -0.2347 -1.4041 -1.6012
  143MOL    H3525879   2.135   2.950   7.143 -0.2874  0.1736 -1.8341
  143MOL    H3625880   2.186   2.780   7.134 -0.8316  0.1052  1.9077
  143MOL    H3725881   2.273   2.889   7.234 -0.0040 -0.4671  1.1431
  143MOL    C3825882   2.217   2.867   6.886  0.2680 -0.2876 -0.5267
  143MOL    C3925883   2.293   2.839   6.756 -0.6866  0.0700 -0.4679
  143MOL    C4025884   2.381   2.712   6.775  0.0387 -0.0170 -0.3650
  143MOL    H4125885   2.163   2.777   6.916 -1.0252  0.1454 -1.5163
  143MOL    H4225886   2.155   2.956   6.878  1.3669  0.4468 -0.9002
  143MOL    H4325887   2.360   2.921   6.733 -0.0575 -0.7435 -1.5755
  143MOL    H4425888   2.318   2.623   6.782 -0.1221  0.1936  0.8028
  143MOL    H4525889   2.448   2.701   6.689 -0.3093 -2.1520 -0.3968
  143MOL    H4625890   2.436   2.713   6.869  0.7283 -1.5075 -0.7380
  143MOL    C4725891   2.184   2.827   6.638 -0.0776 -0.4254 -0.2579
  143MOL    C4825892   2.246   2.860   6.505 -0.3432  0.6993  0.1343
  143MOL    C4925893   2.285   3.003   6.482  0.0088 -0.2699 -0.3873
  143MOL    H5025894   2.137   2.728   6.636 -1.1524  0.0459  1.1949
  143MOL    H5125895   2.103   2.896   6.660 -1.4401 -2.1905  0.3821
  143MOL    H5225896   2.162   2.840   6.439  0.1066 -2.8377  0.5061
  143MOL    H5325897   2.381   3.035   6.524 -0.7146 -0.0080  1.1085
  143MOL    H5425898   2.304   3.010   6.375  0.8614  3.3640 -0.0777
  143MOL    H5525899   2.201   3.072   6.494 -1.6629 -2.2616 -0.3514
  143MOL    C5625900   2.358   2.766   6.456 -0.0036  0.1229  0.1777
  143MOL    C5725901   2.365   2.748   6.300  0.1157 -0.3716 -0.5407
  143MOL    C5825902   2.512   2.762   6.260 -0.2386 -0.0106  0.0279
  143MOL    H5925903   2.449   2.796   6.509 -0.9636  0.9222  1.4022
  143MOL    H6025904   2.317   2.675   6.501  2.1566  0.1111  2.2159
  143MOL    H6125905   2.318   2.833   6.252 -0.3016  0.3975  1.1806
  143MOL    H6225906   2.524   2.767   6.152 -1.1040  0.3718 -0.0508
  143MOL    H6325907   2.546   2.863   6.284  1.1751 -0.7300  1.1218
  143MOL    H6425908   2.582   2.686   6.297 -0.1269 -0.6765 -1.5259
  143MOL    C6525909   2.294   2.616   6.268  0.2295  0.0156 -0.0926
  143MOL    C6625910   2.241   2.610   6.131 -0.1179 -0.1475 -0.2668
  143MOL    C6725911   2.227   2.459   6.096 -0.0773 -0.4844 -0.0521
  143MOL    H6825912   2.379   2.548   6.275 -2.3043 -3.3268 -0.5917
  143MOL    H6925913   2.213   2.594   6.338  0.8799  0.6658  0.8759
  143MOL    H7025914   2.315   2.648   6.061  2.5944 -2.3300  1.2999
  143MOL    H7125915   2.327   2.423   6.116  0.8799  1.5398 -1.0096
  143MOL    H7225916   2.155   2.412   6.163 -0.1132  0.6649  0.7434
  143MOL    H7325917   2.189   2.435   5.997 -0.5727  1.6487 -0.4082
  143MOL    C7425918   2.096   2.678   6.130 -0.3688 -0.4939 -0.0830
  143MOL    C7525919   2.024   2.698   6.000  0.4565  0.2717 -0.0322
  143MOL    C7625920   1.905   2.593   5.982  0.8146 -0.6486 -0.0046
  143MOL    H7725921   2.027   2.611   6.182  0.6592  0.4544  2.5430
  143MOL    H7825922   2.092   2.768   6.190 -0.1191 -0.2970 -0.3638
  143MOL    H7925923   2.091   2.685   5.915  1.9992  2.9336  0.7327
  143MOL    H8025924   1.946   2.495   5.961  1.7105 -0.3032  0.1334
  143MOL    H8125925   1.836   2.595   6.067 -1.9832  1.0293 -2.2108
  143MOL    H8225926   1.843   2.613   5.894  0.5984  1.1693  0.5408
  143MOL    C8325927   1.964   2.843   5.992  0.5892 -0.2476  0.2462
  143MOL    C8425928   2.057   2.965   6.012 -0.1978  0.7974 -0.1225
  143MOL    C8525929   2.185   2.962   5.931 -0.0417  0.2654 -0.1286
  143MOL    H8625930   1.922   2.852   5.892  2.2232  0.3905 -0.4028
  143MOL    H8725931   1.883   2.855   6.064 -1.4288  1.9291 -2.2827
  143MOL    H8825932   2.080   2.960   6.119  0.7355  1.6731 -0.2752
  143MOL    H8925933   2.235   2.865   5.935  0.9033  0.7334 -0.1911
  143MOL    H9025934   2.176   2.988   5.826 -0.8089  0.3541 -0.0407
  143MOL    H9125935   2.258   3.035   5.967 -0.3066  0.7821 -0.6308
  143MOL    C9225936   2.007   3.115   5.994 -0.6393  0.7936 -0.3376
  143MOL    C9325937   1.877   3.154   6.069 -0.1153  0.7718 -0.6498
  143MOL    C9425938   1.896   3.164   6.215 -0.5581  0.2359 -0.1918
  143MOL    H9525939   2.084   3.191   6.007  1.6582 -0.8397 -3.7092
  143MOL    H9625940   1.991   3.116   5.886 -0.1618 -1.4880 -0.4628
  143MOL    H9725941   1.801   3.077   6.054  1.8841 -1.2971 -0.3747
  143MOL    H9825942   1.797   3.170   6.261 -0.2027 -1.7942  0.8956
  143MOL    H9925943   1.924   3.070   6.263 -0.7653  0.6404  0.7226
  143MOL   H10025944   1.969   3.238   6.246 -1.3524 -0.1805  2.8271
  143MOL   C10125945   1.808   3.282   6.008 -0.5636  0.2892  0.2689
  143MOL   C10225946   1.754   3.264   5.868 -0.2278  0.9908  0.1931
  143MOL   C10325947   1.631   3.173   5.873  0.7841 -0.1753  0.1529
  143MOL   H10425948   1.733   3.321   6.077 -1.2085  0.7675 -0.6782
  143MOL   H10525949   1.892   3.350   6.017  0.8195 -1.1828 -1.2332
  143MOL   H10625950   1.828   3.226   5.797 -1.8209  0.4035 -1.1726
  143MOL   H10725951   1.567   3.196   5.957 -1.8800 -1.0471 -1.5906
  143MOL   H10825952   1.574   3.181   5.780 -0.9072  1.0739  1.2726
  143MOL   H10925953   1.654   3.067   5.878  0.5120 -0.3569 -1.8353
  143MOL   C11025954   1.725   3.407   5.811  0.2691  0.2608  0.5375
  143MOL   C11125955   1.853   3.488   5.770  0.1360  0.0459  0.4477
  143MOL   C11225956   1.944   3.425   5.655 -0.4207 -0.4327 -0.7590
  143MOL   H11325957   1.665   3.399   5.720  2.4211  0.9816 -1.0061
  143MOL   H11425958   1.659   3.452   5.884 -0.0113 -0.0015  0.4498
  143MOL   H11525959   1.914   3.488   5.860 -0.3520  1.6245  0.8024
  143MOL   H11625960   1.953   3.317   5.658 -1.1672 -0.5645 -2.7217
  143MOL   H11725961   1.904   3.438   5.554  2.0750  1.6548 -1.5210
  143MOL   H11825962   2.030   3.492   5.644 -1.2476  0.6279 -0.8952
  143MOL   C11925963   1.823   3.633   5.728  0.0706 -0.0359  1.4244
  143MOL   C12025964   1.775   3.727   5.836 -0.3885  0.0423  0.2072
  143MOL   C12125965   1.873   3.743   5.958 -0.2815 -0.1419 -0.5363
  143MOL   H12225966   1.909   3.681   5.682  1.7870 -0.8081  3.6938
  143MOL   H12325967   1.757   3.637   5.642  1.5093 -0.3158  0.2910
  143MOL   H12425968   1.686   3.685   5.882 -0.1046 -0.7345  0.0493
  143MOL   H12525969   1.821   3.790   6.041  1.2845  0.2709  0.2214
  143MOL   H12625970   1.911   3.649   5.997  1.0673  1.4418  2.0368
  143MOL   H12725971   1.953   3.814   5.936 -0.7916  1.2037  1.8538
  143MOL   C12825972   1.731   3.863   5.782 -0.3960  0.2045  0.3893
  143MOL   C12925973   1.674   3.973   5.875  0.6117  0.5911  0.4799
  143MOL   C13025974   1.627   4.096   5.788 -0.1843  0.4696 -0.3607
  143MOL   H13125975   1.818   3.905   5.731 -2.7153  1.1682 -2.9391
  143MOL   H13225976   1.658   3.850   5.702  0.9641 -3.1257 -0.3959
  143MOL   H13325977   1.759   4.010   5.932 -0.1368  1.7602  0.8522
  143MOL   H13425978   1.548   4.067   5.718  0.2256 -0.6483 -0.3692
  143MOL   H13525979   1.596   4.183   5.846 -3.3090 -0.8977  0.1364
  143MOL   H13625980   1.700   4.143   5.722 -0.4426 -0.9346 -1.6732
  143MOL   C13725981   1.567   3.927   5.977  0.6221  0.1112 -0.2439
  143MOL   C13825982   1.498   4.027   6.077 -0.2513 -0.1086 -0.6716
  143MOL   C13925983   1.377   3.969   6.148 -0.2238 -0.0056  0.3689
  143MOL   H14025984   1.488   3.875   5.924 -0.1976  2.9371 -1.9111
  143MOL   H14125985   1.599   3.848   6.046 -1.0792  1.0222  1.6553
  143MOL   H14225986   1.475   4.112   6.013 -0.1873 -0.9014 -1.7515
  143MOL   H14325987   1.319   4.055   6.181  1.2969  1.5663 -0.9005
  143MOL   H14425988   1.319   3.909   6.078  0.2546  0.5634 -0.5369
  143MOL   H14525989   1.404   3.914   6.238 -1.8103 -0.6893  0.4465
  143MOL   C14625990   1.597   4.090   6.174 -0.1550 -0.3574 -0.5114
  143MOL   C14725991   1.541   4.217   6.255  0.0465 -0.0306 -0.1600
  143MOL   C14825992   1.631   4.237   6.377 -0.2480  0.6576 -0.1252
  143MOL   H14925993   1.635   4.009   6.235 -0.4573 -0.6619 -0.7233
  143MOL   H15025994   1.685   4.112   6.114 -0.7496 -0.7895 -1.5586
  143MOL   H15125995   1.451   4.182   6.305  1.8179 -1.4859  2.1263
  143MOL   H15225996   1.739   4.242   6.366 -0.1349 -0.9728  0.1606
  143MOL   H15325997   1.605   4.333   6.422 -2.7586  0.6157 -1.4247
  143MOL   H15425998   1.629   4.159   6.454  2.9026  2.6212  2.0899
  143MOL   C15525999   1.491   4.339   6.175  0.0076 -0.2543 -0.4506
  143MOL   C15626000   1.594   4.394   6.063  1.0020  0.4758  0.4777
  143MOL   C15726001   1.512   4.476   5.959  0.3114  0.7367  0.7218
  143MOL   H15826002   1.400   4.303   6.128 -0.9071  2.3655 -0.7999
  143MOL   H15926003   1.450   4.420   6.236 -1.0481 -1.2028  0.1201
  143MOL   H16026004   1.629   4.310   6.003  2.2176  1.1513  0.2296
  143MOL   H16126005   1.495   4.581   5.985  1.3956  0.6197  1.9525
  143MOL   H16226006   1.558   4.472   5.861 -1.1362 -0.8563  0.0821
  143MOL   H16326007   1.421   4.416   5.958  0.8253 -0.0324 -0.4064
  143MOL   C16426008   1.709   4.472   6.115 -0.5512  0.1863 -1.2066
  143MOL   C16526009   1.812   4.521   6.017  0.1228  0.3337  0.3463
  143MOL   C16626010   1.912   4.614   6.088 -0.2337 -0.9978  0.1327
  143MOL   H16726011   1.666   4.561   6.161  1.3693  0.0337  0.9597
  143MOL   H16826012   1.765   4.414   6.188 -1.0467  0.0294 -0.9503
  143MOL   H16926013   1.765   4.568   5.931 -1.2369 -0.6013  0.5682
  143MOL   H17026014   1.945   4.570   6.182 -0.2543 -0.2132  0.5141
  143MOL   H17126015   1.995   4.644   6.024 -0.5775  0.2038  0.2439
  143MOL   H17226016   1.865   4.707   6.119  2.2772  0.2211  0.4406
  143MOL   C17326017   1.891   4.402   5.957 -0.1703 -0.9979 -0.5505
  143MOL   C17426018   1.973   4.307   6.047 -0.1637  0.3850 -0.5150
  143MOL   C17526019   2.046   4.201   5.975  0.1984  0.8159 -0.1344
  143MOL   H17626020   1.819   4.333   5.914 -2.8047 -0.4898  2.8200
  143MOL   H17726021   1.943   4.447   5.872  0.7544  3.5991  2.2495
  143MOL   H17826022   1.913   4.259   6.124  1.8085  0.3533  1.0433
  143MOL   H17926023   2.106   4.233   5.890  0.1331  0.5320 -0.2886
  143MOL   H18026024   2.120   4.142   6.029  1.2689  1.6813 -0.6416
  143MOL   H18126025   1.970   4.129   5.946 -0.4247  0.6643  1.8196
  143MOL   H18226026   2.044   4.370   6.100  0.9416 -0.4508 -0.9855
  144MOL     C126027   4.812   7.239   4.611 -0.8546 -0.0373  0.3610
  144MOL     C226028   4.822   7.377   4.540 -0.4970 -0.1574 -0.3196
  144MOL     C326029   4.933   7.455   4.608  1.6412  0.5081 -0.4853
  144MOL     H426030   4.903   7.186   4.584 -2.0970 -1.4060 -1.2587
  144MOL     H526031   4.741   7.174   4.560  0.0147 -0.3362 -0.4760
  144MOL     H626032   4.731   7.428   4.571 -1.0164 -0.9455 -0.5566
  144MOL     H726033   5.032   7.422   4.576  1.0485 -2.4020  0.4790
  144MOL     H826034   4.926   7.559   4.577  2.1158  0.8448  0.5238
  144MOL     H926035   4.925   7.461   4.717 -0.8800 -0.2761 -0.5814
  144MOL    H1026036   4.794   7.240   4.718  2.4744 -2.5784  1.0313
  144MOL    C1126037   4.843   7.369   4.387 -0.1962  0.0594  0.3785
  144MOL    C1226038   4.734   7.309   4.297  0.5420 -0.6196  0.2978
  144MOL    C1326039   4.604   7.393   4.296  0.4260  0.3943  0.3433
  144MOL    H1426040   4.858   7.471   4.352  1.9609 -0.3751 -0.0244
  144MOL    H1526041   4.942   7.333   4.358  0.4938  2.3627 -0.2528
  144MOL    H1626042   4.710   7.209   4.335  2.6631 -0.3073  2.6278
  144MOL    H1726043   4.530   7.356   4.224  2.4178  1.8912 -2.6105
  144MOL    H1826044   4.550   7.404   4.389 -1.9903 -0.7452 -0.8663
  144MOL    H1926045   4.619   7.497   4.268  0.3502  0.9180  2.2478
  144MOL    C2026046   4.789   7.293   4.146  0.0068 -0.2477 -0.1551
  144MOL    C2126047   4.708   7.238   4.034  0.5382  0.0035 -0.0224
  144MOL    C2226048   4.784   7.239   3.896 -0.5031  0.1701 -0.8059
  144MOL    H2326049   4.840   7.385   4.119  0.2182 -0.7321 -1.4480
  144MOL    H2426050   4.866   7.216   4.141 -1.6983 -1.9033 -1.5236
  144MOL    H2526051   4.619   7.300   4.022  0.3155  0.0261  1.6702
  144MOL    H2626052   4.732   7.184   3.818 -0.2883  1.8524 -2.1618
  144MOL    H2726053   4.786   7.340   3.855  2.1293  0.2931 -0.4342
  144MOL    H2826054   4.883   7.198   3.912  0.2133  1.8284 -0.8993
  144MOL    C2926055   4.640   7.097   4.066 -0.3125 -0.3545  0.3830
  144MOL    C3026056   4.488   7.091   4.058  0.6296 -0.5356  0.6331
  144MOL    C3126057   4.439   7.117   3.921  0.6334  0.1782  0.1091
  144MOL    H3226058   4.684   7.024   3.998  2.3182 -0.2823  1.9188
  144MOL    H3326059   4.660   7.068   4.170 -1.5523 -1.4988  0.3095
  144MOL    H3426060   4.436   7.160   4.126  0.4315  0.6484 -0.6955
  144MOL    H3526061   4.462   7.219   3.891  1.3925 -0.3373 -1.0778
  144MOL    H3626062   4.478   7.042   3.852  0.4108  0.8406 -0.7396
  144MOL    H3726063   4.331   7.119   3.908  0.6390 -0.9226 -0.1647
  144MOL    C3826064   4.441   6.950   4.101  0.4918 -0.2432 -0.7616
  144MOL    C3926065   4.393   6.931   4.248  0.2547 -0.2034 -0.2360
  144MOL    C4026066   4.252   6.978   4.285 -0.6734 -0.1446  0.5053
  144MOL    H4126067   4.347   6.920   4.053 -0.0589 -0.2092  0.2724
  144MOL    H4226068   4.510   6.867   4.084  1.0369  0.1603 -0.5052
  144MOL    H4326069   4.460   6.988   4.313  0.5655  0.9623 -1.5458
  144MOL    H4426070   4.226   6.933   4.381 -2.0209  0.9790  0.6860
  144MOL    H4526071   4.237   7.086   4.292  2.4489  0.2773  1.4565
  144MOL    H4626072   4.173   6.937   4.223 -0.3691 -0.2956  0.2179
  144MOL    C4726073   4.405   6.786   4.296  0.4058 -0.8027  0.1880
  144MOL    C4826074   4.542   6.719   4.297  0.0501  0.7522  0.7246
  144MOL    C4926075   4.662   6.792   4.359  0.0319 -0.0489  0.5408
  144MOL    H5026076   4.362   6.784   4.396  1.0219  0.6027  0.4826
  144MOL    H5126077   4.338   6.726   4.233  1.4095  1.4977 -3.1712
  144MOL    H5226078   4.560   6.694   4.192  1.0156  1.0736  0.8041
  144MOL    H5326079   4.760   6.747   4.345 -0.5696 -0.8155 -1.2778
  144MOL    H5426080   4.669   6.887   4.307 -0.3974 -1.8050 -2.8436
  144MOL    H5526081   4.647   6.814   4.465 -0.1764  2.2566  0.0686
  144MOL    C5626082   4.530   6.585   4.373 -0.4797  0.1647  0.2720
  144MOL    C5726083   4.451   6.468   4.310 -0.1644 -0.2588 -0.2340
  144MOL    C5826084   4.538   6.399   4.201  0.4209  0.3435 -0.6917
  144MOL    H5926085   4.628   6.538   4.384 -0.8637 -0.0982  3.1182
  144MOL    H6026086   4.509   6.594   4.480  3.6488 -2.1704  1.3784
  144MOL    H6126087   4.361   6.504   4.261 -0.2823 -0.6794 -0.3220
  144MOL    H6226088   4.476   6.324   4.152 -0.2250  0.4391 -0.0246
  144MOL    H6326089   4.581   6.462   4.122 -1.9293  1.7762 -0.8679
  144MOL    H6426090   4.616   6.340   4.250 -0.6530 -0.6731 -0.1922
  144MOL    C6526091   4.417   6.365   4.429  0.5304  0.5063 -0.2407
  144MOL    C6626092   4.297   6.404   4.523  0.6318 -0.5853  0.6201
  144MOL    C6726093   4.152   6.385   4.458  0.5184 -1.0514  0.4917
  144MOL    H6826094   4.385   6.266   4.395 -0.8374  0.1017  2.1096
  144MOL    H6926095   4.512   6.341   4.478  0.0712 -0.1788  0.3261
  144MOL    H7026096   4.302   6.511   4.539  0.2637 -0.6897  1.4195
  144MOL    H7126097   4.084   6.461   4.496  3.5951  2.2992 -0.3933
  144MOL    H7226098   4.152   6.385   4.349  0.3919 -3.6112  0.4731
  144MOL    H7326099   4.110   6.293   4.498 -1.2064  0.2196  1.7177
  144MOL    C7426100   4.305   6.329   4.656 -0.1533 -0.0846 -0.2252
  144MOL    C7526101   4.400   6.364   4.769 -0.0752 -0.1325  0.1441
  144MOL    C7626102   4.548   6.313   4.747  0.4998 -0.4171 -0.0835
  144MOL    H7726103   4.206   6.337   4.701 -0.9268  1.0154 -2.0824
  144MOL    H7826104   4.320   6.222   4.641 -0.4325  0.0088 -1.1665
  144MOL    H7926105   4.366   6.309   4.856  0.8865 -0.1278  0.5341
  144MOL    H8026106   4.612   6.370   4.679  2.8197 -3.9686 -1.0076
  144MOL    H8126107   4.608   6.324   4.837 -0.1007 -1.1421  0.4138
  144MOL    H8226108   4.564   6.209   4.717  2.5509 -0.4126  0.9547
  144MOL    C8326109   4.402   6.512   4.818  0.4488 -0.1477 -0.7056
  144MOL    C8426110   4.258   6.560   4.851 -0.1071  0.4847  1.1978
  144MOL    C8526111   4.197   6.508   4.983 -0.5128  0.6016 -0.8629
  144MOL    H8626112   4.462   6.511   4.909  1.9695 -1.3942 -1.6919
  144MOL    H8726113   4.456   6.578   4.749 -1.1975  2.1736  0.1843
  144MOL    H8826114   4.195   6.522   4.771  1.2722 -2.8000  1.6190
  144MOL    H8926115   4.257   6.526   5.072  0.2384 -2.8210 -0.6091
  144MOL    H9026116   4.098   6.547   5.006 -0.8172 -0.7973  0.2939
  144MOL    H9126117   4.183   6.400   4.974 -2.2034  0.7318 -0.0122
  144MOL    C9226118   4.242   6.710   4.838  0.7071  0.3036  0.1528
  144MOL    C9326119   4.257   6.773   4.692 -0.0211 -0.1818 -0.2283
  144MOL    C9426120   4.142   6.731   4.604 -0.0197 -0.1406  0.1316
  144MOL    H9526121   4.143   6.739   4.871  0.8623 -0.5780  1.4204
  144MOL    H9626122   4.314   6.754   4.908  2.3925  1.4278 -2.2097
  144MOL    H9726123   4.346   6.732   4.645  0.1963 -1.2554  1.0932
  144MOL    H9826124   4.111   6.627   4.615  0.5250 -0.6692 -2.8446
  144MOL    H9926125   4.054   6.789   4.632  0.8737  2.0790 -1.4988
  144MOL   H10026126   4.159   6.750   4.498  0.6695  1.7691  0.5578
  144MOL   C10126127   4.277   6.927   4.692 -0.1013  0.8540 -0.6493
  144MOL   C10226128   4.399   6.991   4.767  0.7060 -0.7282 -0.0536
  144MOL   C10326129   4.537   6.947   4.721  0.3716  0.4998  0.2956
  144MOL   H10426130   4.283   6.952   4.586  3.4454  2.3876 -0.1365
  144MOL   H10526131   4.182   6.964   4.730  0.7780 -0.4299  3.0004
  144MOL   H10626132   4.390   6.975   4.874  1.4930  1.5399  0.3935
  144MOL   H10726133   4.556   6.960   4.615 -1.9564  1.7125 -0.0099
  144MOL   H10826134   4.613   6.994   4.784  0.1200 -1.1945  1.9028
  144MOL   H10926135   4.552   6.841   4.741 -0.1531 -0.0075 -1.9084
  144MOL   C11026136   4.391   7.142   4.766 -0.4743  0.4617  0.8328
  144MOL   C11126137   4.494   7.220   4.847  0.1290 -0.0260 -0.0055
  144MOL   C11226138   4.506   7.360   4.787 -0.2282  0.2135 -0.0899
  144MOL   H11326139   4.412   7.166   4.662  1.9635  0.4844  1.3084
  144MOL   H11426140   4.291   7.175   4.796  0.1823  4.0740 -0.7079
  144MOL   H11526141   4.596   7.185   4.830 -0.2008 -0.3518 -1.4511
  144MOL   H11626142   4.539   7.365   4.684 -1.3050 -0.4188 -0.4819
  144MOL   H11726143   4.411   7.414   4.797 -0.3987 -0.1020  0.0130
  144MOL   H11826144   4.577   7.411   4.852 -0.9441 -0.4216  1.2108
  144MOL   C11926145   4.460   7.227   4.998 -0.5957 -0.5610 -0.3126
  144MOL   C12026146   4.561   7.139   5.083 -0.2090 -0.5302  0.0079
  144MOL   C12126147   4.707   7.196   5.080  0.1570 -0.0287  0.3086
  144MOL   H12226148   4.456   7.332   5.028  1.9693 -0.9370  1.5361
  144MOL   H12326149   4.362   7.185   5.022 -0.9630  1.3221  1.6516
  144MOL   H12426150   4.569   7.035   5.051 -0.7342 -0.8765  0.9882
  144MOL   H12526151   4.743   7.218   4.980 -0.9385  0.9047  0.1140
  144MOL   H12626152   4.713   7.282   5.146  2.9699 -0.3244  0.5106
  144MOL   H12726153   4.776   7.121   5.121 -0.8844 -1.7469 -0.9899
  144MOL   C12826154   4.514   7.128   5.225  1.1134  0.2149  0.3197
  144MOL   C12926155   4.582   7.028   5.323 -0.1816  0.0563  0.9864
  144MOL   C13026156   4.684   7.108   5.415 -0.6015 -0.0431  0.3631
  144MOL   H13126157   4.508   7.229   5.265  0.4576  1.4297 -2.6920
  144MOL   H13226158   4.413   7.088   5.222  1.7627 -1.6003  1.5773
  144MOL   H13326159   4.636   6.951   5.268 -1.3151  0.4512 -0.7188
  144MOL   H13426160   4.749   7.172   5.355  2.0028 -1.0933  2.0032
  144MOL   H13526161   4.639   7.168   5.493  1.1141  1.5060  0.1884
  144MOL   H13626162   4.756   7.044   5.466 -0.5538 -0.6124 -0.3909
  144MOL   C13726163   4.482   6.940   5.399  0.2675  0.2585  0.3321
  144MOL   C13826164   4.398   6.837   5.309  0.5119 -0.4942 -0.0137
  144MOL   C13926165   4.477   6.754   5.204  0.9655 -0.1889 -0.0623
  144MOL   H14026166   4.539   6.894   5.480  0.0635 -0.0618  0.2940
  144MOL   H14126167   4.411   7.008   5.446 -0.1930 -0.5124  0.7444
  144MOL   H14226168   4.336   6.907   5.252  3.8623  2.2101 -0.4983
  144MOL   H14326169   4.546   6.689   5.257  0.3532  0.4873  1.5867
  144MOL   H14426170   4.410   6.702   5.136 -0.3202  0.6179  0.5625
  144MOL   H14526171   4.542   6.822   5.148  1.3901  0.4552  1.2018
  144MOL   C14626172   4.302   6.746   5.399  0.8526 -0.1726 -0.2838
  144MOL   C14726173   4.206   6.827   5.488  0.9040 -0.1116 -0.2903
  144MOL   C14826174   4.119   6.921   5.402 -0.2125  0.8058 -0.2758
  144MOL   H14926175   4.249   6.678   5.332 -1.6829 -0.5715  2.0554
  144MOL   H15026176   4.356   6.673   5.458 -0.6323 -1.5764 -0.6240
  144MOL   H15126177   4.255   6.874   5.573  0.4797 -0.8884  0.3957
  144MOL   H15226178   4.183   7.003   5.369  3.2422 -0.6322  2.5894
  144MOL   H15326179   4.062   6.868   5.326  0.9494 -1.3039  0.2665
  144MOL   H15426180   4.045   6.968   5.467  1.2755  2.1607  0.4745
  144MOL   C15526181   4.103   6.732   5.563 -0.0350  0.1119 -0.1898
  144MOL   C15626182   4.164   6.625   5.659 -0.5082 -0.1729  0.2437
  144MOL   C15726183   4.245   6.700   5.773 -0.6768 -0.6394  0.6149
  144MOL   H15826184   4.028   6.791   5.616  0.6842  0.7499  0.1350
  144MOL   H15926185   4.039   6.680   5.491  0.1222  1.2281 -1.1533
  144MOL   H16026186   4.230   6.552   5.613 -0.9873  0.3334 -1.2800
  144MOL   H16126187   4.334   6.746   5.730 -1.4940 -1.7804 -2.4004
  144MOL   H16226188   4.189   6.784   5.816 -1.4677 -0.6875 -0.3164
  144MOL   H16326189   4.285   6.643   5.857 -0.1550 -1.4900 -0.2103
  144MOL   C16426190   4.047   6.548   5.714  0.2784 -0.1675  0.0649
  144MOL   C16526191   4.074   6.414   5.789  0.3228  0.7591  0.6910
  144MOL   C16626192   4.179   6.325   5.725 -0.8273  0.2256 -0.4930
  144MOL   H16726193   3.982   6.611   5.775  0.9639  0.6666 -0.0549
  144MOL   H16826194   3.976   6.520   5.636  1.2227 -0.1227 -0.8096
  144MOL   H16926195   3.983   6.356   5.777 -0.0927  1.8299 -1.6864
  144MOL   H17026196   4.185   6.326   5.617 -1.1011  1.3031 -0.5029
  144MOL   H17126197   4.276   6.370   5.745  0.0041 -0.5546 -2.5863
  144MOL   H17226198   4.184   6.221   5.759  0.0965  1.4517  3.3903
  144MOL   C17326199   4.102   6.427   5.938  0.0075 -0.1308  0.3205
  144MOL   C17426200   3.972   6.464   6.016  1.0172 -0.4753 -1.1668
  144MOL   C17526201   3.961   6.426   6.166  0.6702 -0.2382  0.3818
  144MOL   H17626202   4.150   6.338   5.979  1.7668  0.9375  0.6361
  144MOL   H17726203   4.179   6.500   5.963 -1.3818  1.2116  0.7726
  144MOL   H17826204   3.884   6.419   5.970  0.7448 -0.5181 -0.6014
  144MOL   H17926205   3.915   6.509   6.219 -0.4363 -0.1396 -0.7016
  144MOL   H18026206   3.912   6.334   6.197  1.0408 -0.0920  1.4078
  144MOL   H18126207   4.062   6.415   6.207  0.9301 -1.6174 -0.5846
  144MOL   H18226208   3.975   6.573   6.019  1.9289 -0.5011 -1.0354
  145MOL     C126209   6.481   2.068   1.550  0.5952 -0.9959  0.2396
  145MOL     C226210   6.505   2.168   1.429  0.0521  0.2491  0.3081
  145MOL     C326211   6.566   2.297   1.492  0.1903  0.0358 -0.5789
  145MOL     H426212   6.431   2.130   1.625  0.2139 -1.5997  0.4895
  145MOL     H526213   6.572   2.031   1.596 -0.0492 -0.8039  1.7000
  145MOL     H626214   6.411   2.198   1.384 -0.6347  0.3819  1.8015
  145MOL     H726215   6.493   2.339   1.560  1.1389  0.1263  0.3983
  145MOL     H826216   6.656   2.274   1.549 -0.6567 -1.8156  0.0579
  145MOL     H926217   6.580   2.381   1.424 -0.8827  0.1732 -0.6304
  145MOL    H1026218   6.416   1.987   1.516  1.1055 -1.6715  0.8533
  145MOL    C1126219   6.591   2.107   1.313  0.2458  0.4129 -0.4606
  145MOL    C1226220   6.582   2.189   1.190  0.0174  0.3133  0.3302
  145MOL    C1326221   6.705   2.173   1.094  0.1926 -1.4389  0.3466
  145MOL    H1426222   6.691   2.084   1.348  0.2419  0.0705 -0.6792
  145MOL    H1526223   6.540   2.014   1.290 -1.2864  1.2078 -0.3659
  145MOL    H1626224   6.587   2.294   1.218 -1.7013  0.0896  1.5801
  145MOL    H1726225   6.722   2.067   1.076  1.2939 -1.5199  1.7891
  145MOL    H1826226   6.679   2.229   1.004 -0.8033  1.4986  2.3937
  145MOL    H1926227   6.795   2.218   1.136  0.9411 -2.5374 -0.0705
  145MOL    C2026228   6.448   2.178   1.112 -0.3035  0.1418  0.2255
  145MOL    C2126229   6.424   2.289   1.003  0.1870 -0.1817  0.5327
  145MOL    C2226230   6.292   2.239   0.928  0.0339  0.7549  0.2054
  145MOL    H2326231   6.440   2.083   1.060  2.8934  0.9274 -1.8458
  145MOL    H2426232   6.361   2.184   1.177 -0.9672  1.1166 -0.7293
  145MOL    H2526233   6.497   2.291   0.923  0.4718 -1.2367  0.7558
  145MOL    H2626234   6.308   2.143   0.879  2.1290  0.5889  1.1907
  145MOL    H2726235   6.210   2.222   0.999 -0.7358  0.3142 -0.7698
  145MOL    H2826236   6.253   2.309   0.855  0.2966  1.3354  0.6239
  145MOL    C2926237   6.396   2.435   1.051  0.2761 -1.4397 -0.1255
  145MOL    C3026238   6.379   2.550   0.958  0.0437  0.2693  0.0152
  145MOL    C3126239   6.323   2.671   1.043  0.0459  0.0943 -0.7909
  145MOL    H3226240   6.319   2.427   1.127  0.0945  0.9184 -0.0407
  145MOL    H3326241   6.477   2.469   1.116  1.3217 -0.7751 -1.7367
  145MOL    H3426242   6.300   2.535   0.884  0.9481  0.4574 -0.9928
  145MOL    H3526243   6.403   2.688   1.115  1.9320  1.1185 -3.0728
  145MOL    H3626244   6.298   2.763   0.991  4.2666  0.9539 -1.4504
  145MOL    H3726245   6.229   2.647   1.093  0.0989  0.8570 -0.3206
  145MOL    C3826246   6.508   2.587   0.888  0.2798  0.0556  0.4821
  145MOL    C3926247   6.528   2.722   0.815  0.2301 -0.3355 -0.2519
  145MOL    C4026248   6.676   2.724   0.764 -0.6050  0.1250  0.0420
  145MOL    H4126249   6.582   2.591   0.968  0.2865  0.6895  0.4503
  145MOL    H4226250   6.531   2.508   0.817 -0.9524  1.0827 -1.0639
  145MOL    H4326251   6.507   2.790   0.897  0.4422  0.5943 -0.9567
  145MOL    H4426252   6.708   2.827   0.746 -1.8398  0.3341 -1.0376
  145MOL    H4526253   6.748   2.693   0.840  0.4224  1.5225 -0.3522
  145MOL    H4626254   6.708   2.668   0.676 -0.7061  0.8326 -0.4473
  145MOL    C4726255   6.423   2.744   0.703 -0.0459 -0.4381 -0.3391
  145MOL    C4826256   6.449   2.877   0.619 -0.0260  0.4254 -0.0463
  145MOL    C4926257   6.346   2.888   0.502  0.2166 -0.6478 -0.6451
  145MOL    H5026258   6.422   2.661   0.632 -1.9177 -1.5457  0.9313
  145MOL    H5126259   6.324   2.745   0.747  1.1930 -0.7390  2.5579
  145MOL    H5226260   6.547   2.862   0.573  0.5597 -0.5161  1.4792
  145MOL    H5326261   6.249   2.924   0.536  0.5490  0.8021 -1.2188
  145MOL    H5426262   6.377   2.955   0.422 -1.7684 -0.6068 -1.4015
  145MOL    H5526263   6.326   2.796   0.447  0.0721  0.5965 -2.7222
  145MOL    C5626264   6.448   3.003   0.703 -0.3896  0.4202  1.2660
  145MOL    C5726265   6.479   3.139   0.635  0.0973  0.5827 -0.7628
  145MOL    C5826266   6.431   3.263   0.719 -0.1198  0.8074 -0.3495
  145MOL    H5926267   6.348   3.007   0.745 -0.1373 -0.6117  1.9998
  145MOL    H6026268   6.522   2.997   0.784 -0.3244 -0.1753  1.1639
  145MOL    H6126269   6.416   3.146   0.547  0.9887  0.8008 -1.3835
  145MOL    H6226270   6.428   3.353   0.658 -0.6029  0.7649 -0.3860
  145MOL    H6326271   6.330   3.247   0.756 -0.3033 -0.1620 -1.2403
  145MOL    H6426272   6.502   3.283   0.800  1.5823  1.4759 -1.9618
  145MOL    C6526273   6.631   3.154   0.592 -0.0395 -0.3482  0.6729
  145MOL    C6626274   6.672   3.278   0.505 -0.3638 -0.2699  0.3056
  145MOL    C6726275   6.722   3.391   0.590 -0.1213 -0.3346  0.1280
  145MOL    H6826276   6.692   3.151   0.682  4.0302  2.8456 -1.7900
  145MOL    H6926277   6.663   3.062   0.544  0.8777  1.0530 -1.4818
  145MOL    H7026278   6.581   3.312   0.456 -1.2629  1.2512  2.9359
  145MOL    H7126279   6.826   3.378   0.617 -0.0497  0.6675  0.3543
  145MOL    H7226280   6.729   3.485   0.535  0.4667  0.6802  1.8754
  145MOL    H7326281   6.652   3.413   0.671  2.0794 -0.1388  2.0358
  145MOL    C7426282   6.775   3.233   0.395 -1.0032  0.0441  0.0631
  145MOL    C7526283   6.704   3.171   0.271 -0.0751 -0.3999  0.3035
  145MOL    C7626284   6.640   3.274   0.177  0.1492  0.2597 -0.0770
  145MOL    H7726285   6.851   3.309   0.379  1.0333 -2.2559 -1.5803
  145MOL    H7826286   6.836   3.150   0.431  1.9072  2.9895  2.2384
  145MOL    H7926287   6.622   3.112   0.312 -0.8032  1.1017  1.0407
  145MOL    H8026288   6.718   3.328   0.124  1.7060 -0.0715  1.7915
  145MOL    H8126289   6.587   3.221   0.098 -0.0779 -1.8341  1.4402
  145MOL    H8226290   6.574   3.347   0.223 -1.1485 -0.0609 -1.4127
  145MOL    C8326291   6.789   3.072   0.190  0.3818 -0.3764 -0.6638
  145MOL    C8426292   6.827   2.927   0.241  0.0996  0.3247  1.2647
  145MOL    C8526293   6.718   2.848   0.319  0.4818  0.2436  0.1201
  145MOL    H8626294   6.726   3.045   0.105  0.8521 -2.1149 -0.4911
  145MOL    H8726295   6.879   3.119   0.152  2.0208 -1.8290  1.2837
  145MOL    H8826296   6.898   2.952   0.320  1.6315  2.7032 -0.7654
  145MOL    H8926297   6.654   2.919   0.371  0.5179  0.2046  0.2173
  145MOL    H9026298   6.648   2.801   0.250 -3.3908 -0.1085  4.0851
  145MOL    H9126299   6.762   2.772   0.383 -0.3409 -1.4506 -1.2887
  145MOL    C9226300   6.900   2.845   0.133 -0.2699  0.5393  0.5427
  145MOL    C9326301   7.004   2.738   0.173  0.2242  0.2451 -0.0930
  145MOL    C9426302   7.030   2.639   0.063  0.2067  0.8521 -0.3103
  145MOL    H9526303   6.820   2.793   0.080  0.6461 -0.1520 -0.1851
  145MOL    H9626304   6.943   2.915   0.061  1.0470 -0.2709  0.5114
  145MOL    H9726305   6.962   2.685   0.259 -0.2341  0.1423 -0.3765
  145MOL    H9826306   7.098   2.566   0.105  0.5212  1.3880  0.1212
  145MOL    H9926307   6.941   2.579   0.047  1.2195 -0.9352  0.6993
  145MOL   H10026308   7.050   2.689   7.665  0.9948  1.5264  0.2061
  145MOL   C10126309   7.136   2.803   0.219  0.0920 -0.5864  0.4648
  145MOL   C10226310   7.235   2.726   0.304  0.4748  0.2067 -0.1043
  145MOL   C10326311   7.369   2.731   0.237 -0.0984 -0.2113  0.3280
  145MOL   H10426312   7.182   2.867   0.144  1.3041  0.6367  2.2205
  145MOL   H10526313   7.102   2.884   0.284 -0.3277  0.9087 -1.5529
  145MOL   H10626314   7.205   2.621   0.298 -2.1687  0.8420  0.9582
  145MOL   H10726315   7.373   2.682   0.140  0.4676  1.2333 -0.3845
  145MOL   H10826316   7.391   2.836   0.221  1.1928 -0.3427  1.1615
  145MOL   H10926317   7.443   2.681   0.300 -1.0930 -1.2784  0.6797
  145MOL   C11026318   7.237   2.774   0.453  0.2445  0.3928  0.4012
  145MOL   C11126319   7.113   2.738   0.530  0.0761 -0.5319 -0.6684
  145MOL   C11226320   7.098   2.588   0.540 -0.0150  0.9087 -0.2638
  145MOL   H11326321   7.322   2.732   0.507  1.3203  0.7352 -0.9708
  145MOL   H11426322   7.258   2.880   0.469  0.3981  0.3099  0.7434
  145MOL   H11526323   7.024   2.771   0.476 -0.5927  0.2602  0.8736
  145MOL   H11626324   7.026   2.553   0.615  0.6372  1.5943  0.6928
  145MOL   H11726325   7.047   2.543   0.454 -0.7499 -1.0145  1.1252
  145MOL   H11826326   7.196   2.549   0.565 -1.3053 -2.4725 -0.2017
  145MOL   C11926327   7.119   2.803   0.674 -0.1946 -0.7674  0.0333
  145MOL   C12026328   7.110   2.953   0.685 -0.1563 -0.5818  0.0408
  145MOL   C12126329   6.974   3.017   0.643  0.3963 -0.7315  0.3069
  145MOL   H12226330   7.042   2.765   0.741 -1.3438  1.1272 -0.2061
  145MOL   H12326331   7.212   2.777   0.726 -0.3804 -0.3549  0.5786
  145MOL   H12426332   7.183   2.994   0.615 -0.9362 -1.0482 -1.0602
  145MOL   H12526333   6.983   3.124   0.630  2.1034 -1.2073 -3.0164
  145MOL   H12626334   6.945   2.981   0.544 -0.4177  2.0432 -0.5125
  145MOL   H12726335   6.903   2.983   0.718  0.5969  0.0786  0.8708
  145MOL   C12826336   7.128   2.993   0.827  0.6998  0.1740  0.9073
  145MOL   C12926337   7.137   3.140   0.870  0.5314  0.0950  0.3069
  145MOL   C13026338   7.152   3.147   1.022  0.4821  0.0859 -0.4817
  145MOL   H13126339   7.040   2.965   0.885  0.4703 -2.7032 -0.7542
  145MOL   H13226340   7.207   2.935   0.874  1.7078  1.7515  1.1917
  145MOL   H13326341   7.042   3.193   0.859  1.2312  0.9351 -1.8938
  145MOL   H13426342   7.131   3.247   1.060  0.0253 -0.0957 -0.2625
  145MOL   H13526343   7.086   3.080   1.077 -1.2934  1.0870 -1.3773
  145MOL   H13626344   7.252   3.121   1.059 -0.8197  0.2120  3.3050
  145MOL   C13726345   7.249   3.218   0.786  0.7702 -0.1544  0.1722
  145MOL   C13826346   7.258   3.371   0.802 -0.3343  0.1054  0.0392
  145MOL   C13926347   7.390   3.421   0.747 -0.4069 -0.3618  0.1546
  145MOL   H14026348   7.346   3.175   0.812  0.0703 -1.4997  0.6381
  145MOL   H14126349   7.232   3.196   0.681 -2.8982  1.6878  0.2769
  145MOL   H14226350   7.250   3.390   0.909 -0.2315 -0.5093  0.1576
  145MOL   H14326351   7.424   3.504   0.809  3.7180 -1.5195 -0.4176
  145MOL   H14426352   7.471   3.350   0.738  0.4896  0.6512  0.1306
  145MOL   H14526353   7.368   3.461   0.648  0.3059 -0.1247  0.0894
  145MOL   C14626354   7.139   3.457   0.747  0.1285  0.7284 -0.5845
  145MOL   C14726355   7.110   3.597   0.809  0.0530  0.2962  0.2162
  145MOL   C14826356   6.988   3.657   0.730 -0.1205  0.8845 -0.8039
  145MOL   H14926357   7.153   3.474   0.641 -1.2110 -0.7453 -1.0076
  145MOL   H15026358   7.050   3.395   0.753  0.6579  0.0494  0.3697
  145MOL   H15126359   7.202   3.650   0.784  0.2288 -0.7223 -1.3652
  145MOL   H15226360   7.022   3.664   0.626  2.6376  0.4092  0.0363
  145MOL   H15326361   6.903   3.591   0.748  0.4424 -0.1108 -1.6733
  145MOL   H15426362   6.965   3.759   0.757 -2.3310 -0.2104  1.6403
  145MOL   C15526363   7.081   3.606   0.959 -0.2496 -0.2732  0.6395
  145MOL   C15626364   7.101   3.742   1.020 -0.3597 -0.4260 -0.2752
  145MOL   C15726365   7.034   3.757   1.157  0.0238 -0.0233  0.5619
  145MOL   H15826366   6.976   3.584   0.977 -0.7669  0.1539 -1.6955
  145MOL   H15926367   7.140   3.533   1.014  0.1126 -0.3789  0.1108
  145MOL   H16026368   7.054   3.811   0.951 -0.1865  0.6381  0.6538
  145MOL   H16126369   6.992   3.858   1.152 -0.0693 -0.0726  0.3742
  145MOL   H16226370   6.949   3.691   1.171 -0.0683 -0.0105  0.0489
  145MOL   H16326371   7.104   3.753   1.241  2.4113  1.1436 -1.3253
  145MOL   C16426372   7.249   3.786   1.028 -0.2274 -0.2339 -0.3443
  145MOL   C16526373   7.265   3.940   1.004  0.1557 -0.0232 -0.1045
  145MOL   C16626374   7.405   3.988   1.056  0.1681 -0.2129  0.1661
  145MOL   H16726375   7.287   3.777   1.130 -1.6404  2.9647  0.5372
  145MOL   H16826376   7.315   3.725   0.967 -0.2878 -0.5933 -0.0513
  145MOL   H16926377   7.182   3.988   1.056 -0.3352 -1.4705  0.4712
  145MOL   H17026378   7.435   4.091   1.036  2.9299 -1.2314 -1.1386
  145MOL   H17126379   7.413   3.976   1.163  1.9484  4.6066  0.7276
  145MOL   H17226380   7.482   3.923   1.016 -0.8333 -1.3218  0.0116
  145MOL   C17326381   7.261   3.965   0.856  0.1577  0.4176 -0.4055
  145MOL   C17426382   7.253   4.105   0.803  0.3353 -0.3854  0.3188
  145MOL   C17526383   7.244   4.128   0.654 -0.3399  0.1807  0.3149
  145MOL   H17626384   7.333   3.906   0.800 -1.7993 -1.2525 -1.2408
  145MOL   H17726385   7.161   3.942   0.819  0.7008  0.4879 -1.9305
  145MOL   H17826386   7.336   4.170   0.832  0.4927  0.6521 -2.2973
  145MOL   H17926387   7.258   4.231   0.621 -0.0704 -0.4503 -1.6088
  145MOL   H18026388   7.304   4.051   0.606 -1.0438 -1.5846  2.2244
  145MOL   H18126389   7.142   4.113   0.616 -0.1862  1.9240 -0.8582
  145MOL   H18226390   7.174   4.158   0.856  1.3760 -1.7065  3.2690
  146MOL     C126391   6.936   7.506   2.982 -0.1543 -0.0068  0.3803
  146MOL     C226392   7.082   7.462   2.980 -0.3937 -0.8089 -0.9203
  146MOL     C326393   7.133   7.478   2.837 -0.4815 -0.3550  0.2000
  146MOL     H426394   6.921   7.605   2.939  2.1591  0.1472 -0.1662
  146MOL     H526395   6.888   7.499   3.079 -0.6972 -0.9430  0.0503
  146MOL     H626396   7.087   7.358   3.014 -1.0716  0.0435  1.8586
  146MOL     H726397   7.157   7.581   2.808  1.2893 -0.8265 -0.0848
  146MOL     H826398   7.227   7.423   2.831 -0.7548 -0.9328  1.1284
  146MOL     H926399   7.071   7.432   2.760 -0.2116  1.5263 -1.1969
  146MOL    H1026400   6.878   7.440   2.917  0.8551 -1.5986  1.0539
  146MOL    C1126401   7.171   7.547   3.077  0.3747  0.0214  0.1466
  146MOL    C1226402   7.148   7.518   3.227 -0.7258  0.8364  0.4698
  146MOL    C1326403   7.173   7.368   3.267  0.7287  0.2175 -0.2721
  146MOL    H1426404   7.273   7.522   3.046  0.9087  1.1398  0.9856
  146MOL    H1526405   7.150   7.650   3.052  0.1643  0.5825  2.5153
  146MOL    H1626406   7.044   7.546   3.246 -0.9037  2.2291 -2.2734
  146MOL    H1726407   7.104   7.293   3.229 -1.8112  0.0595  4.3719
  146MOL    H1826408   7.269   7.330   3.230  0.6988 -0.5847  0.4803
  146MOL    H1926409   7.175   7.357   3.375  1.5364  1.7086 -0.1237
  146MOL    C2026410   7.231   7.603   3.323  0.8999  1.0024 -0.5893
  146MOL    C2126411   7.220   0.058   3.300 -0.4103 -0.0431 -0.0517
  146MOL    C2226412   7.070   0.100   3.317  0.1602 -0.3851 -0.0740
  146MOL    H2326413   7.204   7.571   3.423 -0.3019  0.1421 -1.1718
  146MOL    H2426414   7.337   7.578   3.310  0.2454 -1.9779 -0.6797
  146MOL    H2526415   7.249   0.080   3.197  0.6231 -0.8975  0.0433
  146MOL    H2626416   7.015   0.072   3.227 -1.7647  0.2996  0.8809
  146MOL    H2726417   7.022   0.064   3.407 -1.8142 -0.5096 -1.1479
  146MOL    H2826418   7.071   0.209   3.321 -0.4022 -0.3459 -0.8944
  146MOL    C2926419   7.326   0.135   3.390  0.2516  0.2631 -0.8448
  146MOL    C3026420   7.410   0.244   3.320  0.0093  0.0416 -0.0323
  146MOL    C3126421   7.317   0.361   3.273 -0.3973 -0.0105 -0.6532
  146MOL    H3226422   7.267   0.175   3.472  2.5801  0.7955  0.6290
  146MOL    H3326423   7.388   0.066   3.447 -1.3855 -0.3362  0.2499
  146MOL    H3426424   7.450   0.197   3.230 -3.3256 -1.0270 -1.0496
  146MOL    H3526425   7.369   0.440   3.219  1.1234  1.8806  3.3579
  146MOL    H3626426   7.243   0.334   3.197 -1.0961 -0.2412  0.1080
  146MOL    H3726427   7.271   0.425   3.348  1.1959  3.4215 -2.5018
  146MOL    C3826428   7.529   0.290   3.406  0.1992  0.0029 -0.2256
  146MOL    C3926429   7.667   0.215   3.394 -0.7375 -0.0622  0.2302
  146MOL    C4026430   7.667   0.066   3.445 -0.0798  0.5569 -0.1042
  146MOL    H4126431   7.554   0.396   3.398 -1.7534  0.5080  0.0228
  146MOL    H4226432   7.498   0.286   3.510  4.6952  1.7442  1.3266
  146MOL    H4326433   0.039   0.271   3.458 -1.6270  0.7999  0.4642
  146MOL    H4426434   0.072   0.031   3.454 -0.0121  0.4691 -1.1548
  146MOL    H4526435   7.616   0.062   3.542  0.5873 -0.8053  0.2053
  146MOL    H4626436   7.625   7.697   3.369  3.2625 -2.9103  0.9436
  146MOL    C4726437   0.034   0.212   3.251 -0.2280  0.4506  0.6891
  146MOL    C4826438   0.055   0.349   3.191  0.0543  0.0417 -0.1932
  146MOL    C4926439   0.163   0.427   3.274 -0.6101  0.1224  0.4067
  146MOL    H5026440   0.134   0.169   3.260 -0.5384 -0.6370 -0.8126
  146MOL    H5126441   7.675   0.148   3.183  0.1426  0.2223  0.5940
  146MOL    H5226442   7.653   0.393   3.205 -0.4239 -1.1207  0.1446
  146MOL    H5326443   0.179   0.530   3.240  0.5132 -0.6023 -1.3823
  146MOL    H5426444   0.129   0.426   3.377 -2.8287  0.6131 -0.2872
  146MOL    H5526445   0.253   0.365   3.273 -0.6465  0.0325  2.0987
  146MOL    C5626446   0.071   0.348   3.041 -0.2172  0.4868  0.1824
  146MOL    C5726447   7.651   0.305   2.963  0.0970 -0.1896 -0.2923
  146MOL    C5826448   7.566   0.427   2.933 -0.3584 -0.7822 -0.6325
  146MOL    H5926449   0.105   0.441   2.994 -0.5315 -0.3792 -1.8065
  146MOL    H6026450   0.154   0.286   3.006 -0.3775  2.1338 -3.3846
  146MOL    H6126451   7.584   0.241   3.021 -0.3300  0.3343 -0.1948
  146MOL    H6226452   7.541   0.483   3.024  0.8643  0.4387 -1.0296
  146MOL    H6326453   7.622   0.495   2.869  0.5579 -0.6221  0.3180
  146MOL    H6426454   7.469   0.393   2.898 -1.5522  0.3888  1.3851
  146MOL    C6526455   7.677   0.235   2.829  0.0477  0.3838  0.0864
  146MOL    C6626456   0.016   0.086   2.849  0.3295 -0.0104  0.1563
  146MOL    C6726457   7.589   0.002   2.840  0.2824 -0.9221 -0.1400
  146MOL    H6826458   7.579   0.235   2.781 -0.7548  1.5957  1.6714
  146MOL    H6926459   0.045   0.286   2.759  1.9285  1.5306  2.5896
  146MOL    H7026460   0.054   0.074   2.950 -1.5497  1.2171  1.0138
  146MOL    H7126461   7.554   0.001   2.737 -1.5282 -0.5063  0.4590
  146MOL    H7226462   7.610   7.594   2.859 -0.1427 -0.5276  2.7262
  146MOL    H7326463   7.509   0.033   2.907 -0.7818  1.0754 -2.2828
  146MOL    C7426464   0.125   0.043   2.740  0.2152  0.2076 -0.4206
  146MOL    C7526465   0.258   0.112   2.755 -1.4160  0.2984 -0.3722
  146MOL    C7626466   0.334   0.083   2.880 -0.0097  0.0143 -0.3458
  146MOL    H7726467   0.140   7.632   2.743 -0.0818  0.1103 -2.2855
  146MOL    H7826468   0.085   0.060   2.641  2.6983 -0.8208 -1.6365
  146MOL    H7926469   0.253   0.220   2.771  1.8725  0.2548  1.4267
  146MOL    H8026470   0.268   0.097   2.966  0.0212  1.0454 -0.4836
  146MOL    H8126471   0.367   7.678   2.896  1.5690  1.0478  3.5332
  146MOL    H8226472   0.429   0.135   2.884 -1.3090  2.4545 -0.2845
  146MOL    C8326473   0.339   0.095   2.626  0.3496  0.3788 -0.1771
  146MOL    C8426474   0.393   0.216   2.552 -0.2328 -0.7008 -0.0936
  146MOL    C8526475   0.507   0.288   2.627 -0.5288 -0.8655 -0.5154
  146MOL    H8626476   0.423   0.035   2.658 -1.0173 -0.2467  2.3527
  146MOL    H8726477   0.292   0.031   2.551 -2.2454  1.1532  0.7120
  146MOL    H8826478   0.316   0.293   2.559 -1.1280 -1.5605 -0.5098
  146MOL    H8926479   0.596   0.227   2.640 -0.0587 -0.1589 -0.3965
  146MOL    H9026480   0.539   0.383   2.584 -1.6263 -0.3389 -0.2020
  146MOL    H9126481   0.486   0.334   2.724  1.6544 -0.4833 -0.2129
  146MOL    C9226482   0.424   0.181   2.408  0.0417  0.0626 -0.8366
  146MOL    C9326483   0.459   0.294   2.306  0.2072 -0.2302 -0.2027
  146MOL    C9426484   0.473   0.235   2.170  0.2772  0.0926  0.5443
  146MOL    H9526485   0.505   0.108   2.410  0.3552  0.4046  1.9470
  146MOL    H9626486   0.338   0.129   2.365  0.0208 -0.1378 -0.5544
  146MOL    H9726487   0.555   0.324   2.348 -0.2639 -0.1673  0.8564
  146MOL    H9826488   0.546   0.155   2.157  0.4562  0.5637 -1.4336
  146MOL    H9926489   0.382   0.199   2.123  1.5345 -0.8511 -1.2442
  146MOL   H10026490   0.519   0.308   2.104 -1.1318  0.1128 -0.4202
  146MOL   C10126491   0.337   0.395   2.303 -0.6808 -0.1597 -0.6409
  146MOL   C10226492   0.366   0.535   2.240  0.2875  0.8132 -0.0440
  146MOL   C10326493   0.241   0.626   2.228 -0.1554 -0.5257 -0.3777
  146MOL   H10426494   0.268   0.350   2.232 -1.9595 -1.6619  1.4792
  146MOL   H10526495   0.288   0.431   2.393  0.8719 -1.1606  0.6193
  146MOL   H10626496   0.402   0.516   2.139  0.9129 -1.0876  0.5120
  146MOL   H10726497   0.268   0.703   2.155  1.9267 -0.8584 -0.0029
  146MOL   H10826498   0.172   0.562   2.173 -0.8137 -0.8040  0.7723
  146MOL   H10926499   0.206   0.683   2.314 -0.4094  0.3489 -1.0533
  146MOL   C11026500   0.487   0.603   2.319 -0.5012 -0.9318  0.2369
  146MOL   C11126501   0.559   0.718   2.233  0.0038  0.0283  0.1713
  146MOL   C11226502   0.499   0.856   2.261 -0.1980  0.1713  0.8284
  146MOL   H11326503   0.458   0.647   2.414  1.1985 -1.3966  0.9823
  146MOL   H11426504   0.567   0.534   2.345  0.6098  0.1042 -0.3463
  146MOL   H11526505   0.549   0.699   2.126  0.7933  0.3734  0.0390
  146MOL   H11626506   0.534   0.937   2.197 -2.2720  0.1929 -0.3430
  146MOL   H11726507   0.397   0.859   2.222  0.7272  1.9456 -1.5613
  146MOL   H11826508   0.512   0.901   2.360 -1.8137  1.9673  0.2596
  146MOL   C11926509   0.710   0.722   2.249  0.2569  0.3695  0.6856
  146MOL   C12026510   0.793   0.607   2.214  0.0241 -0.1611  0.8811
  146MOL   C12126511   0.784   0.575   2.062  0.3771 -0.2517 -0.3484
  146MOL   H12226512   0.761   0.809   2.207 -0.5004 -0.4517 -2.0485
  146MOL   H12326513   0.713   0.734   2.357 -1.2606 -1.6595  0.9745
  146MOL   H12426514   0.750   0.518   2.261 -0.8384  0.0107  0.4369
  146MOL   H12526515   0.694   0.517   2.038 -0.9270  1.3155  0.6010
  146MOL   H12626516   0.791   0.661   1.995 -0.6626  0.9036  0.9884
  146MOL   H12726517   0.859   0.500   2.039 -2.2535 -3.1187 -0.0027
  146MOL   C12826518   0.942   0.620   2.256 -0.4474  0.1864  0.6096
  146MOL   C12926519   0.976   0.576   2.406  0.1067 -0.5362  0.1199
  146MOL   C13026520   0.952   0.420   2.426 -0.2354 -0.2592  0.0747
  146MOL   H13126521   1.002   0.577   2.175 -1.0737 -1.0513  0.7902
  146MOL   H13226522   0.975   0.724   2.246 -0.1391 -0.0869 -1.4079
  146MOL   H13326523   0.907   0.628   2.473 -1.1974  0.2400 -1.7753
  146MOL   H13426524   0.858   0.389   2.379 -1.4068 -0.8840  2.7240
  146MOL   H13526525   1.024   0.361   2.371 -1.8804 -0.8067 -1.5671
  146MOL   H13626526   0.938   0.397   2.531  0.6113  0.8507  0.4368
  146MOL   C13726527   1.111   0.622   2.433  0.4124 -0.2055 -0.0068
  146MOL   C13826528   1.131   0.776   2.463 -0.1044  0.5278  0.4626
  146MOL   C13926529   1.049   0.830   2.581 -0.4731  0.1647  0.4645
  146MOL   H14026530   1.134   0.566   2.523 -3.1017 -0.7322  0.6571
  146MOL   H14126531   1.177   0.580   2.357  0.1031  0.3717 -0.6007
  146MOL   H14226532   1.079   0.827   2.383  0.8079 -2.5753 -2.2225
  146MOL   H14326533   1.089   0.927   2.614 -1.8060  0.3057  1.6991
  146MOL   H14426534   0.949   0.851   2.542 -1.3143 -1.1639  1.8596
  146MOL   H14526535   1.044   0.757   2.661 -0.9919  0.2058  0.4731
  146MOL   C14626536   1.280   0.814   2.475 -0.4812 -0.3822 -0.5005
  146MOL   C14726537   1.363   0.798   2.347  0.4030  0.4248  0.3345
  146MOL   C14826538   1.303   0.885   2.231 -0.2742 -0.4098  0.3798
  146MOL   H14926539   1.282   0.912   2.522 -0.4417  0.5346 -2.3487
  146MOL   H15026540   1.303   0.739   2.550  1.1276  2.7060  2.1639
  146MOL   H15126541   1.372   0.695   2.311 -1.6908  0.6263 -0.8701
  146MOL   H15226542   1.310   0.994   2.239 -0.5614 -0.3546 -0.1127
  146MOL   H15326543   1.353   0.847   2.142 -0.6162  0.7613 -0.3342
  146MOL   H15426544   1.201   0.862   2.199  0.1069  0.9604 -1.9049
  146MOL   C15526545   1.508   0.829   2.366  0.7952 -0.5559  0.2230
  146MOL   C15626546   1.586   0.727   2.447 -0.6653  0.1365 -0.2012
  146MOL   C15726547   1.599   0.587   2.376 -0.1622  0.0365  0.7263
  146MOL   H15826548   1.543   0.831   2.263 -0.0421 -0.5616 -0.0616
  146MOL   H15926549   1.521   0.924   2.418  2.3904  0.0638 -1.2506
  146MOL   H16026550   1.534   0.705   2.540  1.6480 -0.8590  0.9097
  146MOL   H16126551   1.506   0.531   2.376  1.4544 -2.7116  1.1517
  146MOL   H16226552   1.623   0.596   2.270 -2.4674 -1.2113  0.0810
  146MOL   H16326553   1.669   0.521   2.427 -0.4709 -0.6675  0.2355
  146MOL   C16426554   1.723   0.763   2.511 -1.4168  0.4565  0.0753
  146MOL   C16526555   1.847   0.772   2.417 -0.2238 -0.3117  0.6682
  146MOL   C16626556   1.843   0.895   2.317  0.0846 -0.3783 -0.6619
  146MOL   H16726557   1.709   0.849   2.577 -2.5201  0.3894 -0.0579
  146MOL   H16826558   1.745   0.677   2.574 -1.2053  0.0998 -0.4812
  146MOL   H16926559   1.834   0.687   2.351 -0.5920  0.4270 -0.2030
  146MOL   H17026560   1.919   0.889   2.240  0.4153 -0.4650 -0.3318
  146MOL   H17126561   1.751   0.905   2.260 -0.3220  0.6560  0.1538
  146MOL   H17226562   1.869   0.985   2.372 -0.1158 -0.2062 -0.8490
  146MOL   C17326563   1.990   0.764   2.475 -0.6235 -0.0034  0.5460
  146MOL   C17426564   2.010   0.869   2.591 -0.2243 -0.6875 -0.0772
  146MOL   C17526565   2.000   0.819   2.733  1.1591 -0.1700  0.0931
  146MOL   H17626566   2.007   0.658   2.497 -3.7799 -0.7510 -0.4469
  146MOL   H17726567   2.064   0.791   2.399 -2.8363  0.6268 -1.4205
  146MOL   H17826568   1.952   0.961   2.598  3.7422  2.0172 -1.4760
  146MOL   H17926569   1.899   0.838   2.770  0.5107  1.2359 -2.3121
  146MOL   H18026570   2.012   0.712   2.747  0.4544 -0.1964  0.4939
  146MOL   H18126571   2.078   0.863   2.796 -0.7265  0.1054  2.3099
  146MOL   H18226572   2.111   0.906   2.575 -0.5452  0.1863 -0.0602
  147MOL     C126573   3.786   3.397   6.605  0.4051  0.6270  0.9325
  147MOL     C226574   3.721   3.454   6.473  0.0046  0.0372 -0.1311
  147MOL     C326575   3.761   3.601   6.449  0.0524 -0.1930  0.3202
  147MOL     H426576   3.758   3.291   6.610  1.0594  0.3954 -0.0793
  147MOL     H526577   3.760   3.449   6.697 -1.4297 -2.2519  2.1271
  147MOL     H626578   3.613   3.460   6.485 -0.1569 -0.0747 -1.4696
  147MOL     H726579   3.869   3.608   6.440 -0.1605  1.0341 -1.3794
  147MOL     H826580   3.711   3.638   6.360  0.4306  0.7965  0.5138
  147MOL     H926581   3.722   3.665   6.528  2.0791  1.5097 -0.0169
  147MOL    H1026582   3.893   3.412   6.593  0.8177 -0.7456  2.7012
  147MOL    C1126583   3.736   3.363   6.342  0.5721 -0.9698  0.2605
  147MOL    C1226584   3.657   3.223   6.340 -0.8298  0.3151 -0.0328
  147MOL    C1326585   3.514   3.241   6.284  0.2839 -0.0987 -0.5304
  147MOL    H1426586   3.703   3.421   6.256 -0.6730 -1.7706  0.1842
  147MOL    H1526587   3.842   3.338   6.336  0.5128 -1.1591 -0.0014
  147MOL    H1626588   3.657   3.195   6.445 -0.2791  1.2047  0.2083
  147MOL    H1726589   3.454   3.158   6.321 -0.8613  0.5103 -0.9821
  147MOL    H1826590   3.458   3.325   6.326  1.4460  2.2292 -3.3852
  147MOL    H1926591   3.512   3.253   6.175  1.0126  1.0703 -0.4318
  147MOL    C2026592   3.734   3.120   6.265 -0.2794  0.3822 -0.4011
  147MOL    C2126593   3.678   2.981   6.279 -0.3080  0.4564  0.0654
  147MOL    C2226594   3.724   2.898   6.156  0.2621  0.4065  0.1966
  147MOL    H2326595   3.750   3.142   6.159  0.6942 -1.3891 -0.6496
  147MOL    H2426596   3.833   3.122   6.312 -0.2900 -1.1983 -0.2835
  147MOL    H2526597   3.569   2.985   6.275 -0.2838  0.0752 -1.1131
  147MOL    H2626598   3.704   2.792   6.172 -1.6514  0.5785 -0.8727
  147MOL    H2726599   3.663   2.930   6.072  2.5684 -1.4498 -2.2474
  147MOL    H2826600   3.831   2.906   6.136 -0.2720  1.1606 -2.5742
  147MOL    C2926601   3.729   2.921   6.419 -0.0854 -0.0147  0.1937
  147MOL    C3026602   3.674   2.777   6.459  0.1104 -0.0649  0.0960
  147MOL    C3126603   3.735   2.716   6.585  0.3348  1.0691 -0.1653
  147MOL    H3226604   3.837   2.924   6.430 -0.0619  0.0340 -0.0538
  147MOL    H3326605   3.702   2.981   6.506  1.3264  2.3836 -0.9504
  147MOL    H3426606   3.710   2.711   6.380  2.2205 -0.7748  1.6107
  147MOL    H3526607   3.681   2.743   6.676 -1.0489  0.7799 -0.8983
  147MOL    H3626608   3.739   2.607   6.585 -0.8624  1.0224 -0.1734
  147MOL    H3726609   3.835   2.759   6.595  1.7630 -2.2397  0.4934
  147MOL    C3826610   3.520   2.770   6.461 -0.1241 -0.3331  0.1548
  147MOL    C3926611   3.457   2.632   6.453 -0.6057  0.3440  0.0906
  147MOL    C4026612   3.353   2.620   6.562 -0.2069  0.9518 -0.2940
  147MOL    H4126613   3.495   2.820   6.554 -0.1786 -1.0157  0.5077
  147MOL    H4226614   3.489   2.835   6.378  2.4277  1.3391  0.4405
  147MOL    H4326615   3.529   2.554   6.477  2.5707  3.9143  2.6096
  147MOL    H4426616   3.375   2.650   6.664  1.1438 -0.4367 -0.1655
  147MOL    H4526617   3.279   2.696   6.533 -0.6301  0.3100 -0.9080
  147MOL    H4626618   3.309   2.520   6.558  2.8625 -0.5474  2.1833
  147MOL    C4726619   3.388   2.593   6.315 -0.1415  0.0858 -0.5475
  147MOL    C4826620   3.464   2.624   6.186  0.0267 -0.7413 -0.3349
  147MOL    C4926621   3.579   2.535   6.166 -0.5195  0.0594 -0.5603
  147MOL    H5026622   3.356   2.489   6.312  0.2973 -0.0843  0.4174
  147MOL    H5126623   3.290   2.638   6.304 -0.4008  0.0469  1.3558
  147MOL    H5226624   3.513   2.720   6.171 -1.2434 -0.1463 -0.7025
  147MOL    H5326625   3.648   2.514   6.247  1.7369 -0.0415 -2.4291
  147MOL    H5426626   3.535   2.439   6.140 -0.9419  0.0279  0.2876
  147MOL    H5526627   3.636   2.566   6.078  0.5204  1.4894  0.6061
  147MOL    C5626628   3.360   2.620   6.067  0.2784 -0.0685 -0.5691
  147MOL    C5726629   3.264   2.730   6.044  0.0509  0.2418 -0.2058
  147MOL    C5826630   3.339   2.862   6.054 -0.5020  1.0490  0.4000
  147MOL    H5926631   3.410   2.594   5.973 -1.9596 -2.0031 -1.2722
  147MOL    H6026632   3.303   2.530   6.087 -3.4872  2.3705  0.1388
  147MOL    H6126633   3.187   2.723   6.122  1.5359  1.6334  1.4065
  147MOL    H6226634   3.291   2.948   6.006 -0.1008  0.6816 -0.6926
  147MOL    H6326635   3.358   2.888   6.158  0.5138  0.4406  0.3700
  147MOL    H6426636   3.440   2.853   6.013 -0.4467  2.9161  0.0825
  147MOL    C6526637   3.205   2.714   5.898 -0.2151 -0.1008  0.0572
  147MOL    C6626638   3.063   2.767   5.862 -0.6376 -0.1094 -0.1402
  147MOL    C6726639   2.954   2.740   5.969  0.6668  0.3347 -0.5336
  147MOL    H6826640   3.282   2.743   5.826 -0.9421  1.5616 -0.0658
  147MOL    H6926641   3.208   2.606   5.879  3.4549  0.1139 -1.1028
  147MOL    H7026642   3.038   2.715   5.770  0.3773  2.1590 -1.7390
  147MOL    H7126643   2.856   2.788   5.957  0.4540 -0.2396 -1.1311
  147MOL    H7226644   2.936   2.633   5.980 -2.8471  1.0087  0.9651
  147MOL    H7326645   2.980   2.779   6.067  1.0007 -1.0901 -0.0466
  147MOL    C7426646   3.061   2.919   5.821 -0.1707 -0.1041  0.1399
  147MOL    C7526647   3.142   2.956   5.691  0.0161 -0.0913  0.4592
  147MOL    C7626648   3.069   2.909   5.564 -0.0578  0.7307  0.8418
  147MOL    H7726649   2.956   2.947   5.808 -0.1507 -0.2656 -0.3534
  147MOL    H7826650   3.100   2.993   5.892  1.4220 -0.5587 -0.2450
  147MOL    H7926651   3.239   2.907   5.694  0.0141 -0.1030  0.3195
  147MOL    H8026652   3.131   2.916   5.475  0.4647  1.6022  1.2688
  147MOL    H8126653   3.032   2.808   5.583 -0.2860  0.4564 -0.9767
  147MOL    H8226654   2.979   2.969   5.547 -1.1769 -1.4978 -1.4942
  147MOL    C8326655   3.172   3.109   5.678 -0.0146  0.1096 -0.0427
  147MOL    C8426656   3.262   3.182   5.781  0.3153  0.5439 -0.0088
  147MOL    C8526657   3.406   3.138   5.787  0.3666  0.0717  0.2183
  147MOL    H8626658   3.216   3.128   5.579 -1.0094  3.3709  0.0710
  147MOL    H8726659   3.083   3.172   5.675 -0.3942 -0.3805  0.8162
  147MOL    H8826660   3.226   3.158   5.881  3.4177  1.0277  1.2979
  147MOL    H8926661   3.466   3.168   5.701  0.7875 -1.4503 -0.0301
  147MOL    H9026662   3.457   3.156   5.882  1.0013  0.7096 -0.2431
  147MOL    H9126663   3.402   3.029   5.786 -2.1874 -0.0061  4.3941
  147MOL    C9226664   3.261   3.340   5.760  0.3526  0.6351  0.1076
  147MOL    C9326665   3.309   3.433   5.875  0.0304  0.0764  0.3469
  147MOL    C9426666   3.408   3.534   5.801 -0.5284 -0.0950  0.6948
  147MOL    H9526667   3.308   3.358   5.663 -0.6891  0.3854 -0.4502
  147MOL    H9626668   3.165   3.379   5.727  0.4680  1.1721  0.3966
  147MOL    H9726669   3.374   3.377   5.943  0.6312  3.9654  3.1396
  147MOL    H9826670   3.352   3.599   5.734  0.2616 -0.9986 -0.8660
  147MOL    H9926671   3.475   3.590   5.866 -0.8767  2.2236 -0.8899
  147MOL   H10026672   3.480   3.472   5.747 -0.5941 -0.3976  0.9507
  147MOL   C10126673   3.198   3.515   5.951 -1.0380  0.1941  0.3404
  147MOL   C10226674   3.094   3.440   6.031 -0.2891 -0.0087  0.3203
  147MOL   C10326675   2.979   3.380   5.950  0.3524  0.0254 -0.4105
  147MOL   H10426676   3.249   3.579   6.022 -0.6525 -0.6277  0.7985
  147MOL   H10526677   3.152   3.581   5.876 -2.4827  0.0891  1.1175
  147MOL   H10626678   3.056   3.525   6.088  2.0070  2.1923 -1.3038
  147MOL   H10726679   3.000   3.281   5.909  1.1766  0.5868 -1.3426
  147MOL   H10826680   2.891   3.369   6.014  1.5874 -2.7727  0.9099
  147MOL   H10926681   2.938   3.443   5.871  0.5224  1.8722  0.9326
  147MOL   C11026682   3.144   3.332   6.125 -0.6595 -0.3275  0.1764
  147MOL   C11126683   3.055   3.287   6.238  0.0492 -0.6672 -0.2893
  147MOL   C11226684   3.114   3.168   6.313 -0.0193  0.4419 -0.5711
  147MOL   H11326685   3.143   3.245   6.060  0.9601 -0.6120  0.5233
  147MOL   H11426686   3.250   3.344   6.146 -0.3404 -1.4136 -0.7620
  147MOL   H11526687   2.957   3.261   6.197  0.7060 -1.8284 -1.1507
  147MOL   H11626688   3.131   3.078   6.254 -0.7988 -0.6024  0.7604
  147MOL   H11726689   3.205   3.205   6.361 -0.2542 -0.8267  0.9001
  147MOL   H11826690   3.040   3.147   6.390 -0.3891  2.3251 -0.3816
  147MOL   C11926691   3.040   3.398   6.341  0.4786 -0.5328 -0.6067
  147MOL   C12026692   2.953   3.379   6.469  0.6497 -0.0942  0.0145
  147MOL   C12126693   2.958   3.520   6.538  0.1693 -0.0388 -0.4720
  147MOL   H12226694   3.139   3.432   6.370 -0.3429  0.8353  0.6586
  147MOL   H12326695   2.998   3.482   6.286  0.1517 -0.7526 -0.6933
  147MOL   H12426696   3.008   3.309   6.532  0.7815  0.9951  1.1119
  147MOL   H12526697   2.902   3.511   6.631  2.0772 -0.8917  0.6075
  147MOL   H12626698   3.058   3.545   6.572  0.5081 -0.2888 -1.2907
  147MOL   H12726699   2.920   3.595   6.469  1.4520  0.6058 -0.4873
  147MOL   C12826700   2.812   3.326   6.434  0.7172  0.0025  0.2544
  147MOL   C12926701   2.719   3.309   6.554 -0.2523  0.4770 -0.4552
  147MOL   C13026702   2.578   3.360   6.519  0.1739 -0.1991  0.5861
  147MOL   H13126703   2.763   3.395   6.365 -1.5987 -0.4838  1.3574
  147MOL   H13226704   2.815   3.224   6.397 -2.5495 -0.6541  1.6410
  147MOL   H13326705   2.766   3.362   6.636  2.5131 -0.6299 -1.2710
  147MOL   H13426706   2.510   3.285   6.476  1.5635 -1.1976  0.1083
  147MOL   H13526707   2.528   3.381   6.613 -1.4716  1.1621 -0.5399
  147MOL   H13626708   2.572   3.455   6.466 -1.1908  0.0435  1.1335
  147MOL   C13726709   2.697   3.162   6.601  0.0112  0.3520  0.8916
  147MOL   C13826710   2.824   3.090   6.670  0.2281 -0.3515  0.1964
  147MOL   C13926711   2.856   3.170   6.793  0.5661  0.6853 -0.9579
  147MOL   H14026712   2.614   3.163   6.672  0.8349  3.3748  1.8623
  147MOL   H14126713   2.670   3.096   6.518 -1.1003 -0.5643  1.9437
  147MOL   H14226714   2.913   3.084   6.608 -0.0389  1.4696 -0.3757
  147MOL   H14326715   2.764   3.192   6.847  1.0774 -1.8563  1.0636
  147MOL   H14426716   2.929   3.120   6.857 -0.5464  0.6576  0.2997
  147MOL   H14526717   2.912   3.260   6.766  1.9296  0.2159  0.2473
  147MOL   C14626718   2.784   2.948   6.717  0.5234  1.5057 -0.4480
  147MOL   C14726719   2.907   2.858   6.717  0.0718  0.1284 -0.9651
  147MOL   C14826720   2.877   2.723   6.800 -0.2141 -0.4789  0.2331
  147MOL   H14926721   2.743   2.952   6.817 -1.0221  1.2988 -1.0577
  147MOL   H15026722   2.704   2.907   6.656  0.1787 -0.1303  1.0803
  147MOL   H15126723   2.991   2.901   6.771 -0.4624 -0.4636  0.3715
  147MOL   H15226724   2.786   2.676   6.762 -0.4902  0.6778 -0.6076
  147MOL   H15326725   2.969   2.666   6.798  0.8278  1.0175  2.9514
  147MOL   H15426726   2.865   2.755   6.903  1.8847  0.5679  0.1718
  147MOL   C15526727   2.970   2.832   6.582 -0.8269 -0.1394 -0.7737
  147MOL   C15626728   2.892   2.745   6.479  0.2928  0.2657  0.2161
  147MOL   C15726729   2.838   2.844   6.369 -0.5164  0.1379  0.1706
  147MOL   H15826730   3.016   2.919   6.537 -1.8754  0.4593 -0.7121
  147MOL   H15926731   3.053   2.769   6.615 -0.6868 -1.6887 -3.9107
  147MOL   H16026732   2.814   2.695   6.538  0.5887 -0.0282  0.3598
  147MOL   H16126733   2.900   2.928   6.336  2.1981 -0.9838  2.2382
  147MOL   H16226734   2.799   2.800   6.278 -0.2824  0.1566  0.0604
  147MOL   H16326735   2.754   2.903   6.408 -0.4481  1.3028 -1.4008
  147MOL   C16426736   2.988   2.637   6.416 -0.0764 -0.1021 -0.4436
  147MOL   C16526737   2.929   2.544   6.311 -0.4623  0.9195 -0.0921
  147MOL   C16626738   3.043   2.470   6.237 -0.1756 -0.1745  0.2973
  147MOL   H16726739   3.068   2.697   6.372  0.7672 -0.0226  1.1784
  147MOL   H16826740   3.042   2.577   6.489  0.6141 -0.3368 -1.1332
  147MOL   H16926741   2.885   2.600   6.227 -1.7070 -0.5406 -0.4406
  147MOL   H17026742   3.089   2.411   6.317  1.7656 -3.1411 -2.8717
  147MOL   H17126743   2.997   2.402   6.165  0.2045 -1.3238  1.1206
  147MOL   H17226744   3.115   2.534   6.188 -0.4994 -0.0730 -0.0494
  147MOL   C17326745   2.824   2.452   6.370 -0.4206  0.7264  0.1593
  147MOL   C17426746   2.740   2.378   6.261 -0.8917  0.0632 -0.1876
  147MOL   C17526747   2.647   2.271   6.318 -0.9400 -0.1860 -0.1888
  147MOL   H17626748   2.871   2.374   6.430  1.0083  0.7351 -0.9162
  147MOL   H17726749   2.758   2.503   6.440 -1.6317  0.3561 -0.6978
  147MOL   H17826750   2.798   2.322   6.188 -1.8588 -1.5638  0.2605
  147MOL   H17926751   2.559   2.311   6.368 -0.0934  0.7780  0.5544
  147MOL   H18026752   2.614   2.206   6.236 -0.6501 -0.4660 -0.0858
  147MOL   H18126753   2.698   2.209   6.392  0.2856  0.7203 -0.2704
  147MOL   H18226754   2.692   2.451   6.195  1.8645  0.2634 -2.0557
  148MOL     C126755   7.221   6.361   3.462 -0.3829  0.1088 -0.0823
  148MOL     C226756   7.363   6.430   3.449  0.1632  0.1114 -0.1578
  148MOL     C326757   7.350   6.589   3.436 -0.2028 -0.3873 -0.5644
  148MOL     H426758   7.154   6.390   3.381 -0.2242 -0.5313 -0.4444
  148MOL     H526759   7.181   6.399   3.556 -0.8200  2.8422 -1.3060
  148MOL     H626760   7.404   6.399   3.353 -1.0719 -0.1942 -0.5995
  148MOL     H726761   7.443   6.638   3.407  1.0523 -2.6188 -0.4335
  148MOL     H826762   7.277   6.618   3.361 -0.3983  1.1782  0.2010
  148MOL     H926763   7.333   6.636   3.533  0.8896 -1.1360 -0.0035
  148MOL    H1026764   7.224   6.252   3.461 -2.8388  0.0215 -2.2250
  148MOL    C1126765   7.454   6.398   3.571 -0.8329  0.4832 -0.2890
  148MOL    C1226766   7.492   6.247   3.583  1.1088 -0.0937 -0.2365
  148MOL    C1326767   7.521   6.171   3.453  0.3752 -1.0636 -0.1430
  148MOL    H1426768   7.546   6.454   3.555 -0.9831  0.7842 -0.0993
  148MOL    H1526769   7.424   6.448   3.663  2.5987  0.2228  1.0382
  148MOL    H1626770   7.400   6.204   3.623  0.8244  0.0382 -0.7458
  148MOL    H1726771   7.601   6.227   3.405  0.7013 -1.3070  0.1116
  148MOL    H1826772   7.557   6.070   3.473  1.1818 -0.9580 -1.0605
  148MOL    H1926773   7.439   6.177   3.382  0.6559 -0.4719 -0.4228
  148MOL    C2026774   7.604   6.231   3.687 -0.1976 -0.3505 -0.2839
  148MOL    C2126775   7.548   6.243   3.832  0.6742 -0.5210 -0.6841
  148MOL    C2226776   7.465   6.116   3.866  0.8510 -0.0579 -0.0740
  148MOL    H2326777   7.659   6.138   3.673  0.3103 -0.0917 -0.0190
  148MOL    H2426778   7.681   6.302   3.658  1.0555 -0.9970  1.3783
  148MOL    H2526779   7.495   6.339   3.831  2.6026  0.5846 -0.2290
  148MOL    H2626780   7.423   6.127   3.965  1.1002 -0.3571  0.0628
  148MOL    H2726781   7.381   6.099   3.798  0.3719 -2.6890  1.1427
  148MOL    H2826782   7.520   6.023   3.853 -1.7594 -1.3199 -2.7579
  148MOL    C2926783   7.660   6.257   3.938 -0.4054 -0.2094  0.6793
  148MOL    C3026784   0.030   6.399   3.952  0.3568 -0.0647  0.4459
  148MOL    C3126785   7.642   6.499   4.041 -0.3411  0.4797 -0.0665
  148MOL    H3226786   7.638   6.240   4.044  0.0092  2.0381  1.1567
  148MOL    H3326787   0.037   6.182   3.911  0.6435  1.4001 -1.0158
  148MOL    H3426788   0.043   6.434   3.850 -2.1280 -2.0766 -0.6175
  148MOL    H3526789   7.538   6.501   4.008 -1.2237 -2.3302  2.2875
  148MOL    H3626790   7.651   6.467   4.145  0.3955  0.3700 -0.1619
  148MOL    H3726791   7.681   6.600   4.030 -0.8168  0.7819  0.9869
  148MOL    C3826792   0.170   6.377   4.009 -0.3350 -0.9270  0.5365
  148MOL    C3926793   0.282   6.349   3.905 -0.1780  0.3781 -0.1290
  148MOL    C4026794   0.312   6.471   3.814  0.3611 -0.7810  0.2847
  148MOL    H4126795   0.204   6.468   4.058 -1.8665 -0.0071 -0.0865
  148MOL    H4226796   0.163   6.299   4.085  0.1962 -0.0614  1.4833
  148MOL    H4326797   0.241   6.268   3.845 -1.2088  0.6580  0.1868
  148MOL    H4426798   0.225   6.509   3.760  0.3600 -1.6665 -0.3521
  148MOL    H4526799   0.350   6.552   3.876  2.2793 -2.9274  2.0183
  148MOL    H4626800   0.386   6.457   3.736  0.2328 -1.2066  0.2382
  148MOL    C4726801   0.412   6.278   3.964 -0.0814  0.0134  0.1002
  148MOL    C4826802   0.504   6.211   3.864  0.5121  0.7061  0.2600
  148MOL    C4926803   0.633   6.177   3.930 -0.1410  0.1642  0.3733
  148MOL    H5026804   0.470   6.353   4.018 -0.8182  1.3740 -0.9876
  148MOL    H5126805   0.393   6.194   4.031 -0.1257 -1.6626 -1.9575
  148MOL    H5226806   0.506   6.278   3.778 -2.2010  0.3099 -0.1734
  148MOL    H5326807   0.683   6.248   3.995  1.7687 -0.1097 -0.7531
  148MOL    H5426808   0.626   6.081   3.981  0.4518  0.9783  2.0172
  148MOL    H5526809   0.711   6.167   3.854 -0.0413  2.3486  0.1790
  148MOL    C5626810   0.443   6.076   3.804 -0.1994 -0.4349  0.6429
  148MOL    C5726811   0.539   6.001   3.701 -0.3038 -0.3246 -0.3440
  148MOL    C5826812   0.480   5.864   3.670  0.1331 -0.8655  0.1086
  148MOL    H5926813   0.415   6.007   3.884 -0.4393 -1.1881 -0.0813
  148MOL    H6026814   0.347   6.084   3.752 -0.9655  0.2940  2.1457
  148MOL    H6126815   0.623   5.986   3.769  2.0357 -0.2675 -3.1642
  148MOL    H6226816   0.389   5.867   3.612  0.2895  1.2829 -0.0723
  148MOL    H6326817   0.546   5.806   3.606 -0.9328 -1.5320 -0.3980
  148MOL    H6426818   0.464   5.823   3.770  0.2275  0.6698  0.7695
  148MOL    C6526819   0.573   6.085   3.579 -0.0234  0.2256  0.1554
  148MOL    C6626820   0.707   6.050   3.504 -0.1012 -0.2550 -0.6109
  148MOL    C6726821   0.696   6.139   3.375  0.8087  0.5869 -0.0369
  148MOL    H6826822   0.488   6.094   3.511  0.2864  0.1082 -0.2469
  148MOL    H6926823   0.580   6.185   3.622 -0.7654 -0.3762  1.7144
  148MOL    H7026824   0.719   5.945   3.479  0.4334 -0.6198  1.0889
  148MOL    H7126825   0.782   6.132   3.309  0.4728 -0.0531 -0.4098
  148MOL    H7226826   0.609   6.103   3.320  0.9639  0.7443 -0.3790
  148MOL    H7326827   0.677   6.243   3.402 -2.0333 -0.0450  0.5480
  148MOL    C7426828   0.835   6.096   3.594  0.0076  0.0796  0.3586
  148MOL    C7526829   0.974   6.068   3.528 -0.8111  0.4918  0.2118
  148MOL    C7626830   1.086   6.145   3.605  0.5640  0.3165 -0.4013
  148MOL    H7726831   0.808   6.200   3.614 -0.7139  0.3551 -1.9957
  148MOL    H7826832   0.833   6.028   3.680 -0.3719 -2.1458 -1.3735
  148MOL    H7926833   0.957   6.123   3.436 -2.4228 -0.1883  0.0774
  148MOL    H8026834   1.188   6.138   3.566  0.9235  0.9848  0.3786
  148MOL    H8126835   1.072   6.252   3.590 -0.0053  0.8305  3.2465
  148MOL    H8226836   1.079   6.116   3.710 -1.2440 -1.5043 -1.0045
  148MOL    C8326837   1.008   5.913   3.516 -0.2559 -0.2941 -0.2669
  148MOL    C8426838   1.099   5.873   3.403  0.1049  0.3922 -0.2236
  148MOL    C8526839   1.249   5.874   3.443  0.4363  0.4450 -0.3443
  148MOL    H8626840   1.057   5.872   3.604  0.2333 -2.9110 -1.7344
  148MOL    H8726841   0.914   5.858   3.519  1.2423 -2.8653  1.3176
  148MOL    H8826842   1.097   5.954   3.330 -0.4376  2.3784  1.9239
  148MOL    H8926843   1.308   5.873   3.352 -0.8399  0.0711 -1.1739
  148MOL    H9026844   1.281   5.971   3.483 -0.1054 -0.3065  1.9722
  148MOL    H9126845   1.283   5.801   3.516 -0.7921  0.7735  0.5978
  148MOL    C9226846   1.060   5.744   3.322 -0.2396  0.5085 -0.1085
  148MOL    C9326847   0.948   5.738   3.223  1.1231  0.6899 -0.3723
  148MOL    C9426848   0.961   5.836   3.105  0.1119 -0.0196  0.5412
  148MOL    H9526849   1.149   5.724   3.262  2.3960 -3.2380  4.6753
  148MOL    H9626850   1.050   5.660   3.391  0.3863 -0.1984 -0.8731
  148MOL    H9726851   0.859   5.758   3.282  0.0021 -2.4339 -0.9246
  148MOL    H9826852   1.048   5.822   3.041 -0.4082  1.7723 -0.5721
  148MOL    H9926853   0.875   5.827   3.039  1.0127 -1.4476 -0.4775
  148MOL   H10026854   0.959   5.940   3.138  0.8784  1.1483 -2.8842
  148MOL   C10126855   0.917   5.589   3.177 -0.0596 -0.3211 -0.1718
  148MOL   C10226856   0.771   5.562   3.128  0.1114  0.1840 -0.2384
  148MOL   C10326857   0.792   5.429   3.050  1.0027  0.6452  0.0641
  148MOL   H10426858   0.986   5.561   3.097  1.1608  0.2685  0.6513
  148MOL   H10526859   0.957   5.521   3.252  1.0712 -1.3199 -1.6506
  148MOL   H10626860   0.732   5.635   3.057  1.6531  0.3745 -0.9119
  148MOL   H10726861   0.694   5.397   3.014  1.7056 -1.1459 -0.3356
  148MOL   H10826862   0.853   5.447   2.961  0.6854  1.6668  0.0514
  148MOL   H10926863   0.823   5.338   3.102  0.9248 -0.2770 -1.4654
  148MOL   C11026864   0.687   5.537   3.254  0.6143  0.2728 -0.1460
  148MOL   C11126865   0.537   5.582   3.222 -0.4053 -0.5566  0.0983
  148MOL   C11226866   0.430   5.499   3.303  0.4371 -0.1011  0.1049
  148MOL   H11326867   0.677   5.433   3.283  1.3541 -0.1156 -1.2387
  148MOL   H11426868   0.714   5.601   3.338 -0.6275 -0.6874  1.0069
  148MOL   H11526869   0.524   5.548   3.119 -0.2504  1.4968 -0.6236
  148MOL   H11626870   0.331   5.529   3.270 -0.4958 -1.1405  1.9050
  148MOL   H11726871   0.435   5.391   3.296  3.5380 -0.0089  0.1690
  148MOL   H11826872   0.444   5.522   3.409  1.2779  0.5164 -0.1312
  148MOL   C11926873   0.522   5.738   3.236 -0.8161  0.5553  0.3087
  148MOL   C12026874   0.391   5.800   3.193  0.4089 -0.8097 -1.0914
  148MOL   C12126875   0.383   5.942   3.240 -0.2535  0.9074 -0.3471
  148MOL   H12226876   0.545   5.760   3.340  0.1048 -2.2656  0.7424
  148MOL   H12326877   0.599   5.789   3.178 -0.0907 -0.0098  0.7679
  148MOL   H12426878   0.308   5.759   3.251  0.1122  1.3205  0.0427
  148MOL   H12526879   0.398   5.941   3.348 -0.0752 -1.4169 -0.3671
  148MOL   H12626880   0.445   6.016   3.190  3.0436 -1.3608  0.2152
  148MOL   H12726881   0.277   5.964   3.231 -0.5283 -0.7060 -1.0872
  148MOL   C12826882   0.363   5.783   3.044  0.0794  0.1690  0.0796
  148MOL   C12926883   0.217   5.755   2.992 -0.2049  0.4885  0.2277
  148MOL   C13026884   0.125   5.884   2.988  0.0042 -0.7504  0.5538
  148MOL   H13126885   0.405   5.877   3.007 -0.7815  0.5568  0.0706
  148MOL   H13226886   0.432   5.723   2.985 -1.7086  0.5258 -2.4982
  148MOL   H13326887   0.164   5.690   3.061 -0.9314  0.9245  0.0863
  148MOL   H13426888   0.094   5.912   3.089 -1.5956 -0.2733 -0.0395
  148MOL   H13526889   0.185   5.958   2.935  0.7652 -2.7556 -1.4802
  148MOL   H13626890   0.028   5.860   2.943 -0.7476 -0.1472  1.8305
  148MOL   C13726891   0.215   5.692   2.849  0.0704  0.0152  0.6799
  148MOL   C13826892   0.249   5.539   2.852  0.4967  0.1988  0.4722
  148MOL   C13926893   0.149   5.445   2.918 -0.5258 -0.1580  0.1712
  148MOL   H14026894   0.121   5.699   2.795  0.2018  0.7295  0.5440
  148MOL   H14126895   0.291   5.746   2.792 -0.9898 -0.5962 -1.3498
  148MOL   H14226896   0.349   5.545   2.895  0.5130 -0.8417  0.5904
  148MOL   H14326897   0.097   5.496   2.999  0.2818  0.3294  0.3813
  148MOL   H14426898   0.062   5.432   2.853 -1.9760  0.3961  1.9479
  148MOL   H14526899   0.190   5.348   2.947  0.9914  0.1585 -0.9098
  148MOL   C14626900   0.284   5.493   2.709  0.0409 -0.4707 -0.3192
  148MOL   C14726901   0.336   5.342   2.693  0.4049 -0.2695 -0.5046
  148MOL   C14826902   0.341   5.315   2.546 -0.2982  0.4193 -0.2516
  148MOL   H14926903   0.183   5.507   2.670  0.2505 -0.9307 -1.0513
  148MOL   H15026904   0.357   5.561   2.665  1.0048 -1.6244 -0.5235
  148MOL   H15126905   0.253   5.285   2.733  1.8725 -0.7653  1.9720
  148MOL   H15226906   0.367   5.212   2.525 -0.1729  0.2966  0.5129
  148MOL   H15326907   0.243   5.347   2.510  0.5361  3.1809 -0.2397
  148MOL   H15426908   0.395   5.389   2.488  2.7668  0.0960  2.0667
  148MOL   C15526909   0.463   5.303   2.776  0.1848 -0.2970  0.2645
  148MOL   C15626910   0.495   5.152   2.792 -0.4853 -0.9813  0.8530
  148MOL   C15726911   0.637   5.127   2.845  0.3074  0.2940 -0.2239
  148MOL   H15826912   0.555   5.346   2.739 -1.8334  2.9716 -1.1109
  148MOL   H15926913   0.454   5.340   2.878 -2.2642  2.7007 -0.9921
  148MOL   H16026914   0.498   5.121   2.687 -0.6003 -0.3088  0.6499
  148MOL   H16126915   0.712   5.123   2.766 -0.8723  1.7753 -1.4799
  148MOL   H16226916   0.663   5.210   2.911 -1.3379 -0.1143  0.9744
  148MOL   H16326917   0.640   5.040   2.909 -2.3048 -1.5301 -2.4527
  148MOL   C16426918   0.391   5.070   2.877  0.1807  0.5133 -0.2271
  148MOL   C16526919   0.399   4.922   2.847 -0.4318  0.7351  0.3298
  148MOL   C16626920   0.362   4.837   2.971  0.4939  0.1051 -0.1441
  148MOL   H16726921   0.413   5.074   2.983 -0.9576 -0.8892  0.0804
  148MOL   H16826922   0.290   5.108   2.861 -0.8525 -1.4800  1.4601
  148MOL   H16926923   0.497   4.894   2.809 -1.0733 -2.0782  0.6110
  148MOL   H17026924   0.413   4.865   3.063 -0.3351 -0.4212  0.4875
  148MOL   H17126925   0.254   4.837   2.983  0.5887  0.1854  0.7589
  148MOL   H17226926   0.394   4.733   2.962 -0.2411 -0.0272 -1.4251
  148MOL   C17326927   0.298   4.886   2.733 -0.0728 -0.0803  0.2395
  148MOL   C17426928   0.282   4.735   2.702 -0.2773 -0.4342 -0.0361
  148MOL   C17526929   0.393   4.666   2.619 -0.3953 -0.7192  0.0315
  148MOL   H17626930   0.201   4.924   2.763 -0.7379 -1.3344 -0.2584
  148MOL   H17726931   0.330   4.938   2.643  0.9747 -0.7331  0.2189
  148MOL   H17826932   0.186   4.714   2.657  0.2772  1.6610 -2.2766
  148MOL   H17926933   0.483   4.728   2.614  0.2345 -1.5780  0.4980
  148MOL   H18026934   0.431   4.568   2.645  3.1404  0.0566 -1.8884
  148MOL   H18126935   0.364   4.672   2.514  0.0644  3.3561  0.0420
  148MOL   H18226936   0.272   4.675   2.793 -0.7243 -0.5396 -0.1561
  149MOL     C126937   5.216   4.327   2.912  0.2596 -0.2620 -0.0684
  149MOL     C226938   5.145   4.432   2.830 -0.3560 -0.5392 -0.3838
  149MOL     C326939   4.999   4.446   2.875  0.0573  0.8937  0.2799
  149MOL     H426940   5.196   4.345   3.017  0.2417  0.9736 -0.2780
  149MOL     H526941   5.324   4.327   2.901  0.0946 -0.0860 -1.9282
  149MOL     H626942   5.152   4.411   2.723 -1.1127  0.3369 -0.6209
  149MOL     H726943   4.990   4.495   2.972 -0.8615  2.1123 -0.4012
  149MOL     H826944   4.940   4.503   2.803 -0.8511 -0.5522 -0.1336
  149MOL     H926945   4.946   4.352   2.890 -1.5743  2.0542  2.1106
  149MOL    H1026946   5.178   4.225   2.904 -0.3884  0.1539 -2.9056
  149MOL    C1126947   5.211   4.574   2.839 -0.6754  0.3123  0.2957
  149MOL    C1226948   5.322   4.611   2.738  0.2693  0.6445  0.0038
  149MOL    C1326949   5.294   4.595   2.590 -0.1533  0.0544 -0.6095
  149MOL    H1426950   5.137   4.653   2.844 -0.8639  0.1931 -0.4511
  149MOL    H1526951   5.247   4.587   2.941 -1.1091  0.6850  0.4039
  149MOL    H1626952   5.408   4.545   2.742 -0.5086 -0.4603 -1.2175
  149MOL    H1726953   5.294   4.492   2.556 -1.6191 -0.0896 -0.2124
  149MOL    H1826954   5.207   4.655   2.563 -1.0954 -1.0826 -0.1191
  149MOL    H1926955   5.370   4.643   2.529  0.7163  1.1035  1.2449
  149MOL    C2026956   5.376   4.751   2.770  0.2458 -0.0075  0.5457
  149MOL    C2126957   5.474   4.749   2.888  0.2604 -0.1067  0.2762
  149MOL    C2226958   5.613   4.700   2.830 -0.1300 -0.3310 -0.1570
  149MOL    H2326959   5.428   4.791   2.683  0.5721 -0.1199  0.6867
  149MOL    H2426960   5.294   4.821   2.785  0.4326  0.0964  1.0854
  149MOL    H2526961   5.442   4.681   2.968 -0.2786  2.2580  2.1143
  149MOL    H2626962   5.636   4.741   2.732 -2.3242 -0.9201 -0.9517
  149MOL    H2726963   5.699   4.719   2.894 -1.3487  1.9153  0.8733
  149MOL    H2826964   5.607   4.593   2.810  0.8570 -0.8813  2.3358
  149MOL    C2926965   5.491   4.895   2.944 -0.2556  0.6862  0.5531
  149MOL    C3026966   5.390   4.943   3.055  0.2870  0.2613  0.0519
  149MOL    C3126967   5.413   4.882   3.198  0.7188  0.4524  0.5394
  149MOL    H3226968   5.591   4.914   2.983 -0.3858  0.8932  0.7929
  149MOL    H3326969   5.481   4.966   2.862  0.4931  0.5503  0.3446
  149MOL    H3426970   5.292   4.907   3.024 -0.1691  2.9319 -1.8577
  149MOL    H3526971   5.394   4.775   3.200 -1.5293  0.8232 -0.1331
  149MOL    H3626972   5.518   4.900   3.223  1.2830 -0.4725 -1.0027
  149MOL    H3726973   5.358   4.921   3.283  0.3786 -0.1716  0.6060
  149MOL    C3826974   5.373   5.090   3.059 -0.0575  0.5249  0.2846
  149MOL    C3926975   5.248   5.140   3.130  0.9054 -0.3558  0.2287
  149MOL    C4026976   5.279   5.233   3.242 -0.5522  0.8488  0.2435
  149MOL    H4126977   5.461   5.135   3.106  0.1184  0.3662  0.1085
  149MOL    H4226978   5.384   5.128   2.958 -1.2751 -0.4504 -0.2333
  149MOL    H4326979   5.183   5.063   3.172 -0.6488  1.2112  0.7154
  149MOL    H4426980   5.334   5.179   3.319  0.6717  0.4428 -0.8995
  149MOL    H4526981   5.345   5.315   3.212 -1.5503  1.5047 -0.2096
  149MOL    H4626982   5.193   5.276   3.294 -0.4554  1.2689  0.0565
  149MOL    C4726983   5.162   5.209   3.019  1.0002 -0.4597 -0.3800
  149MOL    C4826984   5.076   5.122   2.915  0.3952  0.1123 -0.4554
  149MOL    C4926985   4.958   5.059   2.989  0.0714  0.0165  0.4888
  149MOL    H5026986   5.085   5.260   3.078  3.5178  1.4727  1.3196
  149MOL    H5126987   5.216   5.293   2.974  0.7503 -1.1166 -1.9523
  149MOL    H5226988   5.147   5.055   2.866  1.1536  1.2762 -0.9808
  149MOL    H5326989   4.887   5.128   3.035  0.6386 -0.1237  1.5901
  149MOL    H5426990   4.900   4.993   2.926  1.2043 -1.5881  1.0987
  149MOL    H5526991   4.994   5.005   3.076  1.9604 -0.7490 -0.7529
  149MOL    C5626992   5.022   5.218   2.803  0.2420 -0.2894 -0.0599
  149MOL    C5726993   4.981   5.149   2.676  0.2889  0.1938  0.0378
  149MOL    C5826994   4.880   5.239   2.604 -0.4609  0.1630 -0.7618
  149MOL    H5926995   4.939   5.277   2.843 -0.1516 -0.6202 -0.3926
  149MOL    H6026996   5.106   5.285   2.786  0.4651 -0.8006 -0.9933
  149MOL    H6126997   4.927   5.056   2.692  2.5605 -1.0291  0.7563
  149MOL    H6226998   4.911   5.331   2.553  3.6574 -0.3508  0.6657
  149MOL    H6326999   4.814   5.189   2.533 -2.4118  0.1539  1.0312
  149MOL    H6427000   4.798   5.274   2.668  0.7154  0.8076  0.4178
  149MOL    C6527001   5.107   5.136   2.584 -0.6789 -0.7415  0.2149
  149MOL    C6627002   5.076   5.073   2.439 -0.4102 -1.3565 -0.3367
  149MOL    C6727003   5.197   5.097   2.348 -0.1577  0.3598 -0.6689
  149MOL    H6827004   5.152   5.234   2.567 -0.0194 -0.6869  2.1965
  149MOL    H6927005   5.187   5.082   2.634 -0.3900 -1.4355 -0.9888
  149MOL    H7027006   4.994   5.127   2.393  0.8343  0.8393 -0.0653
  149MOL    H7127007   5.213   5.205   2.344 -1.0500  0.4924 -0.9651
  149MOL    H7227008   5.289   5.048   2.377  1.3317  1.8104 -2.7372
  149MOL    H7327009   5.189   5.067   2.243 -1.3255  0.3804 -0.5949
  149MOL    C7427010   5.051   4.919   2.467  0.1243 -0.2032 -0.1349
  149MOL    C7527011   4.928   4.858   2.392 -0.8597  0.1959  0.0893
  149MOL    C7627012   4.950   4.706   2.361 -0.1967  0.3114 -0.3594
  149MOL    H7727013   5.142   4.865   2.443  0.1738 -0.6567  1.0652
  149MOL    H7827014   5.029   4.908   2.573 -0.1429  2.7945  0.1710
  149MOL    H7927015   4.924   4.898   2.291 -1.2310  0.5621  0.2493
  149MOL    H8027016   4.888   4.667   2.280 -0.9022  1.8773 -0.6034
  149MOL    H8127017   5.053   4.698   2.325 -0.3935  0.3647 -0.9392
  149MOL    H8227018   4.934   4.641   2.447  1.6802 -1.4749 -1.3213
  149MOL    C8327019   4.799   4.890   2.470  0.7380 -0.3947 -0.1716
  149MOL    C8427020   4.666   4.897   2.400 -0.2983 -0.4883 -0.0601
  149MOL    C8527021   4.657   5.022   2.305 -0.2789 -0.2116  0.0194
  149MOL    H8627022   4.802   4.808   2.542  2.3148 -2.0315 -2.0663
  149MOL    H8727023   4.813   4.984   2.524 -0.1654  0.4173 -1.3315
  149MOL    H8827024   4.604   4.919   2.487 -0.7751 -0.9363 -0.2812
  149MOL    H8927025   4.698   5.113   2.348 -0.0057 -0.5628  0.5037
  149MOL    H9027026   4.708   5.020   2.208 -0.4466  3.7904 -0.2364
  149MOL    H9127027   4.558   5.048   2.268  0.0008  1.5583  0.5048
  149MOL    C9227028   4.615   4.763   2.337 -0.2929  0.3320 -0.5493
  149MOL    C9327029   4.461   4.747   2.346  0.7114  0.7642 -0.5007
  149MOL    C9427030   4.404   4.706   2.206  0.8656 -0.2707 -0.1157
  149MOL    H9527031   4.649   4.763   2.234 -1.9830  0.9002 -1.1236
  149MOL    H9627032   4.668   4.682   2.387  1.5890  1.8337 -0.0537
  149MOL    H9727033   4.418   4.846   2.360  0.4666  0.3187  2.0638
  149MOL    H9827034   4.295   4.720   2.203  0.5735 -2.2543  0.6482
  149MOL    H9927035   4.444   4.782   2.139  3.2745 -0.4439  1.0934
  149MOL   H10027036   4.426   4.605   2.173  0.1802 -0.3402 -0.3744
  149MOL   C10127037   4.407   4.642   2.446 -0.8048  0.4245  0.0548
  149MOL   C10227038   4.260   4.652   2.486 -0.2271  0.8065 -0.6366
  149MOL   C10327039   4.228   4.552   2.601 -0.1513 -0.3139  0.0370
  149MOL   H10427040   4.436   4.544   2.408 -3.8692 -1.5557  2.5840
  149MOL   H10527041   4.470   4.656   2.534 -0.5527  0.9407 -0.2008
  149MOL   H10627042   4.218   4.618   2.390  0.3353  1.5836 -1.1554
  149MOL   H10727043   4.303   4.472   2.598  0.9324  0.7078 -0.4742
  149MOL   H10827044   4.249   4.578   2.705 -1.0501  0.6452 -0.0232
  149MOL   H10927045   4.126   4.515   2.589 -0.3624  0.2175  0.1933
  149MOL   C11027046   4.197   4.795   2.522  0.1451 -0.8983 -0.7351
  149MOL   C11127047   4.039   4.791   2.519  0.1705 -0.6700 -0.2546
  149MOL   C11227048   3.984   4.894   2.617 -0.4068  0.6925 -0.1147
  149MOL   H11327049   4.211   4.804   2.630  1.5246 -0.0700 -0.9668
  149MOL   H11427050   4.238   4.887   2.480 -1.2891  0.5990  1.0834
  149MOL   H11527051   4.001   4.698   2.561 -1.1449  0.0870  0.2909
  149MOL   H11627052   3.876   4.889   2.627 -0.1789 -1.9227  1.6454
  149MOL   H11727053   4.027   4.868   2.714 -0.2800 -1.1437 -0.6456
  149MOL   H11827054   3.998   4.999   2.590 -2.0789  0.7282 -0.9036
  149MOL   C11927055   3.985   4.810   2.370 -0.2938  0.4219  0.2564
  149MOL   C12027056   3.834   4.769   2.360  0.1644  0.0313 -0.5103
  149MOL   C12127057   3.756   4.834   2.247  0.0547 -0.1105 -0.2135
  149MOL   H12227058   3.991   4.917   2.350  1.0466  0.0665 -1.2922
  149MOL   H12327059   4.065   4.761   2.314  0.6794  0.8432  1.2577
  149MOL   H12427060   3.784   4.812   2.447 -1.1204 -0.2861 -1.0770
  149MOL   H12527061   3.657   4.792   2.227  0.1028 -0.2446 -0.1681
  149MOL   H12627062   3.726   4.938   2.263 -2.1980 -0.3950 -2.3053
  149MOL   H12727063   3.815   4.828   2.156 -1.1105 -0.0114 -0.9806
  149MOL   C12827064   3.801   4.618   2.355 -0.3034  0.2020 -0.1881
  149MOL   C12927065   3.697   4.568   2.461  0.2927 -0.0523 -0.1797
  149MOL   C13027066   3.561   4.620   2.445 -0.4810  0.9452 -0.0324
  149MOL   H13127067   3.778   4.574   2.258  0.6472 -2.9063  0.9297
  149MOL   H13227068   3.897   4.573   2.380 -0.8111 -2.3264 -2.5562
  149MOL   H13327069   3.721   4.603   2.561 -0.1214  0.0283 -0.1046
  149MOL   H13427070   3.506   4.585   2.358  1.4902  1.0949 -1.3673
  149MOL   H13527071   3.504   4.602   2.536 -0.9469  3.3539  0.1937
  149MOL   H13627072   3.558   4.728   2.434  1.3802  1.2630  2.0183
  149MOL   C13727073   3.694   4.418   2.478  0.1334 -0.1181 -0.0877
  149MOL   C13827074   3.818   4.358   2.560 -0.9064  0.8517 -0.1193
  149MOL   C13927075   3.798   4.377   2.711  0.6760  0.0019 -0.4486
  149MOL   H14027076   3.601   4.385   2.526 -0.6264 -0.8130 -2.0100
  149MOL   H14127077   3.705   4.380   2.376  2.6902  1.1019 -0.3034
  149MOL   H14227078   3.900   4.424   2.534 -1.3244  1.7529  0.8018
  149MOL   H14327079   3.751   4.290   2.756  1.8735 -0.1349  0.5603
  149MOL   H14427080   3.893   4.399   2.759 -0.8231  1.4957  1.9159
  149MOL   H14527081   3.746   4.471   2.727  0.0447 -0.3178 -0.6093
  149MOL   C14627082   3.845   4.208   2.536  0.6053 -0.8058  0.1777
  149MOL   C14727083   3.916   4.176   2.403 -0.4997 -0.1041  1.0087
  149MOL   C14827084   4.064   4.194   2.415  0.1377 -0.2146 -0.0677
  149MOL   H14927085   3.913   4.173   2.614  0.3762 -2.1704 -0.2202
  149MOL   H15027086   3.751   4.155   2.547  1.0239 -1.1855  2.0997
  149MOL   H15127087   3.886   4.238   2.319 -1.0333 -0.5521  0.8602
  149MOL   H15227088   4.110   4.138   2.496 -0.7330  2.0609  2.0762
  149MOL   H15327089   4.113   4.165   2.322  1.7741 -1.7133  1.2378
  149MOL   H15427090   4.097   4.297   2.427  0.9761 -0.2903 -1.5661
  149MOL   C15527091   3.867   4.042   2.346 -0.1293 -0.6109  0.3512
  149MOL   C15627092   3.720   4.043   2.293 -0.7391  0.7103  0.4831
  149MOL   C15727093   3.706   4.118   2.152  0.4713  0.1144  0.1115
  149MOL   H15827094   3.925   4.009   2.260 -2.2171  0.0246 -1.3366
  149MOL   H15927095   3.882   3.972   2.428  0.4061 -1.7805 -0.7285
  149MOL   H16027096   3.647   4.104   2.347 -0.0187  2.1712 -0.1703
  149MOL   H16127097   3.611   4.102   2.100 -0.6847  0.4070  2.0560
  149MOL   H16227098   3.711   4.226   2.159  1.0321  0.0362  0.9609
  149MOL   H16327099   3.777   4.076   2.081  0.5950  0.5882 -0.0412
  149MOL   C16427100   3.679   3.895   2.280  0.5966 -0.3007  0.0402
  149MOL   C16527101   3.575   3.850   2.378  0.3020 -0.0877  0.4668
  149MOL   C16627102   3.517   3.719   2.327 -0.0231 -0.2611  0.0143
  149MOL   H16727103   3.634   3.885   2.181  0.2238  1.6626 -0.0143
  149MOL   H16827104   3.767   3.831   2.279  0.5797 -0.3229 -0.4273
  149MOL   H16927105   3.491   3.917   2.393  2.5641  2.4575  2.3481
  149MOL   H17027106   3.422   3.697   2.376 -0.1741  0.8797  0.2449
  149MOL   H17127107   3.492   3.728   2.221  0.9194 -0.5756 -0.2346
  149MOL   H17227108   3.584   3.636   2.349 -1.3726 -1.4722 -0.3779
  149MOL   C17327109   3.631   3.839   2.521 -0.1505  0.7552 -0.0769
  149MOL   C17427110   3.550   3.761   2.617  0.7036  0.2953 -0.3091
  149MOL   C17527111   3.616   3.768   2.757  0.2948  0.5085 -0.5288
  149MOL   H17627112   3.725   3.785   2.515 -0.5859  0.2267 -2.9472
  149MOL   H17727113   3.651   3.939   2.559  0.0726 -0.0068  1.8671
  149MOL   H17827114   3.565   3.656   2.594 -1.6556 -0.7133  2.3404
  149MOL   H17927115   3.650   3.863   2.798  0.0422  0.2965  0.1706
  149MOL   H18027116   3.554   3.724   2.834  2.6851 -0.1227  1.0726
  149MOL   H18127117   3.712   3.717   2.761  0.6064  0.9976 -1.4225
  149MOL   H18227118   3.446   3.794   2.626  0.8636  0.5281  0.7253
  150MOL     C127119   0.977   2.340   3.962  0.1946 -0.8367 -0.6057
  150MOL     C227120   0.865   2.440   4.000 -0.4245 -0.6486 -0.9483
  150MOL     C327121   0.911   2.558   4.087 -0.1284  0.8500 -0.1353
  150MOL     H427122   0.944   2.259   3.897 -1.6939 -0.4028 -0.2350
  150MOL     H527123   1.014   2.289   4.051  0.4956 -0.2640 -0.3974
  150MOL     H627124   0.797   2.387   4.067  0.7887  0.9836  1.6471
  150MOL     H727125   0.833   2.609   4.143  1.6640 -0.5796  3.8776
  150MOL     H827126   0.981   2.526   4.165  0.4900 -0.0426 -1.0426
  150MOL     H927127   0.966   2.627   4.024  0.5845 -2.2002 -2.9997
  150MOL    H1027128   1.051   2.404   3.913 -2.1273  1.9777 -0.5937
  150MOL    C1127129   0.791   2.472   3.867 -0.4271  0.1491  0.2342
  150MOL    C1227130   0.709   2.361   3.797  0.0632 -0.0667  0.3497
  150MOL    C1327131   0.594   2.319   3.884 -0.0663 -0.2415 -0.1883
  150MOL    H1427132   0.728   2.559   3.883 -1.6544  0.0224 -3.4734
  150MOL    H1527133   0.872   2.510   3.805 -0.0379 -0.0991  0.5860
  150MOL    H1627134   0.769   2.271   3.784  1.4083  0.8135  0.3662
  150MOL    H1727135   0.509   2.388   3.885  0.3705  0.3179 -0.8068
  150MOL    H1827136   0.557   2.222   3.852 -2.4883  0.0162  1.6600
  150MOL    H1927137   0.621   2.304   3.988  0.6426  2.3904  0.0455
  150MOL    C2027138   0.665   2.406   3.657 -0.5151  0.3519 -0.2894
  150MOL    C2127139   0.771   2.410   3.547  0.4533 -0.5500 -0.1938
  150MOL    C2227140   0.789   2.271   3.491  0.2773 -0.5599  0.6934
  150MOL    H2327141   0.581   2.346   3.623 -1.4669  1.4735  0.0199
  150MOL    H2427142   0.621   2.505   3.666 -3.7686 -1.1347  0.5969
  150MOL    H2527143   0.866   2.439   3.593 -0.3279  1.1997  0.3547
  150MOL    H2627144   0.818   2.208   3.575  1.2707 -0.9316  0.0839
  150MOL    H2727145   0.712   2.223   3.431  1.8756 -0.0277 -1.8879
  150MOL    H2827146   0.884   2.281   3.437  0.0267 -1.2471  0.1058
  150MOL    C2927147   0.734   2.513   3.439  0.0057  0.1051 -0.3686
  150MOL    C3027148   0.751   2.660   3.474  0.0701 -0.1186  0.0896
  150MOL    C3127149   0.887   2.700   3.518 -0.8946 -0.6526 -0.1454
  150MOL    H3227150   0.796   2.488   3.353 -0.3278 -1.5143 -0.1673
  150MOL    H3327151   0.632   2.499   3.401 -0.5808  1.5005  0.6813
  150MOL    H3427152   0.678   2.682   3.552 -2.0279  1.5800 -2.2614
  150MOL    H3527153   0.899   2.672   3.622  1.8555  1.2942  0.0965
  150MOL    H3627154   0.954   2.653   3.446  0.5636  3.0057 -1.2783
  150MOL    H3727155   0.921   2.803   3.504  0.1599 -0.7268  1.6936
  150MOL    C3827156   0.698   2.755   3.352  0.4449  0.0926 -0.3691
  150MOL    C3927157   0.549   2.744   3.312 -0.0365  0.1885  0.1685
  150MOL    C4027158   0.450   2.780   3.420 -0.1878  0.0539  0.0869
  150MOL    H4127159   0.719   2.853   3.394  0.8255 -0.7273  1.3744
  150MOL    H4227160   0.760   2.757   3.262 -1.2660  0.0797 -1.5757
  150MOL    H4327161   0.526   2.644   3.276  0.5496  0.5331 -1.2390
  150MOL    H4427162   0.458   2.724   3.513  1.2418 -2.0849 -1.2920
  150MOL    H4527163   0.468   2.886   3.437 -0.4247  0.0901  0.1209
  150MOL    H4627164   0.345   2.771   3.391 -0.3945 -1.2379  1.1954
  150MOL    C4727165   0.530   2.840   3.178  0.3104 -0.3280  0.1289
  150MOL    C4827166   0.546   2.756   3.047  0.2417 -0.8742  0.7091
  150MOL    C4927167   0.416   2.688   3.001  0.1459 -0.6346 -0.1027
  150MOL    H5027168   0.428   2.880   3.180  0.4384 -0.0042  0.1328
  150MOL    H5127169   0.593   2.928   3.190  0.6775 -0.6139  0.3036
  150MOL    H5227170   0.628   2.690   3.073  0.6397 -0.1816  1.2271
  150MOL    H5327171   0.434   2.618   2.919  2.0855 -0.6278  0.2983
  150MOL    H5427172   0.390   2.627   3.087  2.4986  0.5305  1.4925
  150MOL    H5527173   0.333   2.753   2.973  2.0283  1.3426 -1.2312
  150MOL    C5627174   0.597   2.858   2.933  0.5226  0.0234  0.4263
  150MOL    C5727175   0.670   2.782   2.815 -0.6449  0.6668 -0.0402
  150MOL    C5827176   0.679   2.860   2.684  0.0677 -0.1158  0.1728
  150MOL    H5927177   0.518   2.924   2.898 -2.2693 -2.8819  0.9604
  150MOL    H6027178   0.669   2.923   2.983  0.2385  1.0567 -0.4969
  150MOL    H6127179   0.613   2.690   2.799 -1.2977  0.7080  1.8881
  150MOL    H6227180   0.761   2.932   2.688 -1.1746  1.5284 -2.4800
  150MOL    H6327181   0.710   2.778   2.620 -1.4682 -1.6326  1.3420
  150MOL    H6427182   0.588   2.913   2.654 -0.3431 -1.9510 -1.9183
  150MOL    C6527183   0.809   2.747   2.870 -0.0059  0.2233  0.9381
  150MOL    C6627184   0.906   2.664   2.785 -0.1967 -0.5801  0.0266
  150MOL    C6727185   1.051   2.660   2.831 -0.5048 -1.0070 -0.1378
  150MOL    H6827186   0.855   2.842   2.895  0.8478  0.3950 -1.2182
  150MOL    H6927187   0.794   2.701   2.968  0.5395 -1.2582  0.3431
  150MOL    H7027188   0.931   2.700   2.685  1.4106  0.2892  0.7344
  150MOL    H7127189   1.099   2.757   2.825  0.7562 -1.5869  0.3829
  150MOL    H7227190   1.054   2.620   2.932 -0.7735 -2.4890 -0.7077
  150MOL    H7327191   1.118   2.600   2.769 -2.6884 -1.5411 -2.0230
  150MOL    C7427192   0.863   2.515   2.767  0.2535 -0.2119 -0.4573
  150MOL    C7527193   0.772   2.474   2.649  0.5973 -0.4634 -0.6317
  150MOL    C7627194   0.841   2.474   2.510  0.3241 -0.6335  0.5299
  150MOL    H7727195   0.949   2.451   2.749 -0.0081 -0.8665  0.5628
  150MOL    H7827196   0.844   2.477   2.867  2.6569 -0.5174 -0.1046
  150MOL    H7927197   0.684   2.538   2.640  1.3470  0.7545  0.5647
  150MOL    H8027198   0.862   2.373   2.476  1.2489 -0.4061  0.4287
  150MOL    H8127199   0.784   2.514   2.426 -2.1678 -1.1885  1.9036
  150MOL    H8227200   0.932   2.534   2.518  1.0182 -1.6194  0.0532
  150MOL    C8327201   0.707   2.339   2.692 -0.3776  0.4349  0.2803
  150MOL    C8427202   0.594   2.357   2.796 -0.0653  0.1226 -0.2521
  150MOL    C8527203   0.458   2.361   2.722 -0.6730 -0.0656 -0.1627
  150MOL    H8627204   0.673   2.294   2.599 -0.1593  1.3970 -0.2725
  150MOL    H8727205   0.781   2.271   2.734 -0.3322  1.1060  1.3216
  150MOL    H8827206   0.604   2.440   2.866 -1.9863 -0.7565  1.1145
  150MOL    H8927207   0.451   2.456   2.669 -0.7807  0.6457  1.1137
  150MOL    H9027208   0.444   2.270   2.663  0.6896 -1.4529  1.6143
  150MOL    H9127209   0.373   2.357   2.790 -0.9009  0.4592 -0.4113
  150MOL    C9227210   0.587   2.224   2.882  0.1396 -0.0144  0.1149
  150MOL    C9327211   0.682   2.218   3.003 -0.2442  0.4611 -0.0767
  150MOL    C9427212   0.641   2.321   3.114  0.5955 -0.0813 -0.6884
  150MOL    H9527213   0.483   2.207   2.911 -0.0746  1.3357  0.1865
  150MOL    H9627214   0.611   2.145   2.812 -0.7716  2.8271 -3.5431
  150MOL    H9727215   0.784   2.232   2.968  0.0140 -1.3902 -0.1091
  150MOL    H9827216   0.534   2.304   3.118  0.5997 -0.7896 -2.7902
  150MOL    H9927217   0.687   2.300   3.210  0.1875  1.3174 -0.1661
  150MOL   H10027218   0.652   2.424   3.077  2.5412  0.1931  0.5618
  150MOL   C10127219   0.673   2.080   3.071 -0.2605  0.0983  0.3383
  150MOL   C10227220   0.710   1.955   2.992 -0.1890 -0.0563  0.4984
  150MOL   C10327221   0.835   1.982   2.907  0.2582  0.0803 -0.3214
  150MOL   H10427222   0.725   2.076   3.167 -1.1110 -2.5059  0.7208
  150MOL   H10527223   0.569   2.074   3.101  0.0712 -1.6222  1.2261
  150MOL   H10627224   0.641   1.941   2.908 -0.6841  2.0931  0.5180
  150MOL   H10727225   0.828   2.058   2.830 -2.0808 -0.5520 -0.7597
  150MOL   H10827226   0.910   2.011   2.981  0.5683 -1.2665 -0.0851
  150MOL   H10927227   0.859   1.890   2.854 -2.9614 -0.9574 -0.0897
  150MOL   C11027228   0.733   1.834   3.082  0.2432 -0.2206 -0.0800
  150MOL   C11127229   0.606   1.789   3.158 -0.4887 -0.7927 -0.1685
  150MOL   C11227230   0.510   1.708   3.067 -0.3619  0.0182  0.1127
  150MOL   H11327231   0.759   1.744   3.026 -0.5064 -0.1985 -0.4841
  150MOL   H11427232   0.823   1.856   3.138  0.3888  0.3529 -0.5322
  150MOL   H11527233   0.545   1.878   3.172 -0.9057 -0.8072 -1.7610
  150MOL   H11627234   0.499   1.747   2.966  0.8291 -3.1694 -1.3261
  150MOL   H11727235   0.533   1.602   3.080  0.7351  0.2713  0.2980
  150MOL   H11827236   0.415   1.715   3.120  0.1068 -1.7099  1.2237
  150MOL   C11927237   0.643   1.714   3.283  0.0513  0.0332 -0.0476
  150MOL   C12027238   0.536   1.727   3.393 -0.4636  0.4157  0.2079
  150MOL   C12127239   0.417   1.632   3.365 -0.3472  0.9554  0.0079
  150MOL   H12227240   0.663   1.607   3.272 -2.1330 -0.3496 -0.5457
  150MOL   H12327241   0.729   1.766   3.324  0.1733  0.7904 -1.2495
  150MOL   H12427242   0.493   1.827   3.396 -2.4126 -0.4185  1.0821
  150MOL   H12527243   0.441   1.550   3.298  0.3211  3.3343 -2.7729
  150MOL   H12627244   0.380   1.579   3.453 -1.5820 -0.5287 -1.3647
  150MOL   H12727245   0.345   1.701   3.320 -3.5344 -2.5072 -0.4060
  150MOL   C12827246   0.602   1.698   3.531 -0.4377 -0.0999  0.1087
  150MOL   C12927247   0.704   1.800   3.597  0.2047 -0.3349 -0.2924
  150MOL   C13027248   0.646   1.926   3.654  0.1084  0.2473 -0.5184
  150MOL   H13127249   0.510   1.694   3.588  0.8868 -0.0511  2.3001
  150MOL   H13227250   0.636   1.594   3.532  0.1985  0.0692  3.7581
  150MOL   H13327251   0.766   1.831   3.513 -0.4663  0.8511 -0.3637
  150MOL   H13427252   0.730   1.993   3.677  0.7067  0.0519 -2.1354
  150MOL   H13527253   0.595   1.974   3.570 -0.8610 -1.5219 -0.9602
  150MOL   H13627254   0.582   1.903   3.740  2.3527 -0.9319  0.8744
  150MOL   C13727255   0.812   1.722   3.678 -0.3268  0.5002 -0.3777
  150MOL   C13827256   0.760   1.691   3.820 -0.4571 -0.1988  0.5005
  150MOL   C13927257   0.839   1.564   3.863  0.3960 -0.1692  0.2901
  150MOL   H14027258   0.848   1.632   3.627 -0.9970 -0.2742  0.4871
  150MOL   H14127259   0.905   1.777   3.684 -0.7287  1.2102 -0.6217
  150MOL   H14227260   0.665   1.640   3.804 -1.3174  1.9546 -1.5538
  150MOL   H14327261   0.848   1.489   3.784 -2.2385 -0.2391  0.0190
  150MOL   H14427262   0.943   1.583   3.888  0.5497 -0.7491  0.1101
  150MOL   H14527263   0.788   1.524   3.951 -1.0665 -0.1107 -0.5109
  150MOL   C14627264   0.773   1.807   3.926  0.7615  0.2957 -0.3437
  150MOL   C14727265   0.764   1.776   4.076  0.5309  0.0029  0.3332
  150MOL   C14827266   0.809   1.905   4.152 -0.1058 -0.0413 -0.2822
  150MOL   H14927267   0.867   1.858   3.903 -0.0223  1.8051 -0.2453
  150MOL   H15027268   0.702   1.889   3.915 -0.4782 -0.9132 -1.4615
  150MOL   H15127269   0.840   1.701   4.097  1.0677  0.6820  0.8000
  150MOL   H15227270   0.869   1.885   4.241 -1.6817 -0.5239  0.7076
  150MOL   H15327271   0.862   1.974   4.087 -1.7969  0.7767 -0.8446
  150MOL   H15427272   0.730   1.979   4.168 -2.2560 -2.2114 -0.6822
  150MOL   C15527273   0.624   1.718   4.121  0.6984  1.1701 -0.0110
  150MOL   C15627274   0.604   1.682   4.270  0.2569 -1.0394 -0.0048
  150MOL   C15727275   0.564   1.804   4.354  0.9969  0.3318  0.0662
  150MOL   H15827276   0.548   1.791   4.093 -1.6480 -0.4971  1.8073
  150MOL   H15927277   0.598   1.645   4.045  1.3659 -0.9655  1.7830
  150MOL   H16027278   0.695   1.638   4.310  1.5496  0.6757 -1.0332
  150MOL   H16127279   0.533   1.885   4.289  0.7866  1.3315  1.3982
  150MOL   H16227280   0.483   1.794   4.427  0.7071 -2.1302 -0.5488
  150MOL   H16327281   0.659   1.837   4.395  1.1951  1.1107 -1.0302
  150MOL   C16427282   0.482   1.586   4.279  0.4249  0.4758  0.7678
  150MOL   C16527283   0.468   1.500   4.413  0.3533  0.0500  0.1811
  150MOL   C16627284   0.321   1.461   4.434 -0.7352 -0.6985 -0.0836
  150MOL   H16727285   0.391   1.644   4.269  0.4806  0.2961 -0.9201
  150MOL   H16827286   0.478   1.520   4.192 -2.6413  3.8014 -1.7544
  150MOL   H16927287   0.492   1.566   4.497  3.0128  0.8313 -1.1316
  150MOL   H17027288   0.303   1.398   4.521 -1.7470  0.8257  0.8248
  150MOL   H17127289   0.248   1.542   4.429 -0.3028 -0.4225 -2.1801
  150MOL   H17227290   0.291   1.408   4.343  1.0531 -2.0944  0.1090
  150MOL   C17327291   0.571   1.392   4.425  0.2813  0.1962 -0.2173
  150MOL   C17427292   0.553   1.309   4.551  0.1664  0.4897 -0.2125
  150MOL   C17527293   0.635   1.179   4.549  0.3831  0.4349 -0.6760
  150MOL   H17627294   0.558   1.321   4.343  0.0840 -0.2519  0.1981
  150MOL   H17727295   0.673   1.430   4.422  0.3345  0.0650 -0.0229
  150MOL   H17827296   0.449   1.283   4.571  1.4958 -2.9055  2.6703
  150MOL   H17927297   0.603   1.121   4.636  2.0717 -0.2100 -0.4651
  150MOL   H18027298   0.624   1.126   4.454 -3.2663  0.8820 -0.5809
  150MOL   H18127299   0.739   1.208   4.562  0.7263  0.5651 -3.4497
  150MOL   H18227300   0.586   1.375   4.632 -0.2657  1.4209 -0.7824
  151MOL     C127301   7.342   0.539   0.236  0.2463  0.1281  0.2953
  151MOL     C227302   7.213   0.473   0.178 -0.1262 -0.7774 -0.1439
  151MOL     C327303   7.160   0.357   0.255 -0.0672  0.6372  0.5257
  151MOL     H427304   7.422   0.485   0.287 -0.7914  0.0860  1.9027
  151MOL     H527305   7.306   0.591   0.325  1.0379 -0.9562  1.2593
  151MOL     H627306   7.246   0.428   0.084  2.4837 -1.1577  0.9152
  151MOL     H727307   7.239   0.282   0.251 -0.9692 -0.3703  1.0908
  151MOL     H827308   7.121   0.383   0.353 -2.3688  0.4256 -0.2810
  151MOL     H927309   7.075   0.305   0.208  1.3777 -0.7968 -0.5666
  151MOL    H1027310   7.389   0.612   0.170 -1.3288  0.1407 -0.8273
  151MOL    C1127311   7.102   0.579   0.149 -0.8897 -0.3876  0.6043
  151MOL    C1227312   7.144   0.699   0.072 -0.6389 -1.1278 -0.3718
  151MOL    C1327313   7.191   0.654   7.626  0.4487 -0.0885  0.7632
  151MOL    H1427314   7.024   0.524   0.096 -0.1699 -1.8932  1.0969
  151MOL    H1527315   7.054   0.604   0.244  2.1927  1.6583  1.6837
  151MOL    H1627316   7.226   0.759   0.110  0.2425 -0.5780 -3.0969
  151MOL    H1727317   7.233   0.736   7.567 -0.6539 -1.4403 -1.9573
  151MOL    H1827318   7.264   0.574   7.617  1.1754  0.8803 -2.5133
  151MOL    H1927319   7.106   0.624   7.565  0.7720  2.0898 -0.8357
  151MOL    C2027320   7.027   0.799   0.055 -0.2548 -0.3011  0.3590
  151MOL    C2127321   7.004   0.888   0.182 -0.3200  0.3275  0.4601
  151MOL    C2227322   7.098   0.999   0.212 -0.1611  0.0160  0.7936
  151MOL    H2327323   7.048   0.866   7.669  1.9218 -0.9811  0.3339
  151MOL    H2427324   6.943   0.733   0.035 -0.7498 -0.1557  1.9337
  151MOL    H2527325   7.012   0.826   0.271 -1.6952 -1.3127 -0.5194
  151MOL    H2627326   7.178   0.963   0.275  0.1436  1.8869  1.5233
  151MOL    H2727327   7.140   1.033   0.117 -0.6187 -1.4859  0.0441
  151MOL    H2827328   7.066   1.085   0.271 -0.7944  0.0192  0.4512
  151MOL    C2927329   6.859   0.951   0.178  0.8133 -0.0004 -1.0069
  151MOL    C3027330   6.745   0.845   0.201  0.3837  0.0438  0.7089
  151MOL    C3127331   6.747   0.803   0.349  0.8475 -0.3391 -0.7149
  151MOL    H3227332   6.853   1.032   0.252  2.0062  0.1556 -1.0662
  151MOL    H3327333   6.850   0.994   0.078 -0.9605 -2.0954 -1.7796
  151MOL    H3427334   6.761   0.756   0.141  1.2122 -1.2534  2.7967
  151MOL    H3527335   6.840   0.755   0.382  0.4014 -1.0949 -0.5411
  151MOL    H3627336   6.735   0.891   0.413  0.4335  0.0139 -1.2754
  151MOL    H3727337   6.676   0.723   0.370 -0.7110  0.5843 -2.2964
  151MOL    C3827338   6.606   0.904   0.161 -0.7570  0.2531 -0.7113
  151MOL    C3927339   6.484   0.808   0.144  0.6872 -1.2735  0.2576
  151MOL    C4027340   6.359   0.890   0.125  1.1022  0.5037  0.3779
  151MOL    H4127341   6.587   0.989   0.226  0.0748 -0.5085  0.5571
  151MOL    H4227342   6.617   0.947   0.062  0.0578  0.7368 -0.4105
  151MOL    H4327343   6.476   0.740   0.230  0.8869 -0.9813  0.5071
  151MOL    H4427344   6.324   0.935   0.218 -1.4225  1.4928 -0.9906
  151MOL    H4527345   6.376   0.972   0.055  1.3280  1.1700  1.2095
  151MOL    H4627346   6.266   0.842   0.096  1.6231 -0.5222  0.4094
  151MOL    C4727347   6.494   0.714   0.028 -0.5792 -0.1296 -0.0416
  151MOL    C4827348   6.419   0.581   0.040 -0.0988 -0.6072 -0.4594
  151MOL    C4927349   6.370   0.520   7.610 -0.2654 -0.1960 -0.1590
  151MOL    H5027350   6.472   0.769   7.634 -0.1943 -0.5701 -0.4082
  151MOL    H5127351   6.602   0.704   0.013 -0.5864 -0.0470 -0.1514
  151MOL    H5227352   6.322   0.591   0.089  0.6012 -0.3517  0.9195
  151MOL    H5327353   6.297   0.445   7.639 -0.4422 -0.1301 -0.4293
  151MOL    H5427354   6.312   0.590   7.550  0.4732  0.6602  0.1162
  151MOL    H5527355   6.447   0.470   7.551 -1.7214 -0.7315 -1.6470
  151MOL    C5627356   6.497   0.482   0.128  0.3110 -0.1654  0.3092
  151MOL    C5727357   6.445   0.341   0.153 -0.2103  0.0185  0.1466
  151MOL    C5827358   6.556   0.261   0.225  0.0496  0.2864 -0.0043
  151MOL    H5927359   6.595   0.457   0.086 -0.2460  0.6423 -1.5454
  151MOL    H6027360   6.525   0.530   0.222  0.3309 -0.8102  0.6306
  151MOL    H6127361   6.436   0.289   0.057  3.0724 -0.8410  0.2375
  151MOL    H6227362   6.508   0.183   0.285 -0.6031  0.3397 -0.4558
  151MOL    H6327363   6.643   0.225   0.171  0.1242  0.2952  0.1091
  151MOL    H6427364   6.592   0.331   0.302  0.2716  1.0171 -0.7645
  151MOL    C6527365   6.312   0.347   0.236 -0.4336 -0.2489  0.4714
  151MOL    C6627366   6.214   0.226   0.229  0.9067  0.3894  0.4476
  151MOL    C6727367   6.125   0.220   0.358 -0.3605 -0.6289  0.1573
  151MOL    H6827368   6.337   0.350   0.342 -1.1303 -0.2495  0.6372
  151MOL    H6927369   6.267   0.445   0.221  3.0206  1.6091  1.7087
  151MOL    H7027370   6.263   0.129   0.230  1.3619  0.6171  0.1122
  151MOL    H7127371   6.186   0.238   0.446 -0.8635 -1.8544  0.7602
  151MOL    H7227372   6.040   0.288   0.357 -0.4615 -0.7528  0.3772
  151MOL    H7327373   6.072   0.125   0.367  0.8690 -1.3400  0.0597
  151MOL    C7427374   6.134   0.236   0.100  0.3384  0.1594 -0.5775
  151MOL    C7527375   6.032   0.116   0.086  0.0629 -0.7902  0.0860
  151MOL    C7627376   5.934   0.156   7.668 -0.0058 -0.7785  0.4654
  151MOL    H7727377   6.090   0.335   0.089  0.3816  0.2702  0.1973
  151MOL    H7827378   6.205   0.225   0.018 -0.7867  0.5146 -1.5993
  151MOL    H7927379   5.970   0.096   0.173 -0.4080 -1.2420 -0.3546
  151MOL    H8027380   5.878   0.249   7.675  0.3199 -0.4202 -1.4565
  151MOL    H8127381   5.989   0.141   7.575 -1.6520 -1.5578 -0.3918
  151MOL    H8227382   5.852   0.085   7.651 -0.0090 -0.4361 -1.0060
  151MOL    C8327383   6.102   7.678   0.047  0.4681 -0.3712  0.0286
  151MOL    C8427384   6.096   7.577   0.159 -0.3297  0.5003 -0.5368
  151MOL    C8527385   5.960   7.510   0.172  0.1170  0.1174  0.7656
  151MOL    H8627386   6.054   7.638   7.655  0.9494 -0.0916 -0.3644
  151MOL    H8727387   6.203   0.003   0.013  0.4418  1.2587  0.9840
  151MOL    H8827388   6.124   7.619   0.255 -0.0569  0.7220 -0.7120
  151MOL    H8927389   5.891   7.579   0.221 -0.4418  0.4274 -0.4237
  151MOL    H9027390   5.925   7.468   0.077  3.2549 -0.1197 -0.3323
  151MOL    H9127391   5.959   7.424   0.239 -2.7854 -1.4568 -1.1937
  151MOL    C9227392   6.202   7.468   0.126 -0.2510  0.1539  0.1475
  151MOL    C9327393   6.348   7.496   0.183  0.5884 -0.3042  0.4387
  151MOL    C9427394   6.418   7.602   0.095  0.1584  0.5281 -0.3471
  151MOL    H9527395   6.180   7.376   0.180  1.7275  0.4996  1.5956
  151MOL    H9627396   6.205   7.441   0.020  0.5662 -0.1559  0.2461
  151MOL    H9727397   6.401   7.405   0.157  0.7950 -1.0782  3.4362
  151MOL    H9827398   6.406   7.695   0.150  0.1805  0.1321  0.3444
  151MOL    H9927399   6.524   7.577   0.091 -0.1870 -1.2064  0.7460
  151MOL   H10027400   6.390   7.613   7.688 -0.8734  2.4242  0.1071
  151MOL   C10127401   6.356   7.506   0.333 -0.7141  0.3939 -0.0089
  151MOL   C10227402   6.495   7.524   0.394 -0.0059 -0.4362 -0.4107
  151MOL   C10327403   6.481   7.542   0.545  0.2286  0.1414  0.1527
  151MOL   H10427404   6.313   7.601   0.366 -1.4090  0.0035  0.2001
  151MOL   H10527405   6.295   7.430   0.380  2.2805 -2.2609 -0.2272
  151MOL   H10627406   6.534   7.608   0.338  1.0597 -1.6368 -1.5023
  151MOL   H10727407   6.575   7.566   0.594  1.4053 -0.1603 -1.8814
  151MOL   H10827408   6.406   7.618   0.568  0.7867  0.5379  0.6431
  151MOL   H10927409   6.431   7.452   0.581  1.2104  0.5299  2.5193
  151MOL   C11027410   6.594   7.408   0.362 -0.0440  0.1246 -0.9402
  151MOL   C11127411   6.738   7.425   0.417 -0.1294 -0.4729 -0.4318
  151MOL   C11227412   6.820   7.285   0.433  0.6110 -0.0479  0.1578
  151MOL   H11327413   6.559   7.313   0.401  0.8853  0.0755 -0.2187
  151MOL   H11427414   6.601   7.406   0.253 -1.6609  4.3919 -1.2367
  151MOL   H11527415   6.733   7.464   0.519 -0.7492  1.4164 -1.1567
  151MOL   H11627416   6.913   7.301   0.487 -0.7616  0.5108  2.4312
  151MOL   H11727417   6.756   7.219   0.491 -0.7619  0.1992 -1.0349
  151MOL   H11827418   6.829   7.229   0.340 -1.2452  0.5112 -0.3845
  151MOL   C11927419   6.814   7.516   0.321 -0.3761  0.5308 -0.1595
  151MOL   C12027420   6.918   7.595   0.394  0.2066 -0.2047  1.1950
  151MOL   C12127421   7.044   7.610   0.308 -0.5177 -0.1851  0.1374
  151MOL   H12227422   6.849   7.452   0.240  1.9636  1.0796  0.3624
  151MOL   H12327423   6.748   7.589   0.274 -3.1916 -2.4491 -0.9794
  151MOL   H12427424   6.957   7.542   0.481  0.4023  0.0980  1.2948
  151MOL   H12527425   7.044   7.689   0.234 -0.6233  0.1096  0.4491
  151MOL   H12627426   7.122   7.631   0.382 -1.0583  0.2786  0.5838
  151MOL   H12727427   7.083   7.518   0.264 -2.8755 -0.9387 -0.4262
  151MOL   C12827428   6.871   0.036   0.454  0.8332  0.4949  0.4663
  151MOL   C12927429   6.966   0.128   0.525  0.4868  0.2072 -0.2334
  151MOL   C13027430   6.899   0.273   0.546 -0.0458  0.6148 -0.1835
  151MOL   H13127431   6.821   0.092   0.374 -0.3476  1.9854  2.2028
  151MOL   H13227432   6.787   0.014   0.519  0.2334  0.6832 -0.2341
  151MOL   H13327433   7.047   0.140   0.454  1.0642  1.6041  0.6460
  151MOL   H13427434   6.831   0.259   0.630  1.5744  2.8325  1.5442
  151MOL   H13527435   6.978   0.347   0.558  0.3771  0.6085 -2.6643
  151MOL   H13627436   6.840   0.301   0.458 -1.4888  0.8800  0.8373
  151MOL   C13727437   7.029   0.069   0.655  0.0214  0.7108  0.6965
  151MOL   C13827438   7.144   0.155   0.722 -0.0957  0.5106 -0.8252
  151MOL   C13927439   7.128   0.129   0.877  0.3646  0.5915  0.6838
  151MOL   H14027440   6.947   0.057   0.727 -0.7456 -1.7348 -0.5397
  151MOL   H14127441   7.057   7.662   0.639 -3.6304  0.0244 -1.7167
  151MOL   H14227442   7.123   0.261   0.707 -1.6436  0.5729  1.5079
  151MOL   H14327443   7.180   0.211   0.927  0.3077  2.1509 -1.7781
  151MOL   H14427444   7.023   0.133   0.907 -0.1879  0.8066 -1.2053
  151MOL   H14527445   7.165   0.029   0.902 -3.4276 -1.0115  0.2323
  151MOL   C14627446   7.285   0.123   0.673 -0.6343  0.3045  0.2219
  151MOL   C14727447   7.393   0.210   0.731 -0.0576 -0.9123  0.4309
  151MOL   C14827448   7.531   0.136   0.736 -1.0730  0.0499 -0.2944
  151MOL   H14927449   7.306   0.022   0.709  1.1140  0.1629 -1.1263
  151MOL   H15027450   7.293   0.110   0.565 -0.1695 -0.3808  0.3312
  151MOL   H15127451   7.371   0.231   0.835 -0.2394 -2.3014  0.6840
  151MOL   H15227452   7.616   0.199   0.761 -2.1985  1.1563  0.8425
  151MOL   H15327453   7.522   0.053   0.806 -0.0546  0.8303  0.7917
  151MOL   H15427454   7.542   0.094   0.636 -1.3705 -0.6838 -0.0223
  151MOL   C15527455   7.393   0.341   0.640 -0.0482  0.0497  0.3118
  151MOL   C15627456   7.362   0.468   0.722  0.6887 -0.2631  0.2891
  151MOL   C15727457   7.485   0.503   0.801 -0.8854 -0.4905  0.9034
  151MOL   H15827458   7.492   0.353   0.594 -0.3959 -0.5218 -0.5972
  151MOL   H15927459   7.320   0.342   0.559  0.7417  2.8839 -0.4525
  151MOL   H16027460   7.277   0.447   0.787  1.8238 -1.7933  1.3091
  151MOL   H16127461   7.452   0.583   0.869 -1.2295  0.3963 -0.2921
  151MOL   H16227462   7.520   0.417   0.857  1.9715 -0.1170 -0.2327
  151MOL   H16327463   7.570   0.534   0.741 -0.7030 -2.3367  0.1897
  151MOL   C16427464   7.310   0.581   0.628 -0.9689  0.7658  0.0784
  151MOL   C16527465   7.237   0.695   0.705  0.4761  0.2864 -0.0151
  151MOL   C16627466   7.300   0.835   0.681  0.3425  0.0756 -0.1897
  151MOL   H16727467   7.396   0.623   0.576 -0.1276  0.5438  1.2866
  151MOL   H16827468   7.250   0.550   0.542  0.3540  0.8739 -0.9067
  151MOL   H16927469   7.239   0.671   0.812 -1.1366  0.4900  0.0857
  151MOL   H17027470   7.404   0.836   0.711  0.1586  0.0275  0.4529
  151MOL   H17127471   7.287   0.850   0.574  1.3860  2.1084 -0.0702
  151MOL   H17227472   7.250   0.913   0.739  0.6268  0.7682 -0.8550
  151MOL   C17327473   7.090   0.699   0.673 -0.1114 -0.4999  0.6579
  151MOL   C17427474   7.017   0.576   0.730  0.9994  0.1894 -0.1177
  151MOL   C17527475   6.863   0.593   0.725  0.2957  0.5997 -0.1470
  151MOL   H17627476   7.048   0.794   0.707  3.7089  1.2617  0.7129
  151MOL   H17727477   7.085   0.705   0.564 -0.8619  1.6463  0.7781
  151MOL   H17827478   7.047   0.557   0.833 -0.6100 -3.4743 -0.2553
  151MOL   H17927479   6.845   0.605   0.618  1.4673  0.0383 -0.4182
  151MOL   H18027480   6.808   0.504   0.754 -1.0062  0.8817 -1.6917
  151MOL   H18127481   6.830   0.686   0.773 -1.3704  0.5009 -1.0902
  151MOL   H18227482   7.055   0.489   0.678  1.9694 -0.1961  1.1983
  152MOL     C127483   2.763   0.616   3.975 -0.1891  0.1068  0.7451
  152MOL     C227484   2.802   0.519   4.092  0.0471  0.3676  0.4160
  152MOL     C327485   2.751   0.581   4.225  0.4829  0.0771  0.2117
  152MOL     H427486   2.791   0.574   3.879  1.3973  0.3410  1.0939
  152MOL     H527487   2.825   0.702   3.999  2.5755 -1.8872  0.9530
  152MOL     H627488   2.911   0.509   4.088 -0.0165  0.4785 -2.2817
  152MOL     H727489   2.790   0.683   4.235 -1.0717  1.0363 -2.8336
  152MOL     H827490   2.646   0.610   4.223  0.7327  1.2823  2.9774
  152MOL     H927491   2.776   0.531   4.319  2.2447 -0.9323 -0.7661
  152MOL    H1027492   2.656   0.635   3.986 -0.6724 -0.0775 -3.1305
  152MOL    C1127493   2.746   0.382   4.063 -0.3397  0.5574  0.7029
  152MOL    C1227494   2.836   0.260   4.103 -0.1563  0.6861 -0.0007
  152MOL    C1327495   2.970   0.251   4.014  0.3382 -0.6079 -0.2398
  152MOL    H1427496   2.647   0.374   4.107 -0.9852  0.3470 -0.7853
  152MOL    H1527497   2.727   0.375   3.956 -1.4058  0.7638  0.8800
  152MOL    H1627498   2.773   0.176   4.076  1.0919  0.0018 -0.7569
  152MOL    H1727499   3.048   0.321   4.046  0.5678 -0.4518 -1.1508
  152MOL    H1827500   3.007   0.149   4.019 -2.1490 -1.5489 -0.5525
  152MOL    H1927501   2.954   0.270   3.908  1.7748 -0.0947 -0.3855
  152MOL    C2027502   2.860   0.251   4.254 -0.3025  0.3396 -0.1702
  152MOL    C2127503   2.846   0.115   4.321 -0.0251 -0.1204 -0.2118
  152MOL    C2227504   2.943   0.016   4.270 -0.1611 -0.0588  0.4121
  152MOL    H2327505   2.949   0.301   4.294 -0.9145  0.5851  0.8977
  152MOL    H2427506   2.783   0.305   4.309 -1.9012 -1.5783 -0.4829
  152MOL    H2527507   2.752   0.075   4.285  0.3103 -1.0161 -0.1121
  152MOL    H2627508   2.927   7.618   4.320 -0.4028  0.1328  0.7009
  152MOL    H2727509   2.923   0.010   4.163  2.2502  0.1394 -0.0853
  152MOL    H2827510   3.046   0.052   4.277  0.1435  0.1482 -3.6268
  152MOL    C2927511   2.843   0.126   4.474  0.4741 -0.3714 -0.5202
  152MOL    C3027512   2.701   0.129   4.537  0.5093  0.0731 -0.5339
  152MOL    C3127513   2.634   7.685   4.545  0.3171  0.2671 -0.8525
  152MOL    H3227514   2.908   0.050   4.517  0.4405  0.0049  0.1994
  152MOL    H3327515   2.886   0.223   4.500  0.6714 -0.6328  0.1307
  152MOL    H3427516   2.641   0.196   4.476  1.0766 -0.7110 -1.9936
  152MOL    H3527517   2.651   7.642   4.644 -0.2078 -0.1569 -0.9467
  152MOL    H3627518   2.526   0.003   4.548  0.1314 -1.0988 -0.4307
  152MOL    H3727519   2.647   7.626   4.455 -0.3795  1.4799 -1.7660
  152MOL    C3827520   2.689   0.206   4.676  0.2311 -0.7761  0.2818
  152MOL    C3927521   2.553   0.248   4.728 -0.5782  0.7702  0.3461
  152MOL    C4027522   2.575   0.306   4.868 -0.4984  0.1568  0.4449
  152MOL    H4127523   2.732   0.135   4.747 -0.4729 -0.6522  0.8291
  152MOL    H4227524   2.748   0.297   4.661 -0.2452 -0.3622  0.9101
  152MOL    H4327525   2.490   0.158   4.732  1.0280 -0.3719  0.6437
  152MOL    H4427526   2.621   0.227   4.927 -1.4980 -0.3561  0.5518
  152MOL    H4527527   2.636   0.396   4.860 -0.1538 -0.1071  0.0893
  152MOL    H4627528   2.478   0.325   4.913  0.1013 -2.1252  2.7844
  152MOL    C4727529   2.482   0.361   4.652 -0.1999 -0.1254 -0.2128
  152MOL    C4827530   2.392   0.315   4.540  1.0549  0.8636 -0.5744
  152MOL    C4927531   2.245   0.299   4.591  0.6619  0.5338 -0.1834
  152MOL    H5027532   2.421   0.426   4.714 -1.3402 -0.1661 -1.2827
  152MOL    H5127533   2.558   0.432   4.619  1.3073 -2.2271 -1.3756
  152MOL    H5227534   2.434   0.221   4.505 -0.7140  0.2177 -1.0611
  152MOL    H5327535   2.187   0.229   4.530  1.1771  2.1767 -2.6250
  152MOL    H5427536   2.248   0.248   4.687 -0.2571  0.3915 -0.2229
  152MOL    H5527537   2.182   0.388   4.589  0.9108  0.7372  0.6402
  152MOL    C5627538   2.399   0.417   4.425 -0.1005 -0.7952  0.2094
  152MOL    C5727539   2.333   0.372   4.297  0.1963  0.8702 -0.3152
  152MOL    C5827540   2.318   0.487   4.200  0.1600 -0.1543  0.0408
  152MOL    H5927541   2.355   0.515   4.441  2.1540  0.4615 -1.0862
  152MOL    H6027542   2.502   0.439   4.398  0.9679 -3.0993  2.1346
  152MOL    H6127543   2.234   0.334   4.321  2.1639 -4.0027  0.6605
  152MOL    H6227544   2.276   0.460   4.103  1.5704 -1.1340 -0.3236
  152MOL    H6327545   2.249   0.561   4.241  0.4839  0.6861 -0.9081
  152MOL    H6427546   2.415   0.529   4.174  0.2701 -0.3021  0.2107
  152MOL    C6527547   2.415   0.254   4.236 -0.5235  0.1210 -0.0974
  152MOL    C6627548   2.335   0.122   4.212  0.0960 -0.6655 -0.2494
  152MOL    C6727549   2.228   0.139   4.111  0.0525  0.0848  0.1843
  152MOL    H6827550   2.451   0.280   4.137 -0.5686 -0.6732 -0.3241
  152MOL    H6927551   2.499   0.224   4.300 -0.7240  2.2136  1.2091
  152MOL    H7027552   2.300   0.091   4.311  0.2529 -1.8158 -0.5452
  152MOL    H7127553   2.139   0.081   4.134 -1.3109  2.7985  2.0280
  152MOL    H7227554   2.197   0.244   4.103 -2.0336 -0.4154  1.4592
  152MOL    H7327555   2.268   0.126   4.010 -1.8219 -0.2090 -0.5410
  152MOL    C7427556   2.433   0.010   4.170 -0.4402 -1.0855 -0.2129
  152MOL    C7527557   2.350   7.572   4.159 -0.2008  0.0481 -0.8118
  152MOL    C7627558   2.349   7.538   4.004  0.1849 -0.1096 -0.1149
  152MOL    H7727559   2.484   0.036   4.077 -0.5515 -0.0001  0.0232
  152MOL    H7827560   2.506   0.007   4.251  1.3368 -2.0591 -1.7832
  152MOL    H7927561   2.245   7.587   4.181  0.0207 -1.4652  1.3820
  152MOL    H8027562   2.296   7.614   3.945  0.0021 -0.0192  0.1656
  152MOL    H8127563   2.450   7.545   3.963  1.1791  1.6111  2.5154
  152MOL    H8227564   2.318   7.437   3.979  0.7306 -0.5868  1.1509
  152MOL    C8327565   2.407   7.449   4.237 -0.3163  0.3509 -0.2056
  152MOL    C8427566   2.320   7.326   4.239 -1.1032 -0.5884 -0.1312
  152MOL    C8527567   2.384   7.208   4.318  0.0974 -1.1297  0.0290
  152MOL    H8627568   2.505   7.414   4.202  0.4400  2.6964 -0.5362
  152MOL    H8727569   2.425   7.474   4.341 -2.9646  1.1492  0.0953
  152MOL    H8827570   2.317   7.285   4.138  1.1820  1.1880 -0.9580
  152MOL    H8927571   2.329   7.113   4.317  1.8038 -2.1627 -2.7800
  152MOL    H9027572   2.488   7.189   4.291 -0.0408 -1.1567 -0.5048
  152MOL    H9127573   2.399   7.240   4.421  0.0263 -0.0667 -0.2840
  152MOL    C9227574   2.176   7.359   4.290 -0.1082 -0.1854  0.5987
  152MOL    C9327575   2.065   7.368   4.192  0.2252  0.1976  0.1639
  152MOL    C9427576   2.072   7.244   4.094  0.0264  0.2285 -0.1097
  152MOL    H9527577   2.143   7.285   4.363  0.8075 -1.0729  0.1186
  152MOL    H9627578   2.182   7.453   4.346  1.3189  0.2961 -0.3393
  152MOL    H9727579   2.075   7.463   4.139 -0.4918  0.4054  0.3951
  152MOL    H9827580   1.993   7.243   4.018  1.3866 -1.7689 -1.5544
  152MOL    H9927581   2.158   7.253   4.027 -0.5996 -2.0742 -1.2759
  152MOL   H10027582   2.083   7.146   4.141  2.6767  0.9911  0.9587
  152MOL   C10127583   1.928   7.370   4.260 -0.6487  0.2665 -0.2531
  152MOL   C10227584   1.818   7.434   4.173  0.0879  0.4338 -0.2212
  152MOL   C10327585   1.689   7.375   4.218  0.8533  0.2625  0.1701
  152MOL   H10427586   1.913   7.272   4.305  1.4310  0.0576  0.0591
  152MOL   H10527587   1.941   7.430   4.350 -3.4025  0.6715 -0.0825
  152MOL   H10627588   1.836   7.389   4.075  1.3849 -0.8295  0.5792
  152MOL   H10727589   1.668   7.417   4.316  2.4722  2.4649 -0.3869
  152MOL   H10827590   1.601   7.397   4.158 -0.2241 -0.6880  1.3638
  152MOL   H10927591   1.694   7.266   4.229 -1.5133 -0.2388 -3.0237
  152MOL   C11027592   1.834   7.587   4.176 -0.0967 -0.1040  0.0141
  152MOL   C11127593   1.812   7.674   4.056 -0.7420  0.0723 -0.0302
  152MOL   C11227594   1.914   7.646   3.942 -1.4507  0.5448  0.9756
  152MOL   H11327595   1.755   7.627   4.239 -0.5543 -1.3683  0.2619
  152MOL   H11427596   1.927   7.606   4.230  1.6674 -0.3079 -2.8338
  152MOL   H11527597   1.829   0.079   4.089 -0.5964  0.4779 -1.3588
  152MOL   H11627598   1.901   0.011   3.853 -1.3662  0.2702  0.7692
  152MOL   H11727599   2.016   7.650   3.981 -1.6247 -2.5107  1.8346
  152MOL   H11827600   1.901   7.545   3.904 -2.5887  1.0951 -0.1454
  152MOL   C11927601   1.663   7.662   4.003 -0.2504 -0.0122  0.3502
  152MOL   C12027602   1.612   0.052   3.886 -0.4641 -0.1903  0.2448
  152MOL   C12127603   1.475   0.002   3.849  0.0570 -0.0432  0.0171
  152MOL   H12227604   1.656   7.557   3.978  3.2670  0.1337 -1.4628
  152MOL   H12327605   1.594   7.666   4.088  1.4053 -1.7341  1.7999
  152MOL   H12427606   1.679   0.043   3.800  1.4537  1.9247  1.4445
  152MOL   H12527607   1.473   7.592   3.827  1.1994 -0.1971  0.6552
  152MOL   H12627608   1.418   0.018   3.941 -0.4559 -1.4753 -0.0347
  152MOL   H12727609   1.443   0.068   3.768  1.0324  0.6938  0.2329
  152MOL   C12827610   1.617   0.201   3.923  0.4071  0.4675  0.1836
  152MOL   C12927611   1.590   0.310   3.811  0.3737 -0.7472 -0.7033
  152MOL   C13027612   1.448   0.350   3.819  0.1306  0.1006  0.1328
  152MOL   H13127613   1.568   0.220   4.019  1.2455  1.6889  0.3689
  152MOL   H13227614   1.716   0.227   3.960 -0.3016  0.6662  2.0031
  152MOL   H13327615   1.620   0.264   3.717 -0.2163 -1.5172 -0.5225
  152MOL   H13427616   1.432   0.363   3.926  1.6095 -2.1619  0.6636
  152MOL   H13527617   1.426   0.427   3.746  0.8916 -1.1531 -1.4419
  152MOL   H13627618   1.381   0.270   3.785 -0.6294  1.6681 -2.1275
  152MOL   C13727619   1.679   0.435   3.834  0.0156 -0.4973 -0.2374
  152MOL   C13827620   1.830   0.425   3.801  0.5253  0.4357 -0.2133
  152MOL   C13927621   1.854   0.418   3.651 -0.6351 -0.1634 -0.0454
  152MOL   H14027622   1.648   0.513   3.765  0.0897 -0.2301  0.0326
  152MOL   H14127623   1.655   0.454   3.939 -0.4433  0.8977 -0.5845
  152MOL   H14227624   1.866   0.329   3.840  0.3449  0.7721  0.8018
  152MOL   H14327625   1.801   0.329   3.618 -1.1686 -1.1432  3.1988
  152MOL   H14427626   1.829   0.504   3.589  1.3607  0.9524  0.6445
  152MOL   H14527627   1.958   0.400   3.624 -0.8031 -1.2718  0.0223
  152MOL   C14627628   1.912   0.537   3.863  0.6877  0.5781  0.8416
  152MOL   C14727629   1.910   0.562   4.019 -0.2820  0.3539 -0.4496
  152MOL   C14827630   1.932   0.437   4.096  0.2568 -0.3946 -0.3449
  152MOL   H14927631   2.014   0.512   3.835  0.2029 -2.9768  1.9488
  152MOL   H15027632   1.888   0.628   3.808 -0.2995 -1.9061 -3.0763
  152MOL   H15127633   1.813   0.595   4.058  0.9164  0.5549  2.5058
  152MOL   H15227634   2.017   0.380   4.057  1.8721  2.9674 -1.9821
  152MOL   H15327635   1.943   0.465   4.201  0.6864  3.8026 -1.4063
  152MOL   H15427636   1.837   0.385   4.086  1.4886 -2.4827 -1.6993
  152MOL   C15527637   2.027   0.668   4.051  0.0570 -0.3277  0.4123
  152MOL   C15627638   2.018   0.811   3.996  0.7195  0.2003 -0.8147
  152MOL   C15727639   1.903   0.896   4.068  0.3453 -0.8698  0.0157
  152MOL   H15827640   2.044   0.688   4.157  0.8011  0.8759  0.0792
  152MOL   H15927641   2.122   0.622   4.023  1.2310  2.2318  0.0247
  152MOL   H16027642   1.991   0.799   3.891 -0.3964 -1.5259 -0.3524
  152MOL   H16127643   1.804   0.851   4.063  0.0303 -0.1325 -0.5652
  152MOL   H16227644   1.923   0.918   4.173  0.3189  0.6536 -0.2749
  152MOL   H16327645   1.899   0.994   4.019  0.0654 -1.2439 -0.7065
  152MOL   C16427646   2.156   0.876   4.005 -0.7341 -0.3853  0.0073
  152MOL   C16527647   2.274   0.828   3.913  0.8671  0.3102  0.3654
  152MOL   C16627648   2.236   0.828   3.764  0.7077 -0.2331  0.0901
  152MOL   H16727649   2.152   0.980   3.973 -0.0474 -1.2444 -2.9667
  152MOL   H16827650   2.191   0.884   4.108  1.1299  0.6632 -0.6840
  152MOL   H16927651   2.293   0.726   3.945  1.1564  0.8466  1.9220
  152MOL   H17027652   2.191   0.922   3.733  1.1344 -0.3377 -0.8713
  152MOL   H17127653   2.323   0.816   3.699  0.8166  0.6058  0.0797
  152MOL   H17227654   2.169   0.746   3.738 -0.6509  0.7990  0.2706
  152MOL   C17327655   2.400   0.908   3.930  0.1268 -0.8234 -0.8306
  152MOL   C17427656   2.475   0.890   4.065 -0.1069  0.9293  0.5571
  152MOL   C17527657   2.604   0.970   4.072 -0.0458 -0.0097  0.5086
  152MOL   H17627658   2.475   0.873   3.860  0.8231 -2.1638  0.5344
  152MOL   H17727659   2.377   1.011   3.907 -0.9793 -1.0034 -0.5493
  152MOL   H17827660   2.491   0.782   4.065  3.4612  1.3830 -2.2683
  152MOL   H17927661   2.677   0.937   3.999 -0.1062  0.2482  0.3287
  152MOL   H18027662   2.582   1.076   4.056  2.0304  0.4990  0.9252
  152MOL   H18127663   2.654   0.953   4.167 -1.3707  0.0345  1.2319
  152MOL   H18227664   2.414   0.917   4.152  0.6706 -0.8050  1.6763
  153MOL     C127665   4.494   5.468   5.042  0.3805 -0.4120  0.2855
  153MOL     C227666   4.374   5.429   4.956  0.0548  0.4404 -0.0367
  153MOL     C327667   4.374   5.497   4.821 -0.7852  0.3071 -0.5606
  153MOL     H427668   4.501   5.406   5.132  0.8766  0.2599  0.7173
  153MOL     H527669   4.475   5.574   5.060 -1.3222 -0.8096  0.8610
  153MOL     H627670   4.284   5.455   5.011 -0.3012 -1.0789  0.1400
  153MOL     H727671   4.352   5.603   4.839 -1.7208  0.0376 -0.0831
  153MOL     H827672   4.465   5.492   4.762  0.6236 -1.4406  1.6638
  153MOL     H927673   4.292   5.467   4.756  0.1353 -0.9151 -1.1584
  153MOL    H1027674   4.595   5.459   5.003  0.5144 -0.8726  0.7316
  153MOL    C1127675   4.375   5.278   4.934  0.0834 -0.0219 -0.5704
  153MOL    C1227676   4.304   5.189   5.036 -0.2733 -0.2450  0.5182
  153MOL    C1327677   4.154   5.203   5.038 -0.4393  0.1105 -0.4062
  153MOL    H1427678   4.329   5.260   4.837  2.4985  1.4622 -2.0311
  153MOL    H1527679   4.477   5.246   4.913 -0.5134 -2.1670 -0.2484
  153MOL    H1627680   4.341   5.229   5.130  0.5138  2.3664 -0.8518
  153MOL    H1727681   4.112   5.147   5.121 -0.5999  1.3112  0.3334
  153MOL    H1827682   4.135   5.306   5.066 -0.9033  0.6657 -2.6542
  153MOL    H1927683   4.100   5.186   4.945  0.6518  0.9914 -1.2184
  153MOL    C2027684   4.353   5.043   5.017  0.1112 -0.1001  0.0724
  153MOL    C2127685   4.501   4.999   5.022 -0.0780  0.4534  0.3831
  153MOL    C2227686   4.582   5.072   5.128  0.3465  0.0554  0.4566
  153MOL    H2327687   4.304   4.989   5.099 -2.7093 -0.7180 -1.9588
  153MOL    H2427688   4.312   5.003   4.925 -0.7225 -1.0910  0.8543
  153MOL    H2527689   4.547   5.025   4.926  0.0985  0.9378  0.5958
  153MOL    H2627690   4.537   5.058   5.227  2.5758  1.1818  1.6736
  153MOL    H2727691   4.682   5.033   5.142  0.4551 -0.2333 -1.0625
  153MOL    H2827692   4.593   5.176   5.096 -1.6759  0.5537  1.2818
  153MOL    C2927693   4.517   4.851   5.040 -0.0143  0.3450 -0.2515
  153MOL    C3027694   4.650   4.787   4.996 -0.4721  0.2586 -1.0121
  153MOL    C3127695   4.677   4.658   5.076 -0.2643 -0.2623 -0.0397
  153MOL    H3227696   4.492   4.829   5.144 -0.5258  4.0906  0.4808
  153MOL    H3327697   4.442   4.798   4.980  0.2399 -0.3251  0.0182
  153MOL    H3427698   4.725   4.863   5.020  1.0800 -0.7839 -2.4089
  153MOL    H3527699   4.598   4.586   5.056  0.4858 -0.9784 -0.4784
  153MOL    H3627700   4.772   4.618   5.042 -0.7143 -0.2050 -1.4046
  153MOL    H3727701   4.688   4.665   5.184 -0.3404  1.5484 -0.1249
  153MOL    C3827702   4.655   4.744   4.852 -0.4282 -0.1415 -0.3066
  153MOL    C3927703   4.693   4.849   4.740  0.1526  0.2931  0.0541
  153MOL    C4027704   4.826   4.922   4.769  0.5539  0.4100  0.0418
  153MOL    H4127705   4.731   4.667   4.846 -0.5007 -0.2878  0.5443
  153MOL    H4227706   4.569   4.687   4.817 -0.4432 -0.5282  0.3621
  153MOL    H4327707   4.619   4.928   4.749  0.2335  0.5333 -1.3201
  153MOL    H4427708   4.820   4.996   4.849 -1.7501 -0.6259  0.8705
  153MOL    H4527709   4.904   4.850   4.791  0.7451 -0.3994 -3.1069
  153MOL    H4627710   4.865   4.976   4.683 -0.4280 -0.7542 -1.1586
  153MOL    C4727711   4.702   4.798   4.597 -0.1191  1.2257  0.3806
  153MOL    C4827712   4.568   4.753   4.534  0.0818 -0.4256  0.7116
  153MOL    C4927713   4.463   4.863   4.514  0.2264  0.4368  0.2517
  153MOL    H5027714   4.741   4.875   4.531  0.7379  0.3232 -0.1879
  153MOL    H5127715   4.780   4.723   4.582 -1.6371 -0.6279  1.5713
  153MOL    H5227716   4.522   4.674   4.594 -1.1965 -0.8671 -0.8359
  153MOL    H5327717   4.389   4.840   4.437  0.2968 -0.1947  0.3676
  153MOL    H5427718   4.398   4.866   4.601 -2.3894  1.3959 -1.6662
  153MOL    H5527719   4.521   4.952   4.492 -0.1547  0.4244 -0.8463
  153MOL    C5627720   4.593   4.694   4.394  0.6466  0.4050  0.4888
  153MOL    C5727721   4.474   4.614   4.322 -0.5062 -0.4036 -0.5168
  153MOL    C5827722   4.535   4.587   4.181 -0.0065  0.5180  0.3252
  153MOL    H5927723   4.624   4.776   4.330  0.0257  0.1946 -0.0808
  153MOL    H6027724   4.683   4.633   4.394  1.1978  1.2047 -0.1391
  153MOL    H6127725   4.383   4.672   4.305 -0.1628 -0.1386 -1.4966
  153MOL    H6227726   4.464   4.543   4.111 -1.5392 -0.4078  2.4049
  153MOL    H6327727   4.566   4.677   4.128 -0.3398  1.5675  1.8783
  153MOL    H6427728   4.616   4.516   4.191 -2.4248 -2.2588  0.8707
  153MOL    C6527729   4.455   4.488   4.403  1.0598  0.7458 -0.3309
  153MOL    C6627730   4.336   4.402   4.357  0.4317  0.5702 -0.6089
  153MOL    C6727731   4.328   4.276   4.432 -0.1585  0.3455 -0.2119
  153MOL    H6827732   4.544   4.426   4.392 -0.1886 -1.1529 -0.0759
  153MOL    H6927733   4.441   4.511   4.509  0.1404 -1.1521 -0.0126
  153MOL    H7027734   4.349   4.371   4.253 -1.1648  0.9636 -0.9490
  153MOL    H7127735   4.304   4.299   4.536 -0.8379 -0.8910 -0.0805
  153MOL    H7227736   4.257   4.215   4.376  2.2861 -1.4916 -1.4005
  153MOL    H7327737   4.428   4.233   4.439  0.1882  0.3780 -3.9321
  153MOL    C7427738   4.203   4.477   4.378 -0.5861 -0.2057  0.4981
  153MOL    C7527739   4.090   4.452   4.272 -0.2951  0.3484  0.6842
  153MOL    C7627740   3.958   4.506   4.333  0.2332 -0.4288 -0.3708
  153MOL    H7727741   4.165   4.459   4.478 -0.3958  2.3054  1.0592
  153MOL    H7827742   4.215   4.586   4.383 -0.3621 -0.2088  0.0811
  153MOL    H7927743   4.069   4.346   4.263  0.5351  0.0171  2.3381
  153MOL    H8027744   3.867   4.504   4.274  0.5803  1.0358 -0.9846
  153MOL    H8127745   3.926   4.450   4.421 -1.0967 -0.5172 -0.8983
  153MOL    H8227746   3.974   4.605   4.376  1.5657  0.0982 -2.0204
  153MOL    C8327747   4.123   4.522   4.137 -0.6037 -0.2867 -0.3759
  153MOL    C8427748   4.039   4.458   4.023  0.0174 -0.0318 -0.0226
  153MOL    C8527749   4.058   4.548   3.899  0.5692  0.0417 -0.2803
  153MOL    H8627750   4.112   4.629   4.153  1.0361 -0.1976  0.2415
  153MOL    H8727751   4.230   4.516   4.113 -0.4379 -0.4015  0.3779
  153MOL    H8827752   3.933   4.461   4.049 -0.6179  0.0418 -2.5235
  153MOL    H8927753   3.991   4.522   3.817 -0.0108  2.0747 -0.4905
  153MOL    H9027754   4.035   4.652   3.923 -2.6520 -0.3784 -1.2326
  153MOL    H9127755   4.162   4.543   3.867 -0.2796 -2.7488 -2.8302
  153MOL    C9227756   4.086   4.315   3.987 -0.1557 -0.4321 -0.3114
  153MOL    C9327757   3.981   4.221   3.917 -0.5488  0.2489 -0.6638
  153MOL    C9427758   3.976   4.243   3.759  0.0362 -0.3445 -0.2288
  153MOL    H9527759   4.180   4.315   3.933  0.9442  0.1783  1.5547
  153MOL    H9627760   4.100   4.263   4.082  1.5549  2.8004  1.2842
  153MOL    H9727761   3.883   4.250   3.956  0.0338  2.0161 -0.4606
  153MOL    H9827762   3.930   4.336   3.726  0.6019 -0.7010 -2.0945
  153MOL    H9927763   4.074   4.254   3.713  0.1169  0.4997  0.1433
  153MOL   H10027764   3.921   4.164   3.708 -0.0039 -1.1699  1.0618
  153MOL   C10127765   4.023   4.079   3.945 -0.0866 -0.1104  0.4885
  153MOL   C10227766   3.911   3.975   3.932 -0.1585 -0.9711  0.4484
  153MOL   C10327767   3.960   3.829   3.905  0.4217 -0.0303 -0.4426
  153MOL   H10427768   4.101   4.059   3.872 -0.6443 -1.4487  0.2521
  153MOL   H10527769   4.065   4.069   4.045  1.2213 -0.1286 -0.0511
  153MOL   H10627770   3.859   3.999   3.840 -0.2906  0.1028  0.7921
  153MOL   H10727771   4.032   3.829   3.823  2.7529 -2.2586  1.5194
  153MOL   H10827772   4.024   3.798   3.988  0.6279  0.9905 -0.2135
  153MOL   H10927773   3.884   3.753   3.888 -1.1751  0.5969  3.4137
  153MOL   C11027774   3.807   3.991   4.036 -0.0428  0.2323 -0.2734
  153MOL   C11127775   3.849   3.953   4.180 -0.3498 -0.2709 -0.1591
  153MOL   C11227776   3.852   4.077   4.273 -0.2284  0.2916 -0.3491
  153MOL   H11327777   3.760   4.089   4.033  0.2749  0.4142  0.4919
  153MOL   H11427778   3.723   3.933   3.998  0.3114  1.0333 -2.3235
  153MOL   H11527779   3.953   3.926   4.193 -0.3052 -0.9160 -1.7631
  153MOL   H11627780   3.751   4.103   4.305 -0.0817 -0.0638  0.4268
  153MOL   H11727781   3.901   4.038   4.363  0.6835 -0.1168 -1.0168
  153MOL   H11827782   3.909   4.159   4.230  0.6373 -0.3561 -0.4463
  153MOL   C11927783   3.757   3.849   4.247  0.2784 -0.0605  0.1257
  153MOL   C12027784   3.747   3.707   4.177  0.1835 -0.4210  0.1636
  153MOL   C12127785   3.872   3.629   4.215  0.2853 -0.0590 -0.6026
  153MOL   H12227786   3.789   3.828   4.349 -0.7860  0.6685  0.6185
  153MOL   H12327787   3.659   3.897   4.256 -0.0191 -0.7803  0.7483
  153MOL   H12427788   3.753   3.713   4.068  1.0080  0.1159  0.2322
  153MOL   H12527789   3.864   3.524   4.185  1.5361 -1.3496  3.2439
  153MOL   H12627790   3.954   3.673   4.158 -0.1270 -2.0524 -2.8237
  153MOL   H12727791   3.883   3.633   4.323 -1.5646 -1.0410 -0.3694
  153MOL   C12827792   3.627   3.628   4.202 -0.0710 -0.7010 -0.2139
  153MOL   C12927793   3.505   3.674   4.121  0.7113  0.9517 -0.1789
  153MOL   C13027794   3.514   3.648   3.969  0.5712  0.0248 -0.5618
  153MOL   H13127795   3.644   3.525   4.170 -2.0249 -0.4770 -2.0928
  153MOL   H13227796   3.607   3.631   4.309  0.5639 -1.3680 -0.0784
  153MOL   H13327797   3.520   3.782   4.116 -0.1094  1.1868  1.8003
  153MOL   H13427798   3.589   3.710   3.920  2.4471  0.5757  2.8641
  153MOL   H13527799   3.536   3.544   3.943 -0.3844  0.6162 -4.0181
  153MOL   H13627800   3.418   3.665   3.920  0.0928  0.8991  0.6632
  153MOL   C13727801   3.370   3.639   4.188  0.5271  0.5171 -0.0556
  153MOL   C13827802   3.339   3.488   4.217  0.5371  0.0816  0.5466
  153MOL   C13927803   3.375   3.454   4.364 -0.1235  0.9812  0.0194
  153MOL   H14027804   3.349   3.696   4.279 -0.5355  0.2886 -0.1490
  153MOL   H14127805   3.287   3.669   4.124  0.4128  1.0491  0.3412
  153MOL   H14227806   3.398   3.426   4.150 -0.0142 -0.1952  0.3119
  153MOL   H14327807   3.390   3.347   4.376 -2.4832  0.7983  1.5222
  153MOL   H14427808   3.473   3.495   4.389  0.4824 -0.8245  0.6842
  153MOL   H14527809   3.302   3.481   4.440 -3.3418 -1.7668 -1.9899
  153MOL   C14627810   3.194   3.448   4.187 -0.4072 -0.0302 -0.0040
  153MOL   C14727811   3.167   3.299   4.186 -0.4325  0.3320 -0.3161
  153MOL   C14827812   3.089   3.257   4.312 -0.5446 -0.3976 -0.6977
  153MOL   H14927813   3.125   3.514   4.239 -0.8411 -0.8873  0.5187
  153MOL   H15027814   3.179   3.471   4.082 -1.4828 -0.8971 -0.0518
  153MOL   H15127815   3.262   3.249   4.202 -0.3459  1.0584  1.6630
  153MOL   H15227816   3.121   3.307   4.403  1.9662 -1.3092 -1.0370
  153MOL   H15327817   2.982   3.273   4.295 -0.5422 -0.5111 -0.8213
  153MOL   H15427818   3.101   3.149   4.325 -1.3468 -0.4342 -0.2169
  153MOL   C15527819   3.097   3.247   4.060 -0.1961  0.4693 -0.1192
  153MOL   C15627820   3.195   3.212   3.939 -0.2191  0.1291  0.2100
  153MOL   C15727821   3.261   3.332   3.865 -0.1192  1.1504  0.9232
  153MOL   H15827822   3.037   3.166   4.100  0.4261  0.6088  1.1054
  153MOL   H15927823   3.019   3.317   4.029  0.3023  1.6967  1.3329
  153MOL   H16027824   3.126   3.181   3.861  1.6246 -3.6310 -0.0185
  153MOL   H16127825   3.187   3.407   3.836 -0.5771  0.6294  0.7162
  153MOL   H16227826   3.329   3.389   3.928 -2.6337  0.3009  4.5726
  153MOL   H16327827   3.309   3.290   3.776 -1.7081 -1.4747  1.2518
  153MOL   C16427828   3.298   3.097   3.966  0.1424  0.0411 -0.7462
  153MOL   C16527829   3.233   2.952   3.973 -0.4799 -0.1160 -0.3786
  153MOL   C16627830   3.172   2.907   3.839  0.3440  0.1166 -0.7826
  153MOL   H16727831   3.377   3.091   3.891  2.4050  1.4070  1.4687
  153MOL   H16827832   3.352   3.122   4.057 -2.0211  0.3722  0.4818
  153MOL   H16927833   3.168   2.940   4.061  1.2932 -0.1928  0.9463
  153MOL   H17027834   3.091   2.975   3.812  2.4165  1.9226 -2.6370
  153MOL   H17127835   3.252   2.902   3.766  3.0955 -0.4793  2.1529
  153MOL   H17227836   3.128   2.807   3.848 -0.0794  0.3190 -0.5875
  153MOL   C17327837   3.355   2.853   4.005 -0.0003  0.6927  0.3042
  153MOL   C17427838   3.308   2.710   4.036 -0.0818 -0.1888 -0.0286
  153MOL   C17527839   3.419   2.605   4.034 -0.4351  0.0351  0.4170
  153MOL   H17627840   3.412   2.848   3.913 -2.8872  1.0422 -1.5528
  153MOL   H17727841   3.410   2.894   4.090  2.2368 -2.1507  0.2985
  153MOL   H17827842   3.236   2.666   3.967  0.9379 -1.1172 -0.5207
  153MOL   H17927843   3.485   2.620   4.119  0.3440  0.3753 -0.2340
  153MOL   H18027844   3.377   2.505   4.044 -0.6079 -0.0087 -0.6409
  153MOL   H18127845   3.468   2.614   3.937 -1.9082 -0.7105 -0.4230
  153MOL   H18227846   3.276   2.708   4.140 -0.5768 -0.0217 -0.1753
  154MOL     C127847   0.113   2.923   6.132  0.3696 -0.6213 -0.7393
  154MOL     C227848   0.180   2.847   6.013  0.3031  0.2611  0.1875
  154MOL     C327849   0.318   2.907   5.968 -0.4637 -0.2135 -0.5068
  154MOL     H427850   0.015   2.879   6.152  0.4392 -1.1048 -1.4687
  154MOL     H527851   0.118   3.030   6.111  0.1226 -0.4442  0.0649
  154MOL     H627852   0.110   2.868   5.932 -2.4762 -0.7021  2.2775
  154MOL     H727853   0.298   3.010   5.940  0.7248  0.4845  1.1460
  154MOL     H827854   0.384   2.902   6.055 -1.0232  1.4653  0.0281
  154MOL     H927855   0.363   2.854   5.884  1.5014  1.2179 -0.3873
  154MOL    H1027856   0.167   2.903   6.225 -0.8200 -2.2755 -0.3928
  154MOL    C1127857   0.187   2.695   6.042 -0.7529 -0.5623 -0.3505
  154MOL    C1227858   0.048   2.628   6.026 -0.2594  0.4274  0.4073
  154MOL    C1327859   0.017   2.614   5.878 -0.3131  0.3593  0.3933
  154MOL    H1427860   0.253   2.638   5.977 -0.7965 -1.5368  0.4255
  154MOL    H1527861   0.229   2.683   6.142  1.0315  0.4753 -0.9690
  154MOL    H1627862   7.667   2.676   6.085 -0.3814 -0.6424  1.1295
  154MOL    H1727863   7.625   2.554   5.859 -0.5135  0.1334  1.9830
  154MOL    H1827864   0.012   2.714   5.835  4.1903  0.3971 -0.2430
  154MOL    H1927865   0.096   2.561   5.824 -0.6945  0.0926  0.0964
  154MOL    C2027866   0.048   2.486   6.080  0.0719  0.5924  0.2749
  154MOL    C2127867   0.068   2.459   6.232  0.9626 -0.3047 -0.3501
  154MOL    C2227868   7.634   2.477   6.307 -0.1844 -0.1038  0.2637
  154MOL    H2327869   7.656   2.439   6.040 -0.7797  0.0433  2.7635
  154MOL    H2427870   0.126   2.430   6.028 -0.7454 -0.3783  0.0793
  154MOL    H2527871   0.147   2.524   6.269 -0.7509  1.5679  0.1004
  154MOL    H2627872   7.548   2.429   6.261  1.0929 -1.0064 -1.2434
  154MOL    H2727873   7.650   2.455   6.412  1.7235  1.6951  0.3894
  154MOL    H2827874   7.601   2.580   6.294 -0.2458 -0.0979  0.4698
  154MOL    C2927875   0.121   2.312   6.257 -0.5733 -0.4538  0.0278
  154MOL    C3027876   0.251   2.280   6.184 -0.2438 -0.2399 -0.2712
  154MOL    C3127877   0.365   2.389   6.176  0.4266  0.6849 -0.8804
  154MOL    H3227878   0.144   2.301   6.363  0.6870 -0.3535 -0.2225
  154MOL    H3327879   0.048   2.235   6.230 -1.9599  1.3128 -1.4164
  154MOL    H3427880   0.228   2.264   6.079  0.0098  0.0303 -0.3696
  154MOL    H3527881   0.344   2.490   6.141  0.3721  0.7016 -0.8002
  154MOL    H3627882   0.426   2.379   6.266 -0.7277 -0.9538 -0.2558
  154MOL    H3727883   0.436   2.351   6.104  1.0933  3.2592 -1.6520
  154MOL    C3827884   0.301   2.145   6.247 -0.6578  0.3633  0.0270
  154MOL    C3927885   0.434   2.078   6.207  0.2851  0.6533  0.6311
  154MOL    C4027886   0.443   1.941   6.278 -0.1650  0.3463 -0.3077
  154MOL    H4127887   0.304   2.164   6.354  0.0586 -1.1558  0.2878
  154MOL    H4227888   0.226   2.067   6.233 -0.1007 -0.4472  1.5141
  154MOL    H4327889   0.510   2.146   6.246  1.7377 -0.5837  0.0039
  154MOL    H4427890   0.380   1.861   6.237 -0.6024 -0.9223  2.6604
  154MOL    H4527891   0.547   1.910   6.285 -0.9816 -2.0061  2.6098
  154MOL    H4627892   0.407   1.951   6.381 -1.9672 -1.6103 -0.6939
  154MOL    C4727893   0.457   2.056   6.058 -0.1429 -0.2256 -0.0389
  154MOL    C4827894   0.587   1.985   6.011  0.5741 -0.2866  0.4271
  154MOL    C4927895   0.564   1.938   5.859  0.0001  0.3472 -0.2931
  154MOL    H5027896   0.373   1.996   6.023  1.4380 -1.0173 -2.6871
  154MOL    H5127897   0.444   2.156   6.016 -2.9286 -0.4919  0.1243
  154MOL    H5227898   0.584   1.889   6.062 -0.5631 -0.6350 -0.2786
  154MOL    H5327899   0.570   2.027   5.796  0.2190  1.9532  1.9150
  154MOL    H5427900   0.638   1.866   5.822 -0.5700  0.2843 -1.3255
  154MOL    H5527901   0.466   1.891   5.860 -0.1809  0.7045  2.9117
  154MOL    C5627902   0.712   2.067   6.039 -0.3434 -0.1137  0.0405
  154MOL    C5727903   0.847   1.991   6.030 -0.0024  0.2703 -0.4851
  154MOL    C5827904   0.971   2.083   6.017 -0.5702 -0.3812 -0.5067
  154MOL    H5927905   0.723   2.159   5.981 -4.0883 -1.0283 -2.3190
  154MOL    H6027906   0.694   2.105   6.139  1.8191  0.7901  0.1223
  154MOL    H6127907   0.840   1.931   5.939 -1.1435  0.2552 -0.3941
  154MOL    H6227908   0.992   2.126   6.115  2.4275 -2.5056 -0.1817
  154MOL    H6327909   1.055   2.021   5.987  0.0442  0.3011 -0.2195
  154MOL    H6427910   0.965   2.152   5.933 -3.4806 -0.6891 -0.6220
  154MOL    C6527911   0.871   1.900   6.154  0.5596  0.3483 -0.7769
  154MOL    C6627912   0.832   1.746   6.133 -0.4939  0.4152 -0.2662
  154MOL    C6727913   0.916   1.678   6.024  0.3606  0.3919  0.3349
  154MOL    H6827914   0.977   1.900   6.175  0.7198  0.8034 -1.5531
  154MOL    H6927915   0.811   1.943   6.235 -1.3559  0.3222 -2.1444
  154MOL    H7027916   0.727   1.727   6.110  0.0145 -2.2032 -0.5951
  154MOL    H7127917   0.898   1.570   6.026  1.0792  0.2705  0.4538
  154MOL    H7227918   0.906   1.716   5.922  2.8780  0.1157 -0.0538
  154MOL    H7327919   1.021   1.693   6.049  0.1180  2.5597  0.1190
  154MOL    C7427920   0.865   1.673   6.266 -0.0375 -0.6084 -0.3973
  154MOL    C7527921   0.782   1.720   6.395  0.5634 -0.3392 -0.9457
  154MOL    C7627922   0.642   1.644   6.395 -0.2578 -0.3544  1.0203
  154MOL    H7727923   0.853   1.566   6.251  1.4933 -0.6488 -1.4807
  154MOL    H7827924   0.971   1.697   6.272 -0.3205  1.8628 -3.7725
  154MOL    H7927925   0.756   1.825   6.381  1.8928  0.0165 -0.7875
  154MOL    H8027926   0.645   1.537   6.416  0.9073 -0.4542  0.3844
  154MOL    H8127927   0.583   1.683   6.478 -0.7755 -1.5609  1.2298
  154MOL    H8227928   0.575   1.664   6.311  1.3691  1.7873  0.1988
  154MOL    C8327929   0.859   1.692   6.527 -0.5794 -0.3617 -0.1394
  154MOL    C8427930   0.937   1.812   6.574 -0.1213  0.2226  0.0123
  154MOL    C8527931   0.878   1.871   6.694  0.4686  0.0328  0.0626
  154MOL    H8627932   0.790   1.654   6.603 -1.1045 -0.5011 -0.6896
  154MOL    H8727933   0.929   1.614   6.499 -1.8457 -1.3515 -0.5683
  154MOL    H8827934   0.926   1.890   6.498  0.6483  0.7536  0.4447
  154MOL    H8927935   0.769   1.868   6.697  0.4749 -0.3590 -0.1883
  154MOL    H9027936   0.909   1.819   6.785  2.9214 -3.8292 -2.8580
  154MOL    H9127937   0.915   1.974   6.698 -0.7805  0.6024 -2.4977
  154MOL    C9227938   1.088   1.801   6.588 -0.2009 -0.7889 -0.0178
  154MOL    C9327939   1.170   1.941   6.581  0.5324  0.6017 -0.2118
  154MOL    C9427940   1.307   1.908   6.630 -0.1887 -0.4699  0.2404
  154MOL    H9527941   1.114   1.756   6.684 -0.4453 -0.9948 -0.0504
  154MOL    H9627942   1.128   1.734   6.512  0.4253  0.2439 -0.6088
  154MOL    H9727943   1.126   2.008   6.656 -1.5402  0.9166 -1.6496
  154MOL    H9827944   1.322   1.840   6.714  2.2277 -0.7166 -0.3466
  154MOL    H9927945   1.362   1.850   6.556 -0.2717  1.1536 -1.1161
  154MOL   H10027946   1.364   2.001   6.641 -0.7188 -0.1855  0.6035
  154MOL   C10127947   1.169   2.014   6.443  1.4487 -0.0187 -0.6078
  154MOL   C10227948   1.135   2.168   6.444  0.3899 -0.2141 -0.1300
  154MOL   C10327949   1.212   2.234   6.328 -0.0916 -0.7887  0.0372
  154MOL   H10427950   1.271   2.004   6.407  1.1035  0.0021 -1.6231
  154MOL   H10527951   1.102   1.963   6.373  0.1590  2.4468 -1.2259
  154MOL   H10627952   1.167   2.205   6.541 -1.0277  1.2854 -0.2247
  154MOL   H10727953   1.185   2.339   6.322 -1.6691 -1.1754  0.0301
  154MOL   H10827954   1.319   2.217   6.345 -0.2662 -0.9447  1.0281
  154MOL   H10927955   1.172   2.196   6.234  0.4270  0.4723 -0.6984
  154MOL   C11027956   0.986   2.194   6.448  0.3793 -0.1386 -0.2138
  154MOL   C11127957   0.940   2.335   6.418 -0.7676 -0.1723  0.3620
  154MOL   C11227958   0.912   2.362   6.265 -0.1668 -0.9210 -0.2349
  154MOL   H11327959   0.936   2.133   6.373  1.9800  0.3065 -1.6861
  154MOL   H11427960   0.953   2.165   6.548  2.6090 -0.6397  0.4078
  154MOL   H11527961   1.013   2.411   6.442  0.5805 -1.0531 -0.8752
  154MOL   H11627962   0.997   2.351   6.198  0.9167  2.7792  0.4210
  154MOL   H11727963   0.842   2.287   6.228 -0.6598 -0.8779  0.6162
  154MOL   H11827964   0.856   2.454   6.248 -0.9030 -1.3569 -0.1883
  154MOL   C11927965   0.812   2.366   6.507 -0.0190 -0.0026  0.7710
  154MOL   C12027966   0.746   2.515   6.506  0.6990  0.1389 -0.3325
  154MOL   C12127967   0.602   2.516   6.551  0.4653 -0.4832 -0.5568
  154MOL   H12227968   0.729   2.304   6.475  0.4233 -0.8690  1.2804
  154MOL   H12327969   0.817   2.341   6.613  0.3676 -1.4815  0.4129
  154MOL   H12427970   0.748   2.563   6.408 -0.7241 -0.5715 -0.7261
  154MOL   H12527971   0.566   2.615   6.579 -0.0152 -0.7205 -0.3263
  154MOL   H12627972   0.532   2.477   6.477  0.8791 -0.3710 -1.0108
  154MOL   H12727973   0.580   2.460   6.641  1.2922  1.2664  0.7507
  154MOL   C12827974   0.838   2.601   6.599 -0.5455  0.4486  0.8222
  154MOL   C12927975   0.809   2.759   6.606 -0.9780 -0.0871 -0.2774
  154MOL   C13027976   0.902   2.837   6.699  0.2401  0.2342 -0.4721
  154MOL   H13127977   0.835   2.558   6.699 -1.2951 -0.8994  0.2239
  154MOL   H13227978   0.940   2.588   6.565  0.1231  0.3657  2.7724
  154MOL   H13327979   0.712   2.775   6.653  0.0377  1.3694  1.3563
  154MOL   H13427980   0.871   2.797   6.796 -0.1943  1.7352  0.0312
  154MOL   H13527981   1.007   2.815   6.686  0.5102  1.8538 -1.1783
  154MOL   H13627982   0.888   2.946   6.697  0.3858  0.2990  1.3954
  154MOL   C13727983   0.801   2.833   6.472 -0.0339 -0.7715  0.3734
  154MOL   C13827984   0.662   2.846   6.415  0.0662  1.2953  0.2513
  154MOL   C13927985   0.587   2.954   6.492 -0.4310 -0.6257 -0.1091
  154MOL   H14027986   0.840   2.935   6.468 -0.5153 -0.5831  0.3778
  154MOL   H14127987   0.846   2.759   6.406 -2.9544 -1.6007 -0.7829
  154MOL   H14227988   0.609   2.753   6.435 -0.0472  0.9012 -1.7832
  154MOL   H14327989   0.650   3.040   6.515 -0.0892 -0.8274 -0.2845
  154MOL   H14427990   0.506   2.995   6.433  1.1657  2.1094 -0.4953
  154MOL   H14527991   0.541   2.912   6.581 -2.1937 -0.2453 -0.8355
  154MOL   C14627992   0.674   2.870   6.261  0.1022  0.0240 -0.7097
  154MOL   C14727993   0.712   2.759   6.157 -0.8352  0.2678  1.3039
  154MOL   C14827994   0.588   2.671   6.130 -0.4766  0.3285  0.2412
  154MOL   H14927995   0.583   2.912   6.219 -0.0397  0.3716 -0.0703
  154MOL   H15027996   0.750   2.947   6.252  0.0336 -0.0527 -2.0674
  154MOL   H15127997   0.788   2.695   6.201  1.5275  0.2160 -2.6826
  154MOL   H15227998   0.532   2.702   6.041 -0.0627 -0.5899 -0.3484
  154MOL   H15327999   0.619   2.569   6.105  1.5122  0.7858  0.7014
  154MOL   H15428000   0.506   2.670   6.201  0.1810  0.1143  1.0019
  154MOL   C15528001   0.780   2.829   6.031  0.3607  0.9129  0.4902
  154MOL   C15628002   0.792   2.736   5.901 -1.0919 -0.3558  0.2299
  154MOL   C15728003   0.818   2.824   5.777  0.4057 -0.0952 -0.7181
  154MOL   H15828004   0.725   2.919   6.005 -0.4828  0.0186 -0.9032
  154MOL   H15928005   0.881   2.858   6.059  0.8345  0.8524 -1.0980
  154MOL   H16028006   0.688   2.706   5.887 -0.5685 -1.3765 -1.6827
  154MOL   H16128007   0.917   2.868   5.771  1.9961 -3.0862  2.1906
  154MOL   H16228008   0.796   2.774   5.683 -0.3763  0.2925 -0.7540
  154MOL   H16328009   0.757   2.915   5.779  0.5098  0.0265 -2.6279
  154MOL   C16428010   0.885   2.617   5.909  0.0972  0.1914 -0.1820
  154MOL   C16528011   0.886   2.511   5.789  0.4996  0.2609 -0.3773
  154MOL   C16628012   0.998   2.408   5.807  0.2078 -1.0690 -0.2983
  154MOL   H16728013   0.985   2.662   5.908  0.6989 -1.1050  0.0942
  154MOL   H16828014   0.889   2.576   6.010 -0.8017  2.0132  0.6260
  154MOL   H16928015   0.885   2.567   5.696 -2.3875 -0.3820 -0.7769
  154MOL   H17028016   1.006   2.319   5.745  2.2235 -2.4246  1.8297
  154MOL   H17128017   1.090   2.460   5.781  0.6831 -2.7038 -1.9286
  154MOL   H17228018   1.006   2.360   5.905 -0.1336 -0.3607  0.0810
  154MOL   C17328019   0.755   2.427   5.794  1.3022 -0.2684 -0.8400
  154MOL   C17428020   0.734   2.341   5.668 -0.3351  0.5099 -0.4923
  154MOL   C17528021   0.589   2.291   5.641 -0.2997 -0.4665  0.0261
  154MOL   H17628022   0.757   2.355   5.876  1.2460 -1.4545 -1.8640
  154MOL   H17728023   0.665   2.487   5.796  1.8438  0.5352 -0.6074
  154MOL   H17828024   0.809   2.262   5.664  0.7349  1.5144 -0.7327
  154MOL   H17928025   0.563   2.254   5.542 -0.9851 -0.1585  0.0852
  154MOL   H18028026   0.556   2.223   5.720 -1.2149 -1.0720 -0.8686
  154MOL   H18128027   0.523   2.378   5.642 -1.3950 -1.2859  0.7101
  154MOL   H18228028   0.763   2.406   5.584  1.6709 -0.2306 -0.4093
  155MOL     C128029   1.347   0.626   4.496  0.0281 -0.1093 -0.3116
  155MOL     C228030   1.433   0.752   4.521  0.7659 -0.2853 -0.3033
  155MOL     C328031   1.356   0.884   4.548 -0.1636  0.2127  0.5783
  155MOL     H428032   1.291   0.637   4.403 -0.2608 -1.4900 -0.3077
  155MOL     H528033   1.276   0.618   4.578 -0.5093  0.9609 -0.6537
  155MOL     H628034   1.491   0.760   4.429  1.6438 -0.2142  0.2518
  155MOL     H728035   1.282   0.871   4.628 -0.2667 -0.5125  0.3621
  155MOL     H828036   1.416   0.973   4.567  1.3961 -0.3229 -1.6390
  155MOL     H928037   1.289   0.895   4.463  0.8722  2.2078 -0.0069
  155MOL    H1028038   1.409   0.536   4.498  2.4036  1.4881  0.2910
  155MOL    C1128039   1.535   0.728   4.632  0.1229  0.2674  0.6677
  155MOL    C1228040   1.677   0.773   4.598  0.5438  0.2726 -0.0810
  155MOL    C1328041   1.703   0.924   4.609 -0.1533  0.6061  0.1755
  155MOL    H1428042   1.491   0.774   4.721  0.6105  1.5119  0.2758
  155MOL    H1528043   1.535   0.621   4.653 -0.1213 -0.2322 -1.7875
  155MOL    H1628044   1.683   0.745   4.493  0.0646 -1.6613  0.3924
  155MOL    H1728045   1.638   0.974   4.537  0.9248  1.8866  0.0661
  155MOL    H1828046   1.675   0.974   4.702 -2.3247  1.7265 -1.0625
  155MOL    H1928047   1.810   0.935   4.587 -0.1004 -1.4741 -0.7230
  155MOL    C2028048   1.780   0.710   4.694 -0.0850 -0.6160  0.5369
  155MOL    C2128049   1.798   0.555   4.710  0.3099  0.3178 -0.7591
  155MOL    C2228050   1.834   0.491   4.579  0.7451 -0.4460  0.1370
  155MOL    H2328051   1.877   0.756   4.675 -0.8273  0.4922 -0.7393
  155MOL    H2428052   1.761   0.751   4.793 -1.3381  0.9285 -0.3257
  155MOL    H2528053   1.701   0.513   4.738  0.0961 -0.3666 -2.4732
  155MOL    H2628054   1.758   0.506   4.502 -0.7513 -0.4493  1.5824
  155MOL    H2728055   1.934   0.525   4.553  0.0617  1.9742  0.5733
  155MOL    H2828056   1.828   0.383   4.590 -2.2064 -0.2119  1.5102
  155MOL    C2928057   1.896   0.506   4.817 -0.2901  0.0894 -0.4268
  155MOL    C3028058   1.883   0.549   4.969  0.2511 -0.3179  0.2337
  155MOL    C3128059   1.749   0.502   5.034 -0.0881  0.2740  0.0590
  155MOL    H3228060   1.874   0.399   4.808 -2.0838  0.6912 -4.5210
  155MOL    H3328061   1.999   0.519   4.783 -0.0541 -0.3815  0.0991
  155MOL    H3428062   1.889   0.657   4.958  1.8773 -0.1223  2.5755
  155MOL    H3528063   1.661   0.544   4.984 -1.3559 -0.5068  1.6011
  155MOL    H3628064   1.736   0.396   5.051  4.7029 -0.6579 -1.2666
  155MOL    H3728065   1.746   0.547   5.133  2.2197  1.3927 -0.3307
  155MOL    C3828066   2.017   0.541   5.055 -0.9110 -0.4290 -1.1879
  155MOL    C3928067   2.084   0.406   5.095 -0.1701 -0.8460 -0.0006
  155MOL    C4028068   2.153   0.330   4.981 -0.4235 -0.1670 -0.3592
  155MOL    H4128069   2.092   0.604   5.007 -0.7845 -0.4627 -1.0362
  155MOL    H4228070   1.990   0.587   5.150 -0.5439 -1.0126 -0.7984
  155MOL    H4328071   1.996   0.345   5.115 -1.3694 -0.0077 -2.3786
  155MOL    H4428072   2.221   0.249   5.009 -1.7873 -1.5517 -1.0217
  155MOL    H4528073   2.068   0.290   4.926 -0.4464 -1.7358  0.7881
  155MOL    H4628074   2.208   0.395   4.912  0.0197  0.9250  0.9793
  155MOL    C4728075   2.176   0.410   5.222  0.2293  0.0322 -0.0333
  155MOL    C4828076   2.095   0.426   5.356 -0.4347 -0.3373  0.0477
  155MOL    C4928077   2.015   0.301   5.392  0.1217 -0.7658 -0.2412
  155MOL    H5028078   2.244   0.325   5.225 -2.1919 -2.0048 -1.6849
  155MOL    H5128079   2.244   0.493   5.203 -0.1359  0.7718  1.7421
  155MOL    H5228080   2.020   0.502   5.332 -0.8226 -0.3553  1.1736
  155MOL    H5328081   1.975   0.304   5.494 -2.4438 -0.3661 -1.2198
  155MOL    H5428082   1.926   0.293   5.330 -1.1401  1.1685  1.2650
  155MOL    H5528083   2.080   0.217   5.368  1.5204 -0.0166  0.8567
  155MOL    C5628084   2.189   0.490   5.454 -0.3793 -0.3438  0.2586
  155MOL    C5728085   2.195   0.642   5.451 -1.0802  0.3865  0.6344
  155MOL    C5828086   2.077   0.700   5.517  0.1159 -0.1674  0.3347
  155MOL    H5928087   2.160   0.470   5.557  0.5505 -1.4102  0.3132
  155MOL    H6028088   2.291   0.457   5.434  0.3501  1.7506  0.4059
  155MOL    H6128089   2.192   0.673   5.346  3.5201 -3.0043 -0.6335
  155MOL    H6228090   1.982   0.693   5.463 -0.5867  1.3789  1.3425
  155MOL    H6328091   2.062   0.647   5.611 -0.7782  0.8903  0.7993
  155MOL    H6428092   2.079   0.807   5.536  2.5530 -0.0460 -0.4648
  155MOL    C6528093   2.327   0.699   5.505 -0.0207  0.1894  0.5292
  155MOL    C6628094   2.353   0.855   5.491  0.2329  0.0324  0.0524
  155MOL    C6728095   2.466   0.907   5.577 -0.0868 -0.3214 -0.0292
  155MOL    H6828096   2.340   0.675   5.610  1.0424  0.5325  0.4850
  155MOL    H6928097   2.415   0.654   5.459 -0.4491  1.2826 -1.4169
  155MOL    H7028098   2.259   0.901   5.522  0.8434  0.0366  1.9254
  155MOL    H7128099   2.431   0.886   5.679 -2.2788  3.1431  0.0282
  155MOL    H7228100   2.548   0.841   5.550  0.1826  0.7616 -1.9309
  155MOL    H7328101   2.501   1.010   5.567  0.3299 -0.5426 -0.8736
  155MOL    C7428102   2.365   0.890   5.342 -0.0903  0.0575 -0.5268
  155MOL    C7528103   2.337   1.037   5.316 -0.2680 -0.3603 -0.0606
  155MOL    C7628104   2.373   1.061   5.167 -0.2950 -0.7101 -0.4094
  155MOL    H7728105   2.462   0.851   5.314  0.6066  2.2570 -1.2689
  155MOL    H7828106   2.289   0.828   5.293 -0.2312 -0.1879 -0.0024
  155MOL    H7928107   2.413   1.090   5.374  1.5295 -0.9076 -1.8837
  155MOL    H8028108   2.413   1.162   5.161 -0.9388 -0.4780 -0.8805
  155MOL    H8128109   2.459   1.004   5.132  0.6493  0.6855 -0.3762
  155MOL    H8228110   2.296   1.040   5.093  0.3930  0.2911 -1.4215
  155MOL    C8328111   2.198   1.097   5.352  0.1164  0.3588 -0.2801
  155MOL    C8428112   2.193   1.180   5.483  0.5078 -0.4021  0.2282
  155MOL    C8528113   2.251   1.319   5.471 -0.2023  0.1056 -0.2169
  155MOL    H8628114   2.157   1.167   5.280 -2.8860 -0.7670  0.2382
  155MOL    H8728115   2.125   1.016   5.352 -1.4991  1.7952 -0.9428
  155MOL    H8828116   2.255   1.123   5.552  0.6067  0.9211  1.2631
  155MOL    H8928117   2.189   1.383   5.409 -1.7693 -0.6272  0.5609
  155MOL    H9028118   2.249   1.370   5.567  0.1109  0.8889 -0.6222
  155MOL    H9128119   2.355   1.327   5.440 -0.6315  2.1251 -1.1769
  155MOL    C9228120   2.056   1.181   5.549  0.6578  0.3543 -0.0965
  155MOL    C9328121   2.051   1.210   5.696 -0.2355 -0.5286  0.0843
  155MOL    C9428122   1.918   1.286   5.741  0.0770  0.8494  0.1395
  155MOL    H9528123   1.998   1.260   5.502 -1.4810 -1.3822 -0.5139
  155MOL    H9628124   2.002   1.087   5.533  1.9207 -0.7342  1.8365
  155MOL    H9728125   2.122   1.291   5.712 -1.3641  0.2453  1.2731
  155MOL    H9828126   1.901   1.386   5.702  0.0525  1.4739  1.7515
  155MOL    H9928127   1.838   1.218   5.711  0.1553  0.3428  1.0721
  155MOL   H10028128   1.904   1.285   5.849 -0.7142 -0.4591  0.0357
  155MOL   C10128129   2.086   1.093   5.796 -0.5074  0.4946  0.8139
  155MOL   C10228130   2.206   1.117   5.891 -0.5662  0.9032 -0.0417
  155MOL   C10328131   2.185   1.225   5.997  0.4819 -0.3963  0.1876
  155MOL   H10428132   1.992   1.065   5.844 -0.1932  0.5256  1.4526
  155MOL   H10528133   2.105   1.010   5.729 -0.8542  1.6195 -0.7262
  155MOL   H10628134   2.292   1.148   5.831  0.5964 -1.1082  0.5408
  155MOL   H10728135   2.159   1.324   5.959  0.6060 -0.7754 -0.8734
  155MOL   H10828136   2.102   1.197   6.062 -0.2545  2.6569  0.6474
  155MOL   H10928137   2.274   1.250   6.055  0.0157  0.8259  0.4004
  155MOL   C11028138   2.246   0.980   5.951 -0.6933 -0.0943  0.3431
  155MOL   C11128139   2.384   0.963   6.030  0.1676  0.6239  0.0708
  155MOL   C11228140   2.387   0.826   6.108 -0.0922  0.4595  0.5828
  155MOL   H11328141   2.169   0.956   6.024  0.1844 -0.4049  1.1854
  155MOL   H11428142   2.241   0.897   5.879  0.8276 -0.3471  0.5005
  155MOL   H11528143   2.381   1.047   6.100  1.2366  0.7192  0.0099
  155MOL   H11628144   2.464   0.823   6.185  0.2488 -0.1711  0.2202
  155MOL   H11728145   2.289   0.803   6.151 -0.6147  1.6865  0.0975
  155MOL   H11828146   2.409   0.745   6.039  1.4467  0.9123  0.5264
  155MOL   C11928147   2.503   0.988   5.938 -0.1108  0.1621 -0.2795
  155MOL   C12028148   2.607   1.091   5.991 -0.3634 -0.1957 -1.1484
  155MOL   C12128149   2.700   1.018   6.091  0.4668  0.2316  0.2118
  155MOL   H12228150   2.550   0.891   5.921  0.8294  0.7035 -0.7822
  155MOL   H12328151   2.480   1.030   5.840 -0.9828  2.4051  0.8523
  155MOL   H12428152   2.544   1.169   6.035  1.0855 -0.6419  1.8359
  155MOL   H12528153   2.762   0.945   6.040  1.3985 -0.7809  2.7099
  155MOL   H12628154   2.756   1.085   6.156  2.0854 -0.6248 -0.2747
  155MOL   H12728155   2.636   0.969   6.166  0.2258 -0.1815 -0.2608
  155MOL   C12828156   2.695   1.151   5.867  0.1797 -0.3468  0.3128
  155MOL   C12928157   2.664   1.293   5.839 -0.0986  0.4337  0.2264
  155MOL   C13028158   2.519   1.318   5.806  0.2413  0.1918 -0.0024
  155MOL   H13128159   2.800   1.145   5.896  0.8533  2.1543 -1.4464
  155MOL   H13228160   2.690   1.094   5.773 -0.7081 -0.4241  0.4081
  155MOL   H13328161   2.707   1.340   5.750 -0.0770  3.2811  1.6599
  155MOL   H13428162   2.482   1.254   5.725 -1.0013  0.1542  0.5817
  155MOL   H13528163   2.455   1.300   5.892  2.0295 -2.1169  0.9040
  155MOL   H13628164   2.514   1.420   5.769 -3.6258 -0.2726 -0.9862
  155MOL   C13728165   2.701   1.391   5.956 -0.0953 -0.7774 -0.2972
  155MOL   C13828166   2.849   1.382   6.007  0.1684 -0.3436 -0.1443
  155MOL   C13928167   2.952   1.411   5.892 -0.3510 -0.2642 -0.0477
  155MOL   H14028168   2.686   1.495   5.930  0.9831 -1.1905 -2.6759
  155MOL   H14128169   2.632   1.378   6.039 -1.9543 -0.0029 -1.6941
  155MOL   H14228170   2.870   1.283   6.048  1.6141  0.2848  0.7055
  155MOL   H14328171   3.055   1.411   5.928  0.1460  0.9244 -1.3945
  155MOL   H14428172   2.941   1.344   5.807  0.3359  3.3940 -3.1809
  155MOL   H14528173   2.933   1.510   5.849  1.7709  0.0333 -0.3783
  155MOL   C14628174   2.872   1.495   6.113 -0.7341 -0.3600 -0.4085
  155MOL   C14728175   2.810   1.476   6.253 -0.1496 -1.1052 -0.1582
  155MOL   C14828176   2.846   1.348   6.322  0.0234 -0.3761  0.3300
  155MOL   H14928177   2.978   1.505   6.134 -0.2031  0.1636 -3.2244
  155MOL   H15028178   2.836   1.590   6.074 -2.2549 -0.4866  0.6179
  155MOL   H15128179   2.704   1.479   6.228  0.1880  3.1731 -1.4033
  155MOL   H15228180   2.814   1.255   6.277  0.0590 -0.3105  0.1688
  155MOL   H15328181   2.951   1.349   6.351  0.5240  1.7641 -1.3918
  155MOL   H15428182   2.801   1.336   6.420  1.4152 -1.3705  0.8533
  155MOL   C15528183   2.840   1.587   6.365 -0.6484  0.0905 -0.2499
  155MOL   C15628184   2.723   1.610   6.459  0.0487 -0.3745  0.1036
  155MOL   C15728185   2.781   1.672   6.587 -0.5888 -0.0048  0.1619
  155MOL   H15828186   2.933   1.562   6.417 -0.2696  0.3583 -0.7903
  155MOL   H15928187   2.870   1.685   6.330  1.7905 -0.0064  1.4553
  155MOL   H16028188   2.675   1.516   6.488 -1.0938 -0.2182 -1.2417
  155MOL   H16128189   2.805   1.777   6.574  0.1283 -0.2520 -0.5570
  155MOL   H16228190   2.723   1.650   6.676 -0.3207  1.3016  0.6652
  155MOL   H16328191   2.875   1.622   6.609  0.2086  1.0230 -0.8607
  155MOL   C16428192   2.614   1.707   6.394  0.1407  0.6263  0.0130
  155MOL   C16528193   2.496   1.747   6.486  0.9194  0.1713  0.0526
  155MOL   C16628194   2.398   1.835   6.402 -0.6915 -0.0414  0.0545
  155MOL   H16728195   2.658   1.796   6.350  0.0580  0.6323 -0.0582
  155MOL   H16828196   2.571   1.661   6.305 -0.3539  0.4909  0.3160
  155MOL   H16928197   2.543   1.807   6.564  1.0322 -2.2864  1.9240
  155MOL   H17028198   2.374   1.791   6.306  1.7948  0.2014 -0.7051
  155MOL   H17128199   2.301   1.833   6.453 -0.5813 -0.7700  0.2472
  155MOL   H17228200   2.424   1.939   6.385 -1.9885  0.3327  0.2575
  155MOL   C17328201   2.421   1.630   6.546 -0.1034 -0.5588 -0.5547
  155MOL   C17428202   2.367   1.522   6.446  0.0161 -0.5237 -0.7730
  155MOL   C17528203   2.335   1.384   6.502 -1.5966 -0.0451 -1.0448
  155MOL   H17628204   2.482   1.586   6.625 -0.9117 -0.8608 -0.0853
  155MOL   H17728205   2.334   1.661   6.605  1.0053  0.2768  0.6613
  155MOL   H17828206   2.437   1.494   6.367  0.3911  0.5807 -0.8346
  155MOL   H17928207   2.271   1.317   6.443 -2.0050 -2.0712  1.6172
  155MOL   H18028208   2.424   1.331   6.535 -1.7810 -0.1254 -0.6740
  155MOL   H18128209   2.276   1.408   6.590 -1.2821  1.4439 -1.2264
  155MOL   H18228210   2.282   1.553   6.385 -1.6043 -0.7951  1.3159
  156MOL     C128211   2.247   7.519   1.091 -0.9598  0.0279 -0.0897
  156MOL     C228212   2.153   7.485   0.975  0.0801  0.5577  0.1711
  156MOL     C328213   2.137   7.609   0.879 -0.6403 -0.2468  0.0311
  156MOL     H428214   2.240   7.438   1.164  0.0154  1.9805  2.2601
  156MOL     H528215   2.211   7.613   1.133 -0.8611 -0.0227  0.1089
  156MOL     H628216   2.054   7.473   1.018 -0.2644 -1.4752 -1.0952
  156MOL     H728217   2.235   7.639   0.841 -0.2657 -0.5641  0.7346
  156MOL     H828218   2.076   7.584   0.792  1.1665 -1.5130 -0.9098
  156MOL     H928219   2.092   0.001   0.921 -0.1309 -0.1253  0.3217
  156MOL    H1028220   2.351   7.527   1.058 -1.3260 -0.0217 -1.2536
  156MOL    C1128221   2.205   7.367   0.889 -0.0666 -0.0843  0.0827
  156MOL    C1228222   2.246   7.242   0.970 -0.6816 -0.2806 -0.2983
  156MOL    C1328223   2.130   7.195   1.058 -0.0275  0.0877  0.0303
  156MOL    H1428224   2.125   7.347   0.817  0.3848 -0.1508 -0.4027
  156MOL    H1528225   2.293   7.395   0.832 -0.9938  0.9047 -0.8795
  156MOL    H1628226   2.321   7.268   1.045 -0.2951  0.0098 -0.7862
  156MOL    H1728227   2.040   7.194   0.997  0.4089 -0.3400 -0.6082
  156MOL    H1828228   2.152   7.102   1.111  3.7392  1.7462  1.6048
  156MOL    H1928229   2.118   7.259   1.146 -1.5254 -0.4933  0.2501
  156MOL    C2028230   2.294   7.120   0.888  0.0887 -0.6953  0.0958
  156MOL    C2128231   2.438   7.134   0.826 -0.0599 -1.0690 -0.1495
  156MOL    C2228232   2.544   7.163   0.933 -0.7078  0.0716  1.0651
  156MOL    H2328233   2.275   7.026   0.941 -0.1310 -0.5473  0.2751
  156MOL    H2428234   2.229   7.100   0.803 -0.6702  0.6563  0.3513
  156MOL    H2528235   2.435   7.225   0.767 -1.5476 -0.1806  1.2507
  156MOL    H2628236   2.550   7.262   0.980 -0.7260 -0.3587  1.9887
  156MOL    H2728237   2.554   7.101   1.022 -1.0149 -1.1456  0.2577
  156MOL    H2828238   2.639   7.159   0.881 -2.3991 -2.0511 -2.0153
  156MOL    C2928239   2.481   7.010   0.743  0.3180  0.3076  0.7637
  156MOL    C3028240   2.415   7.013   0.603 -0.3769 -0.4461 -0.1414
  156MOL    C3128241   2.480   7.118   0.507 -0.4472  0.4205  0.1116
  156MOL    H3228242   2.589   6.996   0.733  0.2179 -0.3930  0.6927
  156MOL    H3328243   2.450   6.921   0.797  2.2132 -1.8464 -1.5937
  156MOL    H3428244   2.311   7.045   0.613 -0.5262 -1.3516  1.3009
  156MOL    H3528245   2.579   7.082   0.477 -1.6511 -0.2962 -3.2725
  156MOL    H3628246   2.443   7.106   0.405  0.2825 -0.8879 -0.0165
  156MOL    H3728247   2.491   7.218   0.548  1.6516  0.6398 -0.9109
  156MOL    C3828248   2.420   6.871   0.537 -0.7270 -0.2847 -0.1848
  156MOL    C3928249   2.331   6.849   0.409  0.0744  0.2877 -0.5225
  156MOL    C4028250   2.376   6.727   0.338  0.7230 -0.5204 -0.0109
  156MOL    H4128251   2.524   6.839   0.524 -1.1714 -1.3520 -1.1669
  156MOL    H4228252   2.385   6.796   0.608 -2.3141 -0.9762 -1.6715
  156MOL    H4328253   2.344   6.929   0.336 -0.7986  0.4896 -0.4571
  156MOL    H4428254   2.335   6.638   0.386 -0.0177  0.2700  0.8525
  156MOL    H4528255   2.343   6.724   0.235 -0.6988 -0.2234  0.4288
  156MOL    H4628256   2.483   6.712   0.326  0.8798  0.2204  0.4376
  156MOL    C4728257   2.182   6.855   0.447 -0.5878 -0.5372 -0.2233
  156MOL    C4828258   2.110   6.967   0.372  0.2967  0.2395 -0.6713
  156MOL    C4928259   2.082   6.916   0.225  0.6002 -0.0211 -0.4016
  156MOL    H5028260   2.128   6.762   0.434 -1.6532  0.0013  0.2619
  156MOL    H5128261   2.168   6.863   0.555  4.6336  1.6954  0.4356
  156MOL    H5228262   2.179   7.052   0.369  1.7727 -0.9100  0.2113
  156MOL    H5328263   2.168   6.876   0.172 -1.4811 -1.6182 -2.6868
  156MOL    H5428264   2.022   6.826   0.223 -1.0967  1.1127 -1.4393
  156MOL    H5528265   2.032   6.990   0.162 -0.6619  0.3719  1.0219
  156MOL    C5628266   1.976   7.000   0.442  0.3612  0.1477  0.3371
  156MOL    C5728267   1.977   7.103   0.556 -0.5637  0.5508 -0.5153
  156MOL    C5828268   1.982   7.251   0.513 -0.0731 -0.0675  0.7697
  156MOL    H5928269   1.917   7.054   0.369 -0.4021  1.3357  1.8048
  156MOL    H6028270   1.924   6.904   0.448  0.7803 -0.1924 -1.4314
  156MOL    H6128271   2.068   7.085   0.614 -1.4250 -0.7312  0.4642
  156MOL    H6228272   1.897   7.274   0.448  0.0640 -1.6039  0.0156
  156MOL    H6328273   1.983   7.328   0.589  2.0345  0.8302 -0.1246
  156MOL    H6428274   2.067   7.278   0.450 -0.8825  1.3209  0.2564
  156MOL    C6528275   1.850   7.079   0.645 -0.0792  0.7242 -0.2261
  156MOL    C6628276   1.854   6.942   0.724  0.1353 -0.7830 -0.3594
  156MOL    C6728277   1.964   6.926   0.829 -0.4942 -0.0367 -0.5431
  156MOL    H6828278   1.845   7.159   0.718 -0.7159 -0.4541  1.0430
  156MOL    H6928279   1.757   7.085   0.589  0.4270 -2.5022 -1.5366
  156MOL    H7028280   1.876   6.860   0.657  0.4889 -0.2149 -0.9471
  156MOL    H7128281   2.067   6.935   0.794 -0.1773  0.0527  0.4012
  156MOL    H7228282   1.952   6.998   0.910 -2.7982  1.0089 -1.7564
  156MOL    H7328283   1.946   6.828   0.874 -0.4630 -0.2715 -1.0395
  156MOL    C7428284   1.719   6.918   0.799  0.1187  0.0128  0.2062
  156MOL    C7528285   1.589   6.896   0.719  0.0374  0.1397  0.1239
  156MOL    C7628286   1.587   6.757   0.638 -0.1089 -0.9287  0.2739
  156MOL    H7728287   1.730   6.828   0.860  2.0657  0.2915  0.3036
  156MOL    H7828288   1.710   6.991   0.880 -1.8382  1.5307 -1.3384
  156MOL    H7928289   1.567   6.984   0.658 -1.6998  0.0083  0.5154
  156MOL    H8028290   1.552   6.675   0.700 -0.3056 -0.6713  0.4987
  156MOL    H8128291   1.532   6.753   0.543  1.3711  1.6703 -0.7474
  156MOL    H8228292   1.684   6.736   0.593  0.2155  1.8586 -0.4023
  156MOL    C8328293   1.463   6.883   0.812  0.1731 -0.3453 -0.0139
  156MOL    C8428294   1.411   7.015   0.860 -0.2955 -0.4626 -1.4977
  156MOL    C8528295   1.251   7.010   0.871 -0.0919 -0.6195  0.2925
  156MOL    H8628296   1.383   6.835   0.756  1.3778 -2.9868  0.4271
  156MOL    H8728297   1.474   6.803   0.885 -0.2900 -1.9987 -1.7414
  156MOL    H8828298   1.444   7.092   0.790  0.3415 -0.6580 -1.4176
  156MOL    H8928299   1.212   6.939   0.944 -2.1614 -0.3553 -0.5111
  156MOL    H9028300   1.210   7.100   0.917 -0.9004 -0.5389 -0.5770
  156MOL    H9128301   1.199   6.986   0.778 -1.9156  2.9550  0.3121
  156MOL    C9228302   1.468   7.057   0.993 -0.6562 -0.2629  0.2188
  156MOL    C9328303   1.497   7.207   1.024 -0.0514 -0.1625 -0.8391
  156MOL    C9428304   1.379   7.296   0.978 -0.1544 -0.0761 -0.5915
  156MOL    H9528305   1.389   7.028   1.063 -2.3504 -0.2722 -1.6579
  156MOL    H9628306   1.552   6.990   1.012 -1.5237 -1.5312 -0.3642
  156MOL    H9728307   1.584   7.231   0.963  0.2884  0.3923 -0.1520
  156MOL    H9828308   1.348   7.276   0.875 -2.7705 -0.2364  0.1904
  156MOL    H9928309   1.291   7.287   1.043  0.5295 -1.6881  0.1256
  156MOL   H10028310   1.404   7.402   0.988  1.4055 -0.4545 -0.5149
  156MOL   C10128311   1.525   7.240   1.167  0.3570 -0.4710 -0.1153
  156MOL   C10228312   1.651   7.159   1.230 -0.1002  0.1045  0.4348
  156MOL   C10328313   1.777   7.180   1.149 -0.1346  0.3562 -0.1274
  156MOL   H10428314   1.534   7.349   1.168  0.1544 -0.4491 -0.7243
  156MOL   H10528315   1.434   7.223   1.225  1.0371 -1.5709  0.6426
  156MOL   H10628316   1.637   7.051   1.237 -0.9358  0.2432  1.0049
  156MOL   H10728317   1.766   7.103   1.073  0.2503  0.7721 -0.6037
  156MOL   H10828318   1.774   7.278   1.102  0.0499  0.5074  0.1686
  156MOL   H10928319   1.860   7.167   1.219  0.4585  2.3583 -0.4255
  156MOL   C11028320   1.663   7.199   1.375  0.5062 -0.3697 -0.0483
  156MOL   C11128321   1.753   7.124   1.467 -0.1064  0.2590  0.4651
  156MOL   C11228322   1.737   7.167   1.612 -0.4543  0.1041  0.0326
  156MOL   H11328323   1.681   7.303   1.401  1.3060 -0.4345 -0.3540
  156MOL   H11428324   1.557   7.202   1.403  0.5276  1.4534 -0.0988
  156MOL   H11528325   1.859   7.135   1.445  0.1193 -1.8001  0.3752
  156MOL   H11628326   1.635   7.183   1.649  0.1054 -0.3619  1.8667
  156MOL   H11728327   1.794   7.102   1.678 -1.4031 -0.6612  0.1243
  156MOL   H11828328   1.784   7.265   1.606  0.6136 -0.4774 -1.2702
  156MOL   C11928329   1.731   6.966   1.460  0.2800 -0.6076  1.3015
  156MOL   C12028330   1.835   6.880   1.382  0.3854 -0.1335 -0.8688
  156MOL   C12128331   1.976   6.880   1.447 -0.3895  0.5610  0.1728
  156MOL   H12228332   1.723   6.932   1.563  2.4227 -0.0684  1.6674
  156MOL   H12328333   1.627   6.952   1.429  0.1938 -1.2555  1.8762
  156MOL   H12428334   1.840   6.926   1.283 -0.6666 -0.4682 -1.0868
  156MOL   H12528335   2.040   6.799   1.414 -0.6725  0.0771  0.8103
  156MOL   H12628336   2.021   6.976   1.422  1.0343 -0.5443 -1.6451
  156MOL   H12728337   1.966   6.873   1.555  1.3635 -0.4761  0.2847
  156MOL   C12828338   1.802   6.732   1.363  0.5060 -0.3908 -0.0807
  156MOL   C12928339   1.661   6.691   1.303  0.2843 -0.9152 -0.0745
  156MOL   C13028340   1.635   6.733   1.160  0.7119  0.0678  0.1453
  156MOL   H13128341   1.877   6.665   1.322 -1.6201 -3.1354  0.3779
  156MOL   H13228342   1.796   6.700   1.467  1.0523  0.2954  0.1657
  156MOL   H13328343   1.590   6.736   1.373 -1.2420 -1.3480 -1.3050
  156MOL   H13428344   1.534   6.720   1.120  0.7177 -1.5492  0.6098
  156MOL   H13528345   1.678   6.828   1.127  1.1733  0.5440  2.0949
  156MOL   H13628346   1.688   6.660   1.098  1.5880  0.8758 -0.0619
  156MOL   C13728347   1.641   6.539   1.305 -0.0090 -0.9270 -0.3267
  156MOL   C13828348   1.509   6.478   1.250  0.5262 -0.1780  0.4532
  156MOL   C13928349   1.522   6.322   1.277 -0.3166  0.6345  0.7688
  156MOL   H14028350   1.720   6.492   1.246  0.6785  2.1902 -1.9579
  156MOL   H14128351   1.651   6.510   1.409 -3.6700 -0.0447  0.3651
  156MOL   H14228352   1.503   6.492   1.142  0.3242  3.6028  0.8835
  156MOL   H14328353   1.623   6.282   1.266 -0.7306 -0.9882  2.5469
  156MOL   H14428354   1.509   6.308   1.385 -0.7339 -0.1374  0.6207
  156MOL   H14528355   1.455   6.253   1.227  0.6425  0.0213  0.3117
  156MOL   C14628356   1.383   6.524   1.333  0.2449  0.0746  0.6397
  156MOL   C14728357   1.247   6.481   1.283  0.6935  0.4035  0.6644
  156MOL   C14828358   1.139   6.488   1.387 -0.0655 -0.3889  0.6546
  156MOL   H14928359   1.404   6.498   1.437 -2.5847  1.5412  1.6330
  156MOL   H15028360   1.382   6.632   1.349  0.7160  0.1949 -0.0977
  156MOL   H15128361   1.253   6.376   1.255  0.8301  0.7625 -0.6792
  156MOL   H15228362   1.114   6.589   1.418 -0.8905 -0.4964  0.3384
  156MOL   H15328363   1.050   6.435   1.354  0.4672  0.4013 -2.1682
  156MOL   H15428364   1.188   6.456   1.479  0.0978 -1.0693  0.3335
  156MOL   C15528365   1.220   6.561   1.147  0.1162 -0.0467  0.3385
  156MOL   C15628366   1.085   6.532   1.071 -0.3470 -0.0238  0.5405
  156MOL   C15728367   1.061   6.656   0.981  0.0997  0.5466  0.6244
  156MOL   H15828368   1.212   6.664   1.182  0.0163  0.1093 -0.1394
  156MOL   H15928369   1.299   6.546   1.073  0.4171 -0.6611  0.7786
  156MOL   H16028370   0.998   6.545   1.136 -2.6796  1.6172 -2.7735
  156MOL   H16128371   1.147   6.649   0.915 -1.1204 -0.6331 -0.8739
  156MOL   H16228372   0.971   6.662   0.919  1.7182  1.2489 -1.7008
  156MOL   H16328373   1.058   6.750   1.037 -2.1705  0.7393  0.2436
  156MOL   C16428374   1.075   6.407   0.982  0.7747 -0.3656  0.5548
  156MOL   C16528375   1.040   6.279   1.064 -0.4823 -0.7722 -0.4694
  156MOL   C16628376   0.887   6.276   1.101  0.0962  0.5970  0.5191
  156MOL   H16728377   1.003   6.425   0.902  2.5887  1.9922 -0.5849
  156MOL   H16828378   1.165   6.403   0.922 -0.1512 -0.3429 -0.8545
  156MOL   H16928379   1.108   6.275   1.149  2.5794 -1.3058 -2.8289
  156MOL   H17028380   0.834   6.302   1.009  2.5235  4.4642  0.0556
  156MOL   H17128381   0.842   6.181   1.129 -0.8235  1.2755  1.3693
  156MOL   H17228382   0.851   6.361   1.160 -0.0616 -1.9770  4.3028
  156MOL   C17328383   1.071   6.154   0.972 -0.1728  0.5092 -0.0182
  156MOL   C17428384   1.103   6.033   1.055  0.5738  0.0743  0.3312
  156MOL   C17528385   1.096   5.898   0.994  0.5744  0.0029  0.2513
  156MOL   H17628386   0.987   6.141   0.903 -1.0108 -2.3749  1.5037
  156MOL   H17728387   1.150   6.175   0.900 -1.1799 -0.3085 -1.3801
  156MOL   H17828388   1.039   6.032   1.143  0.7508 -1.5768  0.4579
  156MOL   H17928389   1.045   5.899   0.898 -0.5955 -1.0771  0.8419
  156MOL   H18028390   1.195   5.869   0.960  0.4846 -1.0405  0.8650
  156MOL   H18128391   1.058   5.832   1.072 -3.0587  1.2903 -0.3131
  156MOL   H18228392   1.207   6.031   1.087  0.7815 -0.5994 -0.3689
  157MOL     C128393   4.010   6.937   3.147  0.4765 -0.5284  0.7119
  157MOL     C228394   4.118   7.046   3.133  0.1971  0.3967  0.0575
  157MOL     C328395   4.261   6.981   3.134 -0.3036 -0.2292 -0.3201
  157MOL     H428396   4.018   6.873   3.234 -0.9772 -0.1022  1.1630
  157MOL     H528397   4.013   6.872   3.060  0.2896 -1.0904  1.1275
  157MOL     H628398   4.104   7.116   3.216  1.0535 -0.8248  1.2608
  157MOL     H728399   4.289   6.934   3.039  0.4675 -0.4730  0.0255
  157MOL     H828400   4.340   7.055   3.146 -1.1027  0.5320  0.3493
  157MOL     H928401   4.281   6.906   3.210 -4.2625 -0.0244  1.0506
  157MOL    H1028402   3.909   6.975   3.165  0.9887  0.9699  0.5619
  157MOL    C1128403   4.081   7.107   2.994  0.6965  0.9298  0.3941
  157MOL    C1228404   3.936   7.175   2.982  0.4307  0.4845  0.1200
  157MOL    C1328405   3.909   7.295   3.071 -0.5273  0.3649 -0.3235
  157MOL    H1428406   4.154   7.181   2.961 -0.1635  0.5637 -2.4577
  157MOL    H1528407   4.096   7.030   2.918 -2.0662  0.9695 -0.2568
  157MOL    H1628408   3.855   7.107   3.009  0.7107  0.2405  0.3638
  157MOL    H1728409   3.909   7.276   3.178 -1.5546 -0.0343 -0.3895
  157MOL    H1828410   3.977   7.379   3.052  0.0528 -0.1673 -0.6484
  157MOL    H1928411   3.811   7.336   3.051 -0.3569  0.3402 -1.2338
  157MOL    C2028412   3.909   7.230   2.843  0.0871  0.4036 -0.5765
  157MOL    C2128413   3.895   7.121   2.735 -0.2743 -0.1546 -0.0799
  157MOL    C2228414   3.826   6.990   2.777  0.3292  0.1845  0.0044
  157MOL    H2328415   3.821   7.293   2.839  0.5753  1.1393  0.0624
  157MOL    H2428416   3.982   7.300   2.803 -3.6445  2.9912 -3.0909
  157MOL    H2528417   3.997   7.098   2.706 -0.2813 -1.3340  0.7820
  157MOL    H2628418   3.881   6.938   2.856  0.0307  2.1134  1.5109
  157MOL    H2728419   3.727   7.011   2.818  1.1750  0.5019  1.9398
  157MOL    H2828420   3.819   6.932   2.685  1.7208 -0.5915  0.3682
  157MOL    C2928421   3.829   7.180   2.605  0.1026  0.0145 -0.2240
  157MOL    C3028422   3.917   7.268   2.517 -0.7593 -0.1786  0.8922
  157MOL    C3128423   4.011   7.190   2.423  0.5162  0.1581 -0.6230
  157MOL    H3228424   3.795   7.101   2.537 -0.0404 -0.5355  0.4795
  157MOL    H3328425   3.737   7.229   2.635 -0.0658 -0.2066 -0.3729
  157MOL    H3428426   3.987   7.332   2.573  2.8970 -2.5576 -0.7652
  157MOL    H3528427   4.073   7.113   2.469 -0.7413 -1.6801 -1.9608
  157MOL    H3628428   3.939   7.132   2.365  0.4164 -0.1624 -0.1778
  157MOL    H3728429   4.072   7.270   2.380 -0.7893  0.5309 -1.8102
  157MOL    C3828430   3.826   7.361   2.435  0.1371  0.4047  0.4946
  157MOL    C3928431   3.777   7.489   2.508 -0.5771 -0.0843  0.0583
  157MOL    C4028432   3.898   7.590   2.502  0.2165 -0.1052 -0.6883
  157MOL    H4128433   3.873   7.392   2.341  2.7559 -0.7430  1.3946
  157MOL    H4228434   3.746   7.294   2.403  0.6695  0.1341 -0.3064
  157MOL    H4328435   3.762   7.468   2.614  1.4113 -1.1621  0.1534
  157MOL    H4428436   3.931   7.618   2.403 -0.7806 -0.4897 -1.1380
  157MOL    H4528437   3.880   7.687   2.549  0.6851 -0.7053  0.7644
  157MOL    H4628438   3.978   7.554   2.566  0.9321 -1.8016 -2.5014
  157MOL    C4728439   3.648   7.547   2.448 -0.2252 -0.0712 -0.2172
  157MOL    C4828440   3.512   7.500   2.511 -0.0551  0.0794  0.2709
  157MOL    C4928441   3.509   7.535   2.664 -0.4783 -0.3091 -0.0428
  157MOL    H5028442   3.661   7.655   2.449 -0.8663  0.0750 -2.8558
  157MOL    H5128443   3.653   7.519   2.342  1.5939 -1.5861  0.2378
  157MOL    H5228444   3.500   7.391   2.511 -1.5085  0.2274 -0.8224
  157MOL    H5328445   3.534   7.641   2.673 -1.0975 -0.3142  2.3039
  157MOL    H5428446   3.412   7.524   2.713 -0.3250  0.2609  0.4008
  157MOL    H5528447   3.584   7.483   2.724 -0.4864 -0.1512  0.1073
  157MOL    C5628448   3.390   7.563   2.431 -0.3604  0.1366 -0.5496
  157MOL    C5728449   3.307   7.459   2.349 -0.1666 -0.3358  0.5982
  157MOL    C5828450   3.168   7.455   2.414 -0.4265 -0.0867  0.2105
  157MOL    H5928451   3.322   7.612   2.501  1.7252  0.4699  1.2907
  157MOL    H6028452   3.422   7.644   2.365 -0.7999  1.3881  0.7437
  157MOL    H6128453   3.364   7.366   2.355  1.3526  0.4774 -0.6185
  157MOL    H6228454   3.113   7.549   2.407 -1.2222 -0.5589 -0.0186
  157MOL    H6328455   3.114   7.375   2.364 -1.5979  1.1544 -0.5391
  157MOL    H6428456   3.182   7.424   2.518  1.8202  1.3693  0.3657
  157MOL    C6528457   3.287   7.487   2.204  0.2396  0.1996  0.4265
  157MOL    C6628458   3.421   7.504   2.118 -0.2192  0.4160  0.2588
  157MOL    C6728459   3.480   7.364   2.105 -0.4705  0.1729  0.4477
  157MOL    H6828460   3.230   7.408   2.157  1.8538 -1.1458  0.6871
  157MOL    H6928461   3.217   7.569   2.189  3.1143  2.7064 -0.0137
  157MOL    H7028462   3.494   7.572   2.163  0.9419  0.0405 -1.0223
  157MOL    H7128463   3.575   7.380   2.054  0.3570  2.8755  2.6432
  157MOL    H7228464   3.514   7.325   2.201 -0.9351  0.8078  0.8715
  157MOL    H7328465   3.420   7.289   2.055  1.8832 -0.3772 -1.6394
  157MOL    C7428466   3.394   7.560   1.977  0.7923 -0.2929 -0.3868
  157MOL    C7528467   3.348   0.014   1.974 -0.1186 -0.0672 -0.0927
  157MOL    C7628468   3.437   0.112   2.051  0.3711 -0.3275 -0.2424
  157MOL    H7728469   3.488   7.557   1.921  1.7798 -0.9146  1.2421
  157MOL    H7828470   3.319   7.500   1.927 -1.1138  1.2929  0.5266
  157MOL    H7928471   3.255   0.033   2.029 -0.2739  0.7356 -0.6252
  157MOL    H8028472   3.534   0.119   2.002 -0.2986  0.7992 -1.4265
  157MOL    H8128473   3.393   0.211   2.046 -0.8568 -0.8153  0.7239
  157MOL    H8228474   3.437   0.092   2.158 -0.7532 -0.0437 -0.1883
  157MOL    C8328475   3.332   0.048   1.824 -0.4574 -0.6290  0.0801
  157MOL    C8428476   3.280   0.186   1.788  0.5239 -0.5559  0.2346
  157MOL    C8528477   3.313   0.223   1.642 -1.0703 -0.4092  0.1883
  157MOL    H8628478   3.434   0.044   1.787  0.1907 -2.5898  1.9957
  157MOL    H8728479   3.272   7.673   1.768  0.0703 -0.5131 -0.6525
  157MOL    H8828480   3.336   0.252   1.854  0.2204 -1.2460  1.1961
  157MOL    H8928481   3.417   0.209   1.612 -0.5708  1.9063  0.6772
  157MOL    H9028482   3.246   0.183   1.566 -2.0082  2.3224 -0.5125
  157MOL    H9128483   3.295   0.330   1.626 -0.5719 -0.5973 -1.7421
  157MOL    C9228484   3.127   0.201   1.817 -0.2859 -0.0491  0.0361
  157MOL    C9328485   3.082   0.347   1.840 -0.0120  0.2246 -0.0597
  157MOL    C9428486   2.932   0.357   1.798  0.0220  0.3510  0.0258
  157MOL    H9528487   3.071   0.149   1.738  1.0399  1.0052 -1.6196
  157MOL    H9628488   3.091   0.154   1.909 -0.6492 -0.1299 -0.1469
  157MOL    H9728489   3.144   0.412   1.778  0.4789  0.1659  0.3666
  157MOL    H9828490   2.869   0.292   1.859  0.4593 -1.3504 -1.3101
  157MOL    H9928491   2.895   0.460   1.801 -2.2006 -0.3991 -0.6160
  157MOL   H10028492   2.909   0.314   1.701  0.4843 -0.3071  0.2049
  157MOL   C10128493   3.099   0.380   1.988  0.2304  0.0318  0.1313
  157MOL   C10228494   3.097   0.523   2.030 -0.3649 -1.0428  0.8457
  157MOL   C10328495   2.983   0.540   2.134 -0.5525 -0.2444 -0.0962
  157MOL   H10428496   3.023   0.315   2.033 -2.7349  3.7760  0.7915
  157MOL   H10528497   3.195   0.341   2.021 -1.3701 -1.5139  3.2571
  157MOL   H10628498   3.063   0.599   1.959  1.4404 -1.5677 -0.6096
  157MOL   H10728499   2.997   0.482   2.225 -1.5765  0.3043  0.4183
  157MOL   H10828500   2.958   0.645   2.153  0.6982 -0.1551  1.1336
  157MOL   H10928501   2.884   0.501   2.110  0.3635 -3.1226  0.6794
  157MOL   C11028502   3.235   0.564   2.083  0.0762 -0.2903 -0.0271
  157MOL   C11128503   3.352   0.574   1.978 -0.5805  0.0660 -0.4473
  157MOL   C11228504   3.333   0.704   1.889 -0.0663  0.4821  0.1854
  157MOL   H11328505   3.235   0.660   2.134 -0.5411  0.8087 -2.0357
  157MOL   H11428506   3.257   0.491   2.161  2.1324 -1.0790 -1.3130
  157MOL   H11528507   3.342   0.481   1.923 -1.1567  0.8464 -1.6985
  157MOL   H11628508   3.422   0.712   1.826 -0.0484  4.1433  0.5223
  157MOL   H11728509   3.250   0.684   1.822 -0.5166 -0.1999  0.9407
  157MOL   H11828510   3.329   0.800   1.941 -2.7506  0.2728  0.4064
  157MOL   C11928511   3.497   0.577   2.052  0.1698  0.8706  0.0452
  157MOL   C12028512   3.614   0.540   1.965 -0.7947 -0.1455  0.1488
  157MOL   C12128513   3.579   0.439   1.856  0.1459 -0.0629 -0.6393
  157MOL   H12228514   3.509   0.677   2.095 -1.3837  0.1162  2.3307
  157MOL   H12328515   3.495   0.512   2.139  1.9420 -0.1910 -0.6773
  157MOL   H12428516   3.688   0.481   2.019 -1.0825 -0.4870  0.1688
  157MOL   H12528517   3.514   0.494   1.787  3.1546  2.5888 -1.4449
  157MOL   H12628518   3.670   0.410   1.804 -0.7328 -1.6595 -1.3347
  157MOL   H12728519   3.530   0.351   1.898  1.0604  0.3972  1.4297
  157MOL   C12828520   3.691   0.664   1.905 -0.6783 -0.3379 -0.7067
  157MOL   C12928521   3.831   0.632   1.860  0.5535  0.3400  0.3554
  157MOL   C13028522   3.880   0.754   1.774 -0.0699 -0.0156  0.1907
  157MOL   H13128523   3.638   0.713   1.823  0.4167  0.0785 -1.1833
  157MOL   H13228524   3.716   0.736   1.983  0.1023  0.1904 -1.4272
  157MOL   H13328525   3.846   0.545   1.796  1.1817  1.7126 -1.4091
  157MOL   H13428526   3.831   0.766   1.678 -1.3465 -1.5045  0.6398
  157MOL   H13528527   3.872   0.848   1.829 -2.9767  0.7085 -1.3585
  157MOL   H13628528   3.986   0.738   1.755 -0.2370  0.7399 -1.3912
  157MOL   C13728529   3.921   0.623   1.985  0.2602 -0.1813 -0.1492
  157MOL   C13828530   4.057   0.557   1.952 -0.5046 -0.4054  0.9971
  157MOL   C13928531   4.172   0.599   2.058 -0.0893 -0.1318  0.2435
  157MOL   H14028532   3.938   0.720   2.030  1.2492 -0.0778 -0.7449
  157MOL   H14128533   3.897   0.555   2.067  1.1126  0.8622  0.9717
  157MOL   H14228534   4.089   0.604   1.859  1.5767 -0.9655  1.3944
  157MOL   H14328535   4.167   0.703   2.091 -0.0679 -0.9213  2.7702
  157MOL   H14428536   4.144   0.545   2.148  0.3694 -0.4187  0.2147
  157MOL   H14528537   4.275   0.575   2.034 -0.7658 -0.9572 -1.9973
  157MOL   C14628538   4.039   0.403   1.945  0.2055 -0.0886 -0.2854
  157MOL   C14728539   4.121   0.337   1.829 -0.3033  0.2478 -0.8451
  157MOL   C14828540   4.276   0.343   1.851 -0.4334  0.0231 -0.4481
  157MOL   H14928541   4.072   0.371   2.044 -1.5077  2.6136  1.2413
  157MOL   H15028542   3.936   0.368   1.943  0.1328 -0.1644  2.4687
  157MOL   H15128543   4.110   0.409   1.748  0.9195  1.6282  0.1911
  157MOL   H15228544   4.301   0.297   1.946  1.5006 -1.3825 -1.6149
  157MOL   H15328545   4.338   0.290   1.779  1.0214  0.4522  0.4652
  157MOL   H15428546   4.309   0.447   1.839 -0.5424  0.2974  1.4793
  157MOL   C15528547   4.081   0.193   1.789  0.0943  0.2820  0.1185
  157MOL   C15628548   3.954   0.171   1.705 -0.0670  0.1756 -0.2394
  157MOL   C15728549   3.951   0.241   1.571 -0.3977  1.0436 -0.0581
  157MOL   H15828550   4.166   0.134   1.755  0.4531 -0.5771  2.4213
  157MOL   H15928551   4.070   0.145   1.886 -1.0452  0.7180  0.2102
  157MOL   H16028552   3.874   0.214   1.765  2.1294  1.1560  2.0852
  157MOL   H16128553   3.854   0.220   1.526 -0.4819 -2.3098  1.5194
  157MOL   H16228554   3.966   0.347   1.592 -1.9250  0.9727  1.5000
  157MOL   H16328555   4.034   0.212   1.506 -0.8087  0.4338 -0.3212
  157MOL   C16428556   3.927   0.017   1.692  0.4004  0.3124  0.7608
  157MOL   C16528557   3.884   7.640   1.822 -0.3289 -0.3042  0.2127
  157MOL   C16628558   3.745   7.692   1.866  0.3104  0.6421  0.0514
  157MOL   H16728559   3.851   7.695   1.617  2.5136 -0.9099 -1.1315
  157MOL   H16828560   4.024   7.672   1.666 -0.4360 -0.8436 -0.5270
  157MOL   H16928561   3.956   7.654   1.902 -2.0650 -0.9871  1.9363
  157MOL   H17028562   3.669   7.693   1.789 -0.2311  0.1786  0.5713
  157MOL   H17128563   3.699   7.641   1.951 -0.4359 -0.1302 -0.8195
  157MOL   H17228564   3.746   0.100   1.894  0.6622  1.5926 -3.3829
  157MOL   C17328565   3.890   7.486   1.793 -0.4992 -0.0711 -1.1279
  157MOL   C17428566   3.901   7.395   1.918  0.0280  0.1508  0.8193
  157MOL   C17528567   3.888   7.246   1.879 -0.3968 -0.1830 -0.2974
  157MOL   H17628568   3.810   7.457   1.725 -0.2042 -0.5971 -1.2518
  157MOL   H17728569   3.979   7.473   1.731 -1.0919  0.2489 -2.0631
  157MOL   H17828570   3.820   7.421   1.987 -0.4801 -1.4871  0.8815
  157MOL   H17928571   3.792   7.207   1.846 -0.6288  0.2072 -0.0835
  157MOL   H18028572   3.968   7.221   1.808 -1.2257  1.7232 -1.9276
  157MOL   H18128573   3.909   7.187   1.969  1.7615 -1.2181 -1.4339
  157MOL   H18228574   3.982   7.406   1.990 -0.5176 -1.3002  1.7025
  158MOL     C128575   7.526   2.918   1.634 -0.3090  0.9896 -0.8049
  158MOL     C228576   7.416   2.815   1.584  0.2595 -0.2451  0.8934
  158MOL     C328577   7.358   2.722   1.689 -0.2236 -0.7621 -0.1606
  158MOL     H428578   7.610   2.866   1.680 -1.6690  1.9222  2.9850
  158MOL     H528579   7.492   2.978   1.718  1.8737 -0.8759  1.5024
  158MOL     H628580   7.468   2.736   1.530 -2.2425 -0.8220 -0.7506
  158MOL     H728581   7.262   2.676   1.665 -0.4177  0.4001 -1.6519
  158MOL     H828582   7.417   2.637   1.723 -1.3862 -1.3442  0.4705
  158MOL     H928583   7.351   2.787   1.776  4.1952  0.2316 -0.4395
  158MOL    H1028584   7.568   2.975   1.552 -0.4004  1.4837 -0.5084
  158MOL    C1128585   7.314   2.873   1.486 -0.1816  0.1164 -0.5182
  158MOL    C1228586   7.209   2.971   1.548 -0.0668  0.5317 -0.6349
  158MOL    C1328587   7.240   3.111   1.509  0.0339  0.8400  0.0398
  158MOL    H1428588   7.374   2.940   1.425 -0.0059  1.1879  0.8242
  158MOL    H1528589   7.262   2.798   1.425 -1.9809  1.7071 -0.9846
  158MOL    H1628590   7.220   2.959   1.655  0.3627 -2.0558 -0.9467
  158MOL    H1728591   7.346   3.129   1.525 -0.2141  2.1472  0.3142
  158MOL    H1828592   7.218   3.119   1.402 -0.8264  2.6322  0.3331
  158MOL    H1928593   7.181   3.184   1.565 -0.8129 -0.3943  0.7790
  158MOL    C2028594   7.057   2.953   1.517 -0.2744 -0.4730 -0.4416
  158MOL    C2128595   6.961   2.977   1.633 -0.0471  0.3432 -0.3592
  158MOL    C2228596   6.986   3.107   1.714  0.6469  0.1163  0.4020
  158MOL    H2328597   7.022   3.006   1.428 -0.1247 -0.2525 -0.3678
  158MOL    H2428598   7.043   2.848   1.490 -1.6209 -0.5171  0.4012
  158MOL    H2528599   6.971   2.899   1.708  3.0865  1.7759  0.8154
  158MOL    H2628600   7.070   3.094   1.781 -0.9096  1.5167  2.6817
  158MOL    H2728601   6.991   3.204   1.665  0.4844 -0.8967 -1.7009
  158MOL    H2828602   6.903   3.121   1.783  0.6306 -0.7765  0.5660
  158MOL    C2928603   6.814   2.974   1.586  0.4396 -0.2390  0.0568
  158MOL    C3028604   6.759   2.834   1.527  0.6058 -0.3300  0.5663
  158MOL    C3128605   6.719   2.742   1.650  0.2076  0.0808 -0.4377
  158MOL    H3228606   6.745   3.006   1.665  0.3477  0.0515 -0.1441
  158MOL    H3328607   6.821   3.059   1.518 -0.3560 -0.0094  0.2523
  158MOL    H3428608   6.829   2.783   1.461 -0.7850 -1.2548 -0.2223
  158MOL    H3528609   6.817   2.719   1.692  0.6138  1.3440 -0.6812
  158MOL    H3628610   6.654   2.798   1.719 -1.0687 -0.3348 -1.2783
  158MOL    H3728611   6.670   2.653   1.610  1.9998 -1.2189  0.2199
  158MOL    C3828612   6.626   2.850   1.435 -0.2990 -0.6114  0.0734
  158MOL    C3928613   6.639   2.939   1.312  0.4000 -0.3538 -0.4013
  158MOL    C4028614   6.745   2.888   1.221  0.1832 -0.6170  0.0459
  158MOL    H4128615   6.612   2.752   1.388  3.0644 -1.7580  1.3222
  158MOL    H4228616   6.532   2.867   1.487 -0.7996  0.9961 -1.2919
  158MOL    H4328617   6.677   3.036   1.347 -0.7232 -0.5855  1.5859
  158MOL    H4428618   6.732   2.784   1.191  1.7648 -0.9558  0.4773
  158MOL    H4528619   6.757   2.947   1.130 -2.8393 -0.9173 -0.5938
  158MOL    H4628620   6.844   2.901   1.264  0.8733 -0.0000 -1.7042
  158MOL    C4728621   6.508   2.973   1.239  0.5581 -0.8085 -0.2344
  158MOL    C4828622   6.519   3.084   1.128  0.2055  0.3184  0.7038
  158MOL    C4928623   6.384   3.101   1.057 -1.0550 -0.3227 -0.3229
  158MOL    H5028624   6.462   2.883   1.198  0.9655 -1.0157 -0.2306
  158MOL    H5128625   6.430   3.013   1.304  0.6669  0.7353 -1.0252
  158MOL    H5228626   6.584   3.045   1.050  0.2010 -0.2298  0.9701
  158MOL    H5328627   6.391   3.174   0.976 -3.2653  1.0968  0.6985
  158MOL    H5428628   6.351   3.011   1.006  2.2653 -2.5378  1.2084
  158MOL    H5528629   6.301   3.133   1.121 -1.4369  2.3885 -2.0852
  158MOL    C5628630   6.566   3.225   1.169  0.1980 -0.9479 -0.0194
  158MOL    C5728631   6.716   3.266   1.156  0.1987 -0.6563 -0.0607
  158MOL    C5828632   6.762   3.281   1.008 -0.1916  0.0137 -0.2276
  158MOL    H5928633   6.510   3.299   1.113  1.1483 -0.1760  0.0442
  158MOL    H6028634   6.536   3.241   1.273 -2.0776 -1.9109 -0.4949
  158MOL    H6128635   6.786   3.193   1.195  2.5858  1.1031 -0.8905
  158MOL    H6228636   6.703   3.353   0.952 -2.0054 -1.4536 -0.2578
  158MOL    H6328637   6.862   3.320   0.994  0.8869 -3.1897 -1.9227
  158MOL    H6428638   6.748   3.187   0.955 -1.2046  0.4484 -0.7478
  158MOL    C6528639   6.734   3.402   1.223 -0.8691 -0.3299 -0.0337
  158MOL    C6628640   6.837   3.393   1.334  0.1649  0.2875 -0.0022
  158MOL    C6728641   6.982   3.398   1.281  0.1592 -0.2298  0.7091
  158MOL    H6828642   6.745   3.493   1.164 -0.0706 -1.4836 -1.6760
  158MOL    H6928643   6.640   3.423   1.275 -2.1919 -1.7270 -1.7910
  158MOL    H7028644   6.842   3.293   1.377  1.7179  0.2105 -0.3197
  158MOL    H7128645   7.021   3.500   1.268 -1.8630  0.2746 -1.7064
  158MOL    H7228646   7.050   3.351   1.352  1.3191  0.1877 -0.1124
  158MOL    H7328647   6.989   3.350   1.183 -1.3641 -0.7719  0.8502
  158MOL    C7428648   6.829   3.494   1.452  0.0708  0.2216  0.5095
  158MOL    C7528649   6.704   3.495   1.538 -0.3308  0.5869 -0.6743
  158MOL    C7628650   6.715   3.394   1.652  0.7854 -0.6345 -0.1268
  158MOL    H7728651   6.916   3.486   1.517  0.2806  0.6532  0.2820
  158MOL    H7828652   6.829   3.588   1.396  0.1565 -0.0571  0.0371
  158MOL    H7928653   6.614   3.467   1.485 -1.2246 -0.9033  1.5418
  158MOL    H8028654   6.819   3.381   1.681  1.9032  2.5989 -2.3447
  158MOL    H8128655   6.641   3.394   1.731 -0.1384  1.0964 -0.9761
  158MOL    H8228656   6.694   3.293   1.617  0.6437 -0.5364 -0.3258
  158MOL    C8328657   6.679   3.637   1.595 -0.0834 -0.9412  0.2982
  158MOL    C8428658   6.636   3.748   1.493  0.3855 -0.3720 -0.0693
  158MOL    C8528659   6.533   3.706   1.382 -0.5103 -0.2627 -0.1492
  158MOL    H8628660   6.601   3.632   1.671 -0.6608 -0.6069 -0.2615
  158MOL    H8728661   6.771   3.673   1.642 -0.3799  1.0720 -0.5898
  158MOL    H8828662   6.725   3.762   1.432  0.2585 -0.1221 -0.1957
  158MOL    H8928663   6.512   3.784   1.308  2.6257 -0.7983 -1.6744
  158MOL    H9028664   6.581   3.634   1.317  1.1668 -0.4876  1.2899
  158MOL    H9128665   6.448   3.668   1.439 -0.1516 -1.5908 -0.4951
  158MOL    C9228666   6.599   3.866   1.574 -0.4621 -0.6810 -0.3926
  158MOL    C9328667   6.594   3.999   1.499  0.5695  0.0399  1.0260
  158MOL    C9428668   6.495   4.094   1.572 -0.6284  0.2118 -1.2493
  158MOL    H9528669   6.501   3.843   1.616 -0.4165  0.8944  0.6158
  158MOL    H9628670   6.668   3.880   1.657 -0.8035 -2.2233  0.1643
  158MOL    H9728671   6.545   3.972   1.406  0.1159  2.5080  0.5377
  158MOL    H9828672   6.395   4.050   1.569  0.2657 -1.9503 -0.2727
  158MOL    H9928673   6.528   4.100   1.676  1.0832  0.4029 -1.7939
  158MOL   H10028674   6.485   4.198   1.540  0.5455  1.4227  2.0831
  158MOL   C10128675   6.735   4.063   1.490 -0.8307 -0.9765 -0.1295
  158MOL   C10228676   6.754   4.159   1.360  0.2839 -0.0586 -0.0795
  158MOL   C10328677   6.809   4.299   1.391 -0.5462 -0.4436 -0.9625
  158MOL   H10428678   6.754   4.113   1.586  0.7190 -1.4124 -0.1926
  158MOL   H10528679   6.820   3.995   1.491  0.5536  0.6885 -0.5198
  158MOL   H10628680   6.653   4.176   1.322  0.4632  2.2570  0.3754
  158MOL   H10728681   6.825   4.370   1.309  0.4020  1.7466  1.0482
  158MOL   H10828682   6.743   4.355   1.458 -1.1648 -0.1884 -1.7792
  158MOL   H10928683   6.895   4.306   1.458 -0.8374 -0.1474 -0.6155
  158MOL   C11028684   6.827   4.082   1.246 -0.0534  0.7766 -0.0888
  158MOL   C11128685   6.831   4.149   1.108  0.0407  0.9845  0.2305
  158MOL   C11228686   6.966   4.230   1.096 -0.1313  0.2262 -0.1055
  158MOL   H11328687   6.929   4.061   1.276 -0.1129  0.8033  0.1345
  158MOL   H11428688   6.771   3.990   1.231 -0.7567  0.9269  1.4953
  158MOL   H11528689   6.742   4.212   1.096 -0.1357  0.9195  1.1349
  158MOL   H11628690   6.964   4.311   1.023 -0.5303  2.6250  2.4585
  158MOL   H11728691   6.986   4.268   1.196 -0.6901  0.6103 -0.1379
  158MOL   H11828692   7.044   4.157   1.071  0.8081  1.2204 -0.1289
  158MOL   C11928693   6.825   4.050   0.988 -0.3309 -0.0836  0.0355
  158MOL   C12028694   6.679   3.987   0.955  0.4837 -0.9919  0.5247
  158MOL   C12128695   6.590   4.093   0.894  0.2943 -0.0846 -0.0705
  158MOL   H12228696   6.847   4.099   0.893  2.4383 -3.8054 -1.3655
  158MOL   H12328697   6.904   3.976   0.999 -0.3543  0.1489  1.9284
  158MOL   H12428698   6.638   3.948   1.048  0.3523  0.1927  0.9605
  158MOL   H12528699   6.607   4.194   0.931 -0.6705  0.0645 -0.0333
  158MOL   H12628700   6.619   4.111   0.790 -0.9175  1.2909 -0.1838
  158MOL   H12728701   6.486   4.064   0.909  0.5514 -1.8250 -1.5486
  158MOL   C12828702   6.690   3.870   0.859  0.8309  0.8288  0.7068
  158MOL   C12928703   6.561   3.796   0.830  0.4688 -0.5221 -0.5844
  158MOL   C13028704   6.563   3.707   0.711  0.5252  0.0875 -0.3428
  158MOL   H13128705   6.743   3.891   0.766 -1.3755  2.4550 -0.2396
  158MOL   H13228706   6.759   3.800   0.906  0.1857  0.4142  1.0333
  158MOL   H13328707   6.488   3.875   0.813  0.0153 -1.0078 -0.9174
  158MOL   H13428708   6.606   3.612   0.740 -1.1242  0.0673  2.1639
  158MOL   H13528709   6.460   3.698   0.676  0.3694  2.4352 -0.5918
  158MOL   H13628710   6.627   3.749   0.633  0.8747  1.9332  0.8920
  158MOL   C13728711   6.508   3.729   0.959 -0.3281  0.1839 -0.2352
  158MOL   C13828712   6.371   3.660   0.950  0.3752 -0.4639  0.5610
  158MOL   C13928713   6.392   3.507   0.964  0.6361 -0.0828 -0.2153
  158MOL   H14028714   6.585   3.656   0.985 -0.0917  0.3496 -0.4762
  158MOL   H14128715   6.507   3.795   1.046  1.5307 -1.5738  1.1897
  158MOL   H14228716   6.328   3.688   0.854 -2.2923  1.1754  2.1777
  158MOL   H14328717   6.447   3.468   0.879  1.1571 -1.3174  0.6882
  158MOL   H14428718   6.440   3.499   1.061 -1.2698 -1.8356  0.6098
  158MOL   H14528719   6.301   3.447   0.967 -0.6665  1.8961  0.9958
  158MOL   C14628720   6.269   3.722   1.048 -0.2760 -0.3387 -0.1776
  158MOL   C14728721   6.199   3.862   1.012  0.6804 -0.2130 -0.0757
  158MOL   C14828722   6.089   3.836   0.917  1.1707  0.0066  0.9181
  158MOL   H14928723   6.195   3.642   1.058  0.5352 -1.3281 -1.7608
  158MOL   H15028724   6.302   3.718   1.151 -0.6059 -2.2135 -0.1117
  158MOL   H15128725   6.277   3.913   0.955 -0.5518 -1.8957 -3.4228
  158MOL   H15228726   6.049   3.932   0.886  0.4719  0.2480  2.5235
  158MOL   H15328727   6.129   3.778   0.834  2.2599 -0.4364  1.7238
  158MOL   H15428728   6.008   3.773   0.954 -0.7096  2.5860  1.2633
  158MOL   C15528729   6.134   3.939   1.130  0.2112 -0.6091 -0.2095
  158MOL   C15628730   6.223   3.980   1.254 -0.0721 -0.0332 -0.1996
  158MOL   C15728731   6.322   4.086   1.207  0.0548 -0.0748 -0.7308
  158MOL   H15828732   6.093   4.031   1.089  1.5923  1.0329  1.9620
  158MOL   H15928733   6.050   3.878   1.163 -1.7530  1.5748 -1.0305
  158MOL   H16028734   6.285   3.894   1.279 -0.4334 -0.4458 -0.6907
  158MOL   H16128735   6.374   4.039   1.124 -0.0118  1.4144 -1.6470
  158MOL   H16228736   6.267   4.174   1.173 -0.6681 -0.3496 -0.2891
  158MOL   H16328737   6.400   4.120   1.275  0.2142  0.6716 -1.2742
  158MOL   C16428738   6.139   4.019   1.376 -0.3826 -0.4493 -0.3421
  158MOL   C16528739   6.056   3.897   1.434  0.3077 -0.6156 -0.2034
  158MOL   C16628740   6.137   3.768   1.456  0.3946  0.4964  0.3723
  158MOL   H16728741   6.204   4.047   1.459 -2.4810 -1.4806  1.7269
  158MOL   H16828742   6.071   4.103   1.361 -0.2027  0.0046  1.2485
  158MOL   H16928743   5.974   3.872   1.366  1.8623 -1.5857 -1.7588
  158MOL   H17028744   6.228   3.790   1.512  1.5347  2.2887 -2.1002
  158MOL   H17128745   6.073   3.708   1.521 -0.5938  0.7452 -0.3559
  158MOL   H17228746   6.165   3.708   1.369  0.8393 -0.0909  0.9195
  158MOL   C17328747   5.982   3.930   1.568 -0.3740  0.0778  0.3725
  158MOL   C17428748   5.899   4.062   1.569  0.0569 -0.1725 -0.4280
  158MOL   C17528749   5.830   4.081   1.707  0.4097 -0.3318 -0.4445
  158MOL   H17628750   5.915   3.845   1.587  1.0506 -0.9708  0.8344
  158MOL   H17728751   6.045   3.933   1.657 -0.6186 -0.2016  0.5575
  158MOL   H17828752   5.823   4.067   1.491  0.6240 -1.7730 -1.1087
  158MOL   H17928753   5.898   4.089   1.792  0.3031 -1.7431 -0.2129
  158MOL   H18028754   5.775   4.175   1.716 -1.1076 -1.3692  1.6165
  158MOL   H18128755   5.752   4.010   1.735  1.0952 -0.4917  1.1292
  158MOL   H18228756   5.979   4.133   1.548  0.7869 -0.3159  1.7171
  159MOL     C128757   6.677   1.259   0.029  0.1745 -0.5053 -0.1111
  159MOL     C228758   6.702   1.387   7.656  1.1022 -0.2379 -0.4139
  159MOL     C328759   6.681   1.368   7.505  0.2193 -0.4898  0.5676
  159MOL     H428760   6.570   1.237   0.023  0.1843 -0.3439 -0.9272
  159MOL     H528761   6.727   1.261   0.126 -2.0035 -0.9688  1.0637
  159MOL     H628762   6.808   1.412   7.666  1.1611 -0.3635 -0.7240
  159MOL     H728763   6.712   1.460   7.455 -0.5186 -0.4581  0.1656
  159MOL     H828764   6.738   1.286   7.463  0.7128  1.4768 -2.7906
  159MOL     H928765   6.575   1.356   7.481  0.5623 -2.0556 -0.1763
  159MOL    H1028766   6.712   1.171   7.673 -1.5237 -0.2763 -1.6589
  159MOL    C1128767   6.614   1.495   0.022 -0.1747 -0.5608 -0.3779
  159MOL    C1228768   6.666   1.545   0.159 -0.0469  0.4137 -0.1283
  159MOL    C1328769   6.805   1.621   0.145  0.4960  0.3115  0.4235
  159MOL    H1428770   6.610   1.580   7.651  0.8274 -1.4948 -1.6341
  159MOL    H1528771   6.507   1.474   0.023 -0.6180  1.6352  0.1813
  159MOL    H1628772   6.679   1.458   0.223 -0.7168  1.0111  0.8301
  159MOL    H1728773   6.878   1.556   0.097 -0.0272  0.6846 -0.9138
  159MOL    H1828774   6.802   1.707   0.078 -2.0661 -0.1195 -0.0406
  159MOL    H1928775   6.847   1.647   0.243 -1.9518 -0.7608  1.7979
  159MOL    C2028776   6.565   1.642   0.234 -0.0445  0.1926  0.0878
  159MOL    C2128777   6.520   1.601   0.379  0.0959 -0.4315 -0.6743
  159MOL    C2228778   6.638   1.573   0.479  1.0645 -0.9311 -0.0934
  159MOL    H2328779   6.601   1.744   0.221  0.0895  0.1088 -0.1815
  159MOL    H2428780   6.478   1.649   0.169  0.3663  0.8144 -0.3878
  159MOL    H2528781   6.471   1.506   0.362 -0.5215 -0.2316 -0.0030
  159MOL    H2628782   6.681   1.478   0.447 -1.8103 -2.1303 -0.6155
  159MOL    H2728783   6.704   1.659   0.463 -0.9737  0.2680 -2.4293
  159MOL    H2828784   6.616   1.573   0.585  1.7319 -0.6840  0.0441
  159MOL    C2928785   6.412   1.699   0.434 -0.6087 -0.1402 -0.3390
  159MOL    C3028786   6.271   1.673   0.382 -0.2640  0.0655 -0.1605
  159MOL    C3128787   6.211   1.560   0.469 -0.0629 -0.0464 -0.1849
  159MOL    H3228788   6.415   1.694   0.543 -1.2566  0.8865 -0.2662
  159MOL    H3328789   6.442   1.803   0.424  0.9457 -0.6419 -0.9560
  159MOL    H3428790   6.278   1.624   0.285 -0.6560  1.1427 -0.7351
  159MOL    H3528791   6.269   1.468   0.465  0.9766  0.5557  0.6751
  159MOL    H3628792   6.193   1.583   0.574  1.3203  0.5265 -0.0634
  159MOL    H3728793   6.115   1.538   0.423 -2.2033  0.8366  3.5973
  159MOL    C3828794   6.179   1.791   0.381  0.4733 -0.4156  0.2531
  159MOL    C3928795   6.044   1.779   0.298 -0.0371 -0.2616  0.6116
  159MOL    C4028796   5.940   1.891   0.323 -0.3740 -0.7395 -0.4221
  159MOL    H4128797   6.140   1.811   0.481 -0.4478 -0.6896 -0.0415
  159MOL    H4228798   6.226   1.882   0.344 -0.0672 -0.3120 -0.1834
  159MOL    H4328799   5.991   1.689   0.326  0.9495 -0.9513  0.3177
  159MOL    H4428800   5.979   1.991   0.304 -0.0846 -0.8778 -0.5479
  159MOL    H4528801   5.844   1.870   0.275 -0.1405  1.0279 -1.7435
  159MOL    H4628802   5.921   1.886   0.430  0.3427 -0.1255 -0.2637
  159MOL    C4728803   6.072   1.778   0.148 -0.1554 -0.9081 -0.5123
  159MOL    C4828804   5.956   1.719   0.063  0.7453 -0.3367 -0.0933
  159MOL    C4928805   5.908   1.800   7.638  0.5654  0.3811  0.1591
  159MOL    H5028806   6.105   1.877   0.117 -2.1089 -0.4399 -1.1776
  159MOL    H5128807   6.157   1.718   0.117  0.3379 -1.0899  1.1802
  159MOL    H5228808   5.868   1.722   0.127 -1.2444  1.1575 -2.7781
  159MOL    H5328809   5.808   1.769   7.606  0.5430 -0.7287  1.2628
  159MOL    H5428810   5.908   1.907   7.656 -0.8489  0.3016  0.6341
  159MOL    H5528811   5.952   1.753   7.549 -1.2546 -1.4301  0.1666
  159MOL    C5628812   5.972   1.574   0.012 -0.1868 -0.2581  0.0753
  159MOL    C5728813   5.970   1.457   0.111 -0.8764  0.0496  0.5138
  159MOL    C5828814   5.830   1.442   0.189  0.3513  0.2367  0.4057
  159MOL    H5928815   5.897   1.556   7.633  1.2870  1.8997 -1.9412
  159MOL    H6028816   6.071   1.572   7.664 -0.5061  0.0085 -0.6345
  159MOL    H6128817   6.049   1.473   0.185  1.2344 -0.6627 -1.5249
  159MOL    H6228818   5.821   1.519   0.265 -0.3613  0.6725 -0.1067
  159MOL    H6328819   5.749   1.453   0.117  0.0161  1.8494  1.0111
  159MOL    H6428820   5.811   1.345   0.236 -0.8348  0.5644  0.6159
  159MOL    C6528821   6.009   1.331   0.032  0.4825 -0.2166 -0.5905
  159MOL    C6628822   6.160   1.302   0.028 -0.0808 -0.0417  0.1179
  159MOL    C6728823   6.206   1.247   0.164  0.0079 -0.3148 -0.3409
  159MOL    H6828824   5.973   1.238   0.075 -1.1183  0.5436 -0.2461
  159MOL    H6928825   5.973   1.342   7.627 -1.5746  0.2207  0.1503
  159MOL    H7028826   6.205   1.400   0.015  1.2767 -0.3513  2.2793
  159MOL    H7128827   6.315   1.249   0.170 -0.1649  1.2085  4.4224
  159MOL    H7228828   6.168   1.310   0.245 -1.1182  1.8520 -2.4975
  159MOL    H7328829   6.164   1.148   0.183  1.2282 -1.0009 -1.2013
  159MOL    C7428830   6.196   1.210   7.605  0.2419  0.3561 -0.2771
  159MOL    C7528831   6.184   1.259   7.458  0.3558  0.0223  0.6556
  159MOL    C7628832   6.220   1.419   7.443  1.0120  0.0680 -0.2780
  159MOL    H7728833   6.296   1.167   7.611  0.9127  1.3298 -3.5463
  159MOL    H7828834   6.134   1.121   7.614  0.3132  0.1899 -1.4100
  159MOL    H7928835   6.080   1.263   7.425 -0.2225  0.9908  2.5261
  159MOL    H8028836   6.132   1.469   7.483  2.4220  0.4750  2.3861
  159MOL    H8128837   6.301   1.460   7.503 -0.7229  1.0715  1.4182
  159MOL    H8228838   6.255   1.445   7.343  1.8960  0.6043  0.1645
  159MOL    C8328839   6.264   1.175   7.358  0.4957  0.3780 -0.4913
  159MOL    C8428840   6.215   1.029   7.340  0.0092  0.0478 -0.5475
  159MOL    C8528841   6.095   1.020   7.245 -0.0502 -0.0747 -0.1755
  159MOL    H8628842   6.261   1.217   7.257  1.2841  1.0817 -0.2315
  159MOL    H8728843   6.367   1.182   7.392  0.8457  0.8568 -1.6386
  159MOL    H8828844   6.169   0.993   7.432 -0.9543  1.5772 -0.4109
  159MOL    H8928845   6.024   1.095   7.278 -1.8001 -1.5862 -0.3990
  159MOL    H9028846   6.114   1.048   7.141  1.1776 -2.0809 -0.5214
  159MOL    H9128847   6.034   0.930   7.253 -0.4449  0.0123 -2.0219
  159MOL    C9228848   6.327   0.935   7.298  0.4766  0.2076  0.6342
  159MOL    C9328849   6.324   0.784   7.328 -0.5461  0.3657  0.0513
  159MOL    C9428850   6.232   0.706   7.233 -0.3125  0.0794  0.0561
  159MOL    H9528851   6.336   0.952   7.191 -0.6593 -0.3795  0.4326
  159MOL    H9628852   6.418   0.975   7.342 -0.3760  3.3110 -0.2768
  159MOL    H9728853   6.287   0.780   7.430  0.0048  1.0322  0.2801
  159MOL    H9828854   6.261   0.721   7.129  0.9307  2.7485  0.7495
  159MOL    H9928855   6.228   0.599   7.255 -0.2168 -0.0220 -0.4309
  159MOL   H10028856   6.133   0.745   7.257 -0.6261 -1.2731  1.0262
  159MOL   C10128857   6.464   0.713   7.325  0.1188 -0.7744  0.0016
  159MOL   C10228858   6.542   0.725   7.190  0.4346 -0.2099 -0.0187
  159MOL   C10328859   6.687   0.780   7.220 -0.1802 -0.0321  0.4345
  159MOL   H10428860   6.520   0.761   7.406 -0.1699 -0.6056  0.1026
  159MOL   H10528861   6.464   0.608   7.354  1.6761 -1.0952 -1.1286
  159MOL   H10628862   6.498   0.803   7.128  1.0335  1.2291  1.3370
  159MOL   H10728863   6.747   0.787   7.130  0.6350 -0.9121  0.8988
  159MOL   H10828864   6.673   0.876   7.269  0.0034  0.1854  0.0593
  159MOL   H10928865   6.742   0.711   7.283  1.6130  0.9383 -0.0502
  159MOL   C11028866   6.532   0.580   7.119  0.1701 -0.4355 -0.4225
  159MOL   C11128867   6.554   0.576   6.968  0.3930  0.2396 -0.2830
  159MOL   C11228868   6.700   0.542   6.932 -0.4838  0.2076 -0.0659
  159MOL   H11328869   6.610   0.522   7.169  0.2728  0.0701  0.0108
  159MOL   H11428870   6.433   0.538   7.138 -0.8913  0.8123 -2.9705
  159MOL   H11528871   6.546   0.679   6.935  1.6907  0.9090  1.4578
  159MOL   H11628872   6.729   0.540   6.827  2.5826  3.2661  0.6281
  159MOL   H11728873   6.768   0.618   6.971  0.7076 -1.8376  1.9341
  159MOL   H11828874   6.736   0.447   6.971  0.2928 -0.0077 -1.2773
  159MOL   C11928875   6.468   0.497   6.873 -0.7004  0.4246 -0.1094
  159MOL   C12028876   6.323   0.532   6.865  1.1770 -0.5987  0.1166
  159MOL   C12128877   6.307   0.669   6.791 -0.2302 -0.0975 -0.1118
  159MOL   H12228878   6.519   0.500   6.777 -0.5914 -0.7187 -0.1020
  159MOL   H12328879   6.472   0.395   6.913  1.5798 -0.0218 -1.3763
  159MOL   H12428880   6.287   0.530   6.968  2.5046 -0.3550  0.5920
  159MOL   H12528881   6.201   0.689   6.770 -0.1699 -0.6435 -0.9853
  159MOL   H12628882   6.339   0.748   6.859  1.3012 -0.4331 -0.4200
  159MOL   H12728883   6.368   0.668   6.701 -0.3327  0.5362 -0.1883
  159MOL   C12828884   6.247   0.421   6.799 -2.0078  0.1371  0.3388
  159MOL   C12928885   6.090   0.438   6.816 -0.0938 -0.1690  0.1311
  159MOL   C13028886   6.005   0.441   6.679 -0.1585 -0.1512 -0.3198
  159MOL   H13128887   6.277   0.403   6.696  0.2201 -1.2439  1.1698
  159MOL   H13228888   6.279   0.327   6.845 -0.3475  0.2244 -0.6027
  159MOL   H13328889   6.071   0.537   6.857 -0.0157  0.0858 -0.4433
  159MOL   H13428890   6.013   0.342   6.635 -0.7406  0.1986 -1.2418
  159MOL   H13528891   5.898   0.461   6.685 -0.1064  0.7442 -1.9026
  159MOL   H13628892   6.049   0.518   6.614 -1.8867  2.2182  1.2292
  159MOL   C13728893   6.025   0.347   6.918 -0.0927 -0.4463 -0.0939
  159MOL   C13828894   6.053   0.374   7.069 -0.2490 -0.0659 -0.2407
  159MOL   C13928895   5.942   0.453   7.131  0.7001 -0.7962  0.0573
  159MOL   H14028896   5.918   0.339   6.901 -0.2287  1.0343 -0.0442
  159MOL   H14128897   6.049   0.244   6.895 -1.6607 -0.4861 -1.6066
  159MOL   H14228898   6.150   0.422   7.064  1.3375 -2.8682  1.8724
  159MOL   H14328899   5.962   0.482   7.234  1.8007  0.9377 -0.6243
  159MOL   H14428900   5.930   0.540   7.067 -1.6446  0.8053  2.5718
  159MOL   H14528901   5.848   0.399   7.139  0.7059 -0.6155  1.5789
  159MOL   C14628902   6.077   0.239   7.152 -0.2611 -1.4053  0.0101
  159MOL   C14728903   6.207   0.249   7.233 -0.0269 -0.0661  0.3041
  159MOL   C14828904   6.176   0.331   7.360 -0.3564  0.4163  0.2307
  159MOL   H14928905   5.988   0.215   7.211  0.3439 -0.9395  1.1346
  159MOL   H15028906   6.084   0.163   7.074  0.8779  0.2990 -1.5699
  159MOL   H15128907   6.282   0.300   7.173  0.1235 -0.1640  0.4079
  159MOL   H15228908   6.133   0.427   7.333 -2.1825 -0.6022 -0.5148
  159MOL   H15328909   6.103   0.273   7.416  0.8334 -0.6261  0.7225
  159MOL   H15428910   6.260   0.374   7.416  0.4708  0.4299 -1.0035
  159MOL   C15528911   6.260   0.111   7.283  0.3517 -0.0496 -0.6327
  159MOL   C15628912   6.393   0.104   7.360  0.4446 -0.2216 -0.7586
  159MOL   C15728913   6.417   7.655   7.409  0.0657  0.4425  0.3086
  159MOL   H15828914   6.181   0.063   7.341  0.1650  0.5262 -0.4076
  159MOL   H15928915   6.268   0.049   7.194 -1.9510  1.8274 -2.1992
  159MOL   H16028916   6.383   0.172   7.444  1.0911 -0.5101 -0.4404
  159MOL   H16128917   6.328   7.596   7.429  0.8694 -0.2701  1.8500
  159MOL   H16228918   6.448   7.605   7.318  0.4861  0.2798  0.5404
  159MOL   H16328919   6.495   7.662   7.485 -1.1423  0.3391  1.5706
  159MOL   C16428920   6.513   0.153   7.272 -0.0797 -0.5494  0.5201
  159MOL   C16528921   6.645   0.172   7.351  0.4290  0.8001  0.6997
  159MOL   C16628922   6.755   0.115   7.257 -0.7359 -0.5149  0.4352
  159MOL   H16728923   6.528   0.081   7.191  2.4778  1.2220 -0.6435
  159MOL   H16828924   6.488   0.234   7.203  0.0683 -1.2397 -0.3612
  159MOL   H16928925   6.652   0.112   7.441  0.0726 -1.9318 -1.0454
  159MOL   H17028926   6.737   0.008   7.250 -0.5198 -0.4761 -0.7556
  159MOL   H17128927   6.742   0.149   7.154 -0.2292 -1.5435  0.0225
  159MOL   H17228928   6.852   0.149   7.291 -0.7179 -1.7029  1.6303
  159MOL   C17328929   6.675   0.319   7.384 -0.4698  0.1909 -0.3304
  159MOL   C17428930   6.776   0.333   7.502  0.5663 -0.0486  0.5468
  159MOL   C17528931   6.824   0.477   7.518 -0.1442 -0.6723  0.3440
  159MOL   H17628932   6.710   0.369   7.294  2.3293 -2.0983 -0.5965
  159MOL   H17728933   6.580   0.364   7.411 -0.8536  0.3562 -1.9446
  159MOL   H17828934   6.869   0.280   7.480  1.6331  0.9623  2.4253
  159MOL   H17928935   6.742   0.547   7.532  0.3488  0.1016 -0.6201
  159MOL   H18028936   6.903   0.486   7.593 -0.4845 -0.6116  0.7002
  159MOL   H18128937   6.868   0.509   7.424 -0.0862  1.1811  0.9806
  159MOL   H18228938   6.730   0.308   7.598  0.7802 -1.0400  0.3987
  160MOL     C128939   3.766   1.971   5.841 -0.5410 -0.3817  0.1426
  160MOL     C228940   3.814   2.029   5.706 -0.7076 -0.6370  0.2403
  160MOL     C328941   3.710   1.990   5.592  0.1172 -0.5493 -0.0555
  160MOL     H428942   3.753   1.864   5.825 -0.6959 -0.4747  0.8874
  160MOL     H528943   3.669   2.012   5.867 -0.2790  0.1624  0.2690
  160MOL     H628944   3.900   1.969   5.677  0.6215  1.2371  0.2028
  160MOL     H728945   3.662   1.893   5.602 -2.2444  0.6529  0.7095
  160MOL     H828946   3.632   2.066   5.599  1.0529  0.2910  1.6176
  160MOL     H928947   3.764   1.989   5.498  1.8868 -1.4180  0.9481
  160MOL    H1028948   3.834   1.991   5.924  1.8468 -0.2233 -1.7871
  160MOL    C1128949   3.857   2.182   5.704  0.6338 -0.5480 -0.4142
  160MOL    C1228950   3.893   2.240   5.570 -0.0992 -0.4469 -0.0922
  160MOL    C1328951   3.890   2.391   5.576 -0.3459  0.5625 -0.5625
  160MOL    H1428952   3.775   2.238   5.748  1.1216 -1.7746  2.1567
  160MOL    H1528953   3.931   2.180   5.784  1.4970 -0.2510 -1.1891
  160MOL    H1628954   3.822   2.220   5.489 -1.5207 -1.7546  1.4572
  160MOL    H1728955   3.944   2.436   5.660 -1.6198  1.3719 -0.1774
  160MOL    H1828956   3.926   2.433   5.482 -1.2220  0.6828 -0.8413
  160MOL    H1928957   3.792   2.434   5.594 -1.2241 -1.8569  0.7377
  160MOL    C2028958   4.029   2.200   5.517 -0.1055 -0.1921 -0.0787
  160MOL    C2128959   4.034   2.206   5.364  0.2798 -0.1702  0.6306
  160MOL    C2228960   4.169   2.264   5.322 -0.4429  0.5128  0.0624
  160MOL    H2328961   4.097   2.270   5.565 -0.8661 -0.7254  1.8664
  160MOL    H2428962   4.052   2.096   5.542 -0.0973 -0.1463  0.1032
  160MOL    H2528963   3.964   2.283   5.330  0.6223 -1.1596 -2.5347
  160MOL    H2628964   4.190   2.354   5.381  0.0896 -0.3452  1.1953
  160MOL    H2728965   4.247   2.190   5.337  0.4454  1.0670 -1.7250
  160MOL    H2828966   4.163   2.292   5.217  1.0451 -0.4312 -0.2923
  160MOL    C2928967   4.000   2.072   5.298  0.0976 -0.2546 -0.5576
  160MOL    C3028968   3.974   2.081   5.148  0.2401 -0.0781 -0.3716
  160MOL    C3128969   3.988   1.942   5.088  0.1916  0.2585 -0.0462
  160MOL    H3228970   4.088   2.014   5.324 -1.6144 -1.8839  1.7916
  160MOL    H3328971   3.916   2.018   5.341 -1.3014  2.0236 -0.3676
  160MOL    H3428972   4.044   2.151   5.101 -0.4408  1.1702  0.4468
  160MOL    H3528973   3.941   1.866   5.151 -0.9448  1.5294  0.6515
  160MOL    H3628974   3.951   1.939   4.985 -0.0118  0.9825  0.0073
  160MOL    H3728975   4.094   1.921   5.072  0.3552  2.5007 -2.1004
  160MOL    C3828976   3.835   2.142   5.132  0.1121  0.1945 -0.3595
  160MOL    C3928977   3.817   2.211   4.991 -0.0627 -0.0652  0.7263
  160MOL    C4028978   3.667   2.208   4.944  0.1993 -0.0817  0.2322
  160MOL    H4128979   3.755   2.067   5.134 -1.7797  2.1926  2.1154
  160MOL    H4228980   3.811   2.207   5.216  2.9117 -2.1144  2.3608
  160MOL    H4328981   3.880   2.155   4.922 -0.1093 -2.2647  2.3941
  160MOL    H4428982   3.624   2.111   4.922  0.8506 -0.4214  0.4768
  160MOL    H4528983   3.609   2.249   5.027  2.3954  0.4693  1.5463
  160MOL    H4628984   3.653   2.276   4.860  0.2977  0.1898  0.4346
  160MOL    C4728985   3.869   2.355   5.004  0.2228 -0.2644  0.7731
  160MOL    C4828986   3.907   2.428   4.881 -0.3677 -0.7571 -0.0258
  160MOL    C4928987   3.926   2.571   4.904 -0.5488 -0.6491 -0.1494
  160MOL    H5028988   3.796   2.418   5.054  1.1014 -0.3977  2.2353
  160MOL    H5128989   3.952   2.353   5.075 -0.8069 -0.7281  1.9792
  160MOL    H5228990   3.826   2.411   4.809 -1.4583  1.5750  0.6115
  160MOL    H5328991   3.995   2.596   4.984  0.0594 -0.1120 -0.8342
  160MOL    H5428992   3.961   2.632   4.821 -2.4716  2.2042  1.0502
  160MOL    H5528993   3.837   2.623   4.940 -0.7845  0.5773 -2.4218
  160MOL    C5628994   4.041   2.381   4.815  0.4311  0.6438  0.5821
  160MOL    C5728995   4.037   2.286   4.687  0.4667 -0.3953  0.4941
  160MOL    C5828996   4.015   2.392   4.575 -0.2670  0.5753  0.5793
  160MOL    H5928997   4.110   2.464   4.802  1.9183 -0.7688 -0.7985
  160MOL    H6028998   4.085   2.323   4.896 -1.8923  0.8929  2.0611
  160MOL    H6128999   3.950   2.222   4.700 -0.4779  0.6578 -0.5282
  160MOL    H6229000   3.917   2.440   4.569 -0.7523 -0.5903 -1.1150
  160MOL    H6329001   4.094   2.467   4.570  2.3878 -2.0201  2.5560
  160MOL    H6429002   4.001   2.331   4.486 -3.3291  1.2487  0.5440
  160MOL    C6529003   4.164   2.204   4.669 -0.6272 -0.1337 -0.2055
  160MOL    C6629004   4.151   2.074   4.760 -0.5027  0.0984 -0.6097
  160MOL    C6729005   4.053   1.980   4.691  0.5369  0.6489  0.1477
  160MOL    H6829006   4.182   2.178   4.565  0.9872  1.4761 -0.3482
  160MOL    H6929007   4.252   2.262   4.696 -1.8936  1.4291  0.6613
  160MOL    H7029008   4.119   2.090   4.863  2.4005 -0.9102  0.5079
  160MOL    H7129009   4.060   1.878   4.729 -0.1340  0.6670  0.3130
  160MOL    H7229010   3.948   2.006   4.703  0.3428  0.4037 -0.9124
  160MOL    H7329011   4.064   1.970   4.582 -1.8587 -1.2860  0.0381
  160MOL    C7429012   4.281   1.995   4.780 -0.5931 -0.7692  0.1012
  160MOL    C7529013   4.389   2.069   4.868  0.2947 -0.3630 -0.4267
  160MOL    C7629014   4.339   2.096   5.014  0.0004 -0.1797 -0.6891
  160MOL    H7729015   4.263   1.901   4.833  3.1855 -2.6688 -1.7402
  160MOL    H7829016   4.321   1.970   4.682  2.2031 -0.0424  1.0007
  160MOL    H7929017   4.433   2.159   4.826 -1.5939  0.4730 -0.6984
  160MOL    H8029018   4.416   2.134   5.082  0.6518 -3.7234  0.6888
  160MOL    H8129019   4.254   2.162   5.025  1.1131  1.3445 -1.0629
  160MOL    H8229020   4.303   2.004   5.060 -3.4457  2.7712  2.9224
  160MOL    C8329021   4.505   1.972   4.881 -0.5253  0.5286 -0.5242
  160MOL    C8429022   4.635   2.029   4.937 -0.0871 -0.1870 -0.3472
  160MOL    C8529023   4.702   1.928   5.038  0.0629  0.5713 -0.0053
  160MOL    H8629024   4.465   1.887   4.936  0.7486 -0.1063 -0.5648
  160MOL    H8729025   4.521   1.933   4.780  1.1710 -0.8297  0.2496
  160MOL    H8829026   4.615   2.123   4.989 -3.6323 -1.2797  0.3843
  160MOL    H8929027   4.772   1.968   5.112  0.2191  0.1959  0.0483
  160MOL    H9029028   4.635   1.876   5.106 -1.2039  2.5817  0.3076
  160MOL    H9129029   4.745   1.855   4.969 -0.5472 -1.1756  1.4215
  160MOL    C9229030   4.729   2.054   4.815  0.0790 -0.0817 -0.4690
  160MOL    C9329031   4.869   2.105   4.843  0.5891 -0.1191 -0.6493
  160MOL    C9429032   4.942   2.131   4.720  0.2874  0.1647 -0.6009
  160MOL    H9529033   4.735   1.960   4.760 -0.8579 -0.6820  0.4341
  160MOL    H9629034   4.693   2.127   4.742 -0.4730  1.4062  1.2526
  160MOL    H9729035   4.919   2.019   4.887  1.4878  0.6600 -0.1185
  160MOL    H9829036   5.044   2.154   4.751  1.1346 -2.3402 -1.3852
  160MOL    H9929037   4.966   2.050   4.651  2.3797 -0.2980  0.6442
  160MOL   H10029038   4.904   2.211   4.655  2.3414 -1.6382 -4.2187
  160MOL   C10129039   4.868   2.225   4.946 -0.1667  0.2903 -0.5804
  160MOL   C10229040   5.005   2.276   5.007 -0.5184  0.9420 -0.4161
  160MOL   C10329041   4.974   2.389   5.110 -0.3557 -0.2458  0.2257
  160MOL   H10429042   4.815   2.309   4.901 -1.4743  0.1113  0.5629
  160MOL   H10529043   4.814   2.199   5.037  3.1586 -0.8005  1.1547
  160MOL   H10629044   5.063   2.309   4.921 -0.3311 -0.2151 -0.7461
  160MOL   H10729045   4.919   2.349   5.195 -1.3470  1.7438  0.5473
  160MOL   H10829046   5.051   2.454   5.153 -2.3256  2.2011  0.1535
  160MOL   H10929047   4.907   2.459   5.061  0.5500 -0.4756 -1.3711
  160MOL   C11029048   5.093   2.164   5.082  0.4576 -0.2931 -0.0285
  160MOL   C11129049   5.241   2.206   5.126 -0.3072  0.5774  0.1996
  160MOL   C11229050   5.295   2.119   5.242  0.7640  0.1431 -0.6859
  160MOL   H11329051   5.029   2.135   5.165  0.8615  2.1052  1.1701
  160MOL   H11429052   5.104   2.081   5.012  1.5584 -0.6980  0.6192
  160MOL   H11529053   5.237   2.313   5.147  0.2813  0.5751  0.3299
  160MOL   H11629054   5.224   2.116   5.325  0.1321  2.1500 -1.1305
  160MOL   H11729055   5.322   2.018   5.211 -0.8965 -0.6482  0.3503
  160MOL   H11829056   5.384   2.166   5.283  1.1129 -0.1375 -1.1239
  160MOL   C11929057   5.341   2.185   5.005 -0.0883 -0.4699  0.4528
  160MOL   C12029058   5.465   2.277   5.015 -0.0833 -0.1830  0.5441
  160MOL   C12129059   5.573   2.220   4.928 -0.2935  0.0304 -0.4399
  160MOL   H12229060   5.385   2.086   5.002 -0.9289 -0.8245 -0.3911
  160MOL   H12329061   5.288   2.200   4.911  0.6741 -2.2015 -0.2522
  160MOL   H12429062   5.507   2.276   5.116 -0.0230  4.5946  0.7042
  160MOL   H12529063   5.616   2.126   4.963 -1.3524 -0.0298  0.6943
  160MOL   H12629064   5.545   2.215   4.822 -0.9864 -0.7027 -0.2274
  160MOL   H12729065   5.654   2.293   4.929  0.9453 -1.3353  2.1614
  160MOL   C12829066   5.429   2.429   4.988 -0.7982  0.1051 -0.3075
  160MOL   C12929067   5.533   2.543   5.043 -0.0989 -0.2332  0.3162
  160MOL   C13029068   5.556   2.662   4.941 -0.2130 -0.2149 -0.6260
  160MOL   H13129069   5.409   2.433   4.881 -1.5397  0.1385 -0.1721
  160MOL   H13229070   5.332   2.454   5.031 -1.0531 -1.4348  0.0140
  160MOL   H13329071   5.632   2.499   5.049 -0.0504 -0.1071  0.4281
  160MOL   H13429072   5.471   2.728   4.924 -3.5195 -4.1710 -0.1277
  160MOL   H13529073   5.645   2.721   4.964 -0.1662 -1.1841  1.7788
  160MOL   H13629074   5.572   2.626   4.839  0.8587  1.2239 -0.9888
  160MOL   C13729075   5.490   2.608   5.176  0.5916  0.5793 -1.1187
  160MOL   C13829076   5.480   2.517   5.304  0.5382  0.2729 -0.0481
  160MOL   C13929077   5.620   2.453   5.335 -0.1998 -0.2186  0.6189
  160MOL   H14029078   5.548   2.697   5.199  0.7441 -0.0486  1.0334
  160MOL   H14129079   5.390   2.648   5.158  0.5774  0.4888 -1.2434
  160MOL   H14229080   5.427   2.423   5.286  1.8417 -0.4653 -0.1502
  160MOL   H14329081   5.651   2.395   5.249 -0.1278 -0.3511  0.7324
  160MOL   H14429082   5.706   2.520   5.344  0.3815 -0.4898 -2.5498
  160MOL   H14529083   5.611   2.383   5.418  0.8546  0.6316  1.4744
  160MOL   C14629084   5.430   2.595   5.425  0.0555 -0.4480 -0.5166
  160MOL   C14729085   5.305   2.524   5.491  0.0257  0.2340 -0.0991
  160MOL   C14829086   5.182   2.518   5.404 -0.3523  0.1188 -0.1555
  160MOL   H14929087   5.510   2.589   5.499 -0.6497  0.4463  0.3195
  160MOL   H15029088   5.414   2.699   5.397  0.2580 -0.2963 -0.0762
  160MOL   H15129089   5.268   2.596   5.564  2.2908  1.5971 -0.2443
  160MOL   H15229090   5.154   2.608   5.350 -1.0442 -1.2384 -2.1176
  160MOL   H15329091   5.205   2.435   5.338 -2.6309 -0.7815  0.1153
  160MOL   H15429092   5.088   2.481   5.444 -0.4777  2.2331  1.5755
  160MOL   C15529093   5.326   2.376   5.554  0.1126 -0.7229  0.1190
  160MOL   C15629094   5.435   2.347   5.660  0.0071  0.2829  0.2129
  160MOL   C15729095   5.381   2.402   5.795  0.3639  0.6145 -0.3636
  160MOL   H15829096   5.235   2.322   5.578 -1.5166  0.7554 -2.5233
  160MOL   H15929097   5.354   2.310   5.472  0.3511  1.6280 -1.7640
  160MOL   H16029098   5.520   2.411   5.637  1.4999 -0.0030  4.5154
  160MOL   H16129099   5.360   2.508   5.802 -1.1723  0.3760 -1.1353
  160MOL   H16229100   5.290   2.351   5.825  0.6656 -0.9454 -1.9937
  160MOL   H16329101   5.453   2.384   5.875  0.6064 -0.4760 -0.8074
  160MOL   C16429102   5.477   2.206   5.666 -0.6050  0.0191  0.7132
  160MOL   C16529103   5.607   2.171   5.740 -0.1247 -0.0393  0.1987
  160MOL   C16629104   5.605   2.039   5.816 -0.4799  0.7253  0.6837
  160MOL   H16729105   5.392   2.154   5.710 -0.4758 -0.3524  0.5293
  160MOL   H16829106   5.476   2.161   5.566 -4.2334  2.1249 -0.2957
  160MOL   H16929107   5.632   2.254   5.805 -1.6260  2.1115 -1.8791
  160MOL   H17029108   5.622   1.958   5.745  0.0118  2.2298 -0.9518
  160MOL   H17129109   5.685   2.032   5.890  2.1791 -0.3687 -2.1890
  160MOL   H17229110   5.511   2.030   5.872 -1.1818 -3.6489 -0.9720
  160MOL   C17329111   5.726   2.187   5.650  0.4882 -0.4168 -0.2188
  160MOL   C17429112   5.857   2.172   5.726 -0.3776  0.1441  0.3337
  160MOL   C17529113   5.977   2.197   5.633  0.4826 -0.2626 -0.2937
  160MOL   H17629114   5.715   2.125   5.562  0.8754 -0.2236 -0.4027
  160MOL   H17729115   5.724   2.284   5.600  1.4394 -0.5300 -0.4774
  160MOL   H17829116   5.866   2.074   5.773 -2.0376  0.8721  2.1995
  160MOL   H17929117   6.075   2.190   5.679  0.9135 -1.7470 -1.4151
  160MOL   H18029118   5.970   2.135   5.544  2.8190 -0.8761 -0.0840
  160MOL   H18129119   5.979   2.294   5.584 -0.9824  0.7389  1.5557
  160MOL   H18229120   5.856   2.236   5.814 -2.1862 -1.2755  1.3776
  161MOL     C129121   0.286   7.563   2.210  0.2564  1.0272  0.0615
  161MOL     C229122   0.359   7.424   2.191  0.1406 -0.3264 -0.2245
  161MOL     C329123   0.321   7.377   2.050 -0.0013  0.1906  0.2168
  161MOL     H429124   0.181   7.541   2.226  1.2723 -2.6115  2.3438
  161MOL     H529125   0.299   7.631   2.125  1.5228 -0.2704 -0.8135
  161MOL     H629126   0.325   7.344   2.257 -0.9237  0.2536 -0.0593
  161MOL     H729127   0.404   7.318   2.012  0.3780  0.0132  1.3033
  161MOL     H829128   0.235   7.310   2.041  0.3796 -0.0378 -2.0580
  161MOL     H929129   0.310   7.458   1.977  0.0965  1.0036  1.1009
  161MOL    H1029130   0.312   7.606   2.306  0.4925  0.9742  0.0229
  161MOL    C1129131   0.509   7.437   2.212 -0.0425  0.7276  0.0853
  161MOL    C1229132   0.557   7.459   2.358  0.0090 -0.0025 -1.0046
  161MOL    C1329133   0.477   7.381   2.463  0.3714  0.0559 -0.4548
  161MOL    H1429134   0.556   7.343   2.182 -1.3163 -0.6908  2.3433
  161MOL    H1529135   0.557   7.515   2.153  3.0629 -1.3991 -0.3448
  161MOL    H1629136   0.547   7.565   2.379 -2.1562 -0.3510 -0.1412
  161MOL    H1729137   0.450   7.277   2.444  1.3382 -0.0592 -1.2567
  161MOL    H1829138   0.521   7.396   2.561 -0.3341  4.0800 -0.6807
  161MOL    H1929139   0.385   7.439   2.471  0.9439  0.8541  0.2825
  161MOL    C2029140   0.708   7.425   2.367  0.6808  0.1015  0.1908
  161MOL    C2129141   0.801   7.513   2.281  0.3134 -0.5011 -0.0205
  161MOL    C2229142   0.796   7.667   2.337  0.1086  0.2002 -0.0783
  161MOL    H2329143   0.745   7.427   2.470 -2.7380 -2.4035  1.5510
  161MOL    H2429144   0.710   7.320   2.339 -1.3536 -0.0598  0.5715
  161MOL    H2529145   0.770   7.510   2.177  0.1515 -1.5354  0.0537
  161MOL    H2629146   0.806   7.667   2.446  0.3923  0.1965 -0.1041
  161MOL    H2729147   0.871   0.033   2.290  0.4199 -0.2888 -0.2412
  161MOL    H2829148   0.697   0.014   2.326  0.7039  1.6513  0.2258
  161MOL    C2929149   0.951   7.473   2.293 -0.4601  0.6823  0.2567
  161MOL    C3029150   0.998   7.353   2.206 -0.3348  0.0827  0.8544
  161MOL    C3129151   1.004   7.392   2.056  0.0753  0.3241 -0.6548
  161MOL    H3229152   1.006   7.558   2.254 -0.3652  1.0094  1.1022
  161MOL    H3329153   0.979   7.451   2.396  0.7337  1.2600  0.0662
  161MOL    H3429154   0.929   7.270   2.206 -0.3558  0.0972 -0.0943
  161MOL    H3529155   1.069   7.479   2.040 -2.3880  1.9131 -2.3289
  161MOL    H3629156   1.043   7.310   1.997  0.0628  1.6280 -2.5078
  161MOL    H3729157   0.902   7.411   2.026 -0.6316 -1.3949  0.5477
  161MOL    C3829158   1.142   7.309   2.257  0.3240  0.2305 -0.2314
  161MOL    C3929159   1.146   7.246   2.395  0.3105 -0.1484  0.0213
  161MOL    C4029160   1.021   7.162   2.427 -0.3905 -0.6208 -0.3507
  161MOL    H4129161   1.183   7.234   2.189 -1.4773  0.9239 -2.1505
  161MOL    H4229162   1.217   7.387   2.255 -1.4637  2.0195  0.7778
  161MOL    H4329163   1.153   7.333   2.460 -0.8822 -0.2680  0.3253
  161MOL    H4429164   1.012   7.074   2.363 -0.5944 -0.3969 -0.6359
  161MOL    H4529165   1.029   7.130   2.530 -2.1635  0.9652  0.3020
  161MOL    H4629166   0.927   7.216   2.415 -0.2091 -0.5630 -1.6800
  161MOL    C4729167   1.276   7.163   2.414 -0.5182 -0.4038 -0.3851
  161MOL    C4829168   1.322   7.142   2.566  0.3325  0.8014 -0.5913
  161MOL    C4929169   1.417   7.018   2.577 -0.2460 -0.6569  0.8635
  161MOL    H5029170   1.250   7.067   2.368 -3.2048 -0.5353  1.3181
  161MOL    H5129171   1.361   7.196   2.354  0.6877 -0.1123  1.4362
  161MOL    H5229172   1.231   7.125   2.623  0.4552 -0.1709 -0.6848
  161MOL    H5329173   1.476   7.018   2.669 -0.2205 -0.6089  0.8471
  161MOL    H5429174   1.356   6.928   2.583  0.9731 -1.6891 -1.6002
  161MOL    H5529175   1.483   7.012   2.491 -0.5953 -2.0421  0.6854
  161MOL    C5629176   1.397   7.265   2.620  0.2222  0.0830 -0.6403
  161MOL    C5729177   1.385   7.287   2.769  0.3433  0.1694 -0.3819
  161MOL    C5829178   1.492   7.386   2.807  0.1949 -0.1823  0.1704
  161MOL    H5929179   1.499   7.250   2.586 -0.0650 -0.3333 -1.3251
  161MOL    H6029180   1.374   7.352   2.559  1.6407  0.1146 -1.1539
  161MOL    H6129181   1.400   7.194   2.824 -3.0900 -0.4533 -0.3943
  161MOL    H6229182   1.482   7.403   2.915  4.1059 -0.7366  0.6972
  161MOL    H6329183   1.588   7.337   2.796 -0.0619 -0.3960 -1.1791
  161MOL    H6429184   1.494   7.475   2.745 -1.1090 -0.1675  0.1301
  161MOL    C6529185   1.243   7.329   2.812  0.7208 -0.4933  0.1160
  161MOL    C6629186   1.171   7.249   2.923  0.2543  0.3396 -0.3866
  161MOL    C6729187   1.152   7.096   2.884 -0.0333 -0.2503 -0.2525
  161MOL    H6829188   1.230   7.435   2.833  5.4568  0.0851  0.7011
  161MOL    H6929189   1.172   7.320   2.729 -0.4239 -0.8062  1.1109
  161MOL    H7029190   1.067   7.280   2.930 -0.0587 -0.9993  1.1038
  161MOL    H7129191   1.252   7.054   2.872  0.0832 -0.3435  1.0181
  161MOL    H7229192   1.104   7.045   2.967 -1.7718  1.2654 -0.2801
  161MOL    H7329193   1.089   7.087   2.796 -0.6155 -0.4018  0.1799
  161MOL    C7429194   1.234   7.252   3.064 -0.0307 -0.5437  0.3968
  161MOL    C7529195   1.246   7.392   3.131  0.0330  0.2875  0.0274
  161MOL    C7629196   1.111   7.470   3.134 -0.0564  0.1219 -0.1267
  161MOL    H7729197   1.170   7.199   3.134 -0.2574  1.2426  1.5807
  161MOL    H7829198   1.333   7.207   3.060  0.5603  0.8560 -2.2049
  161MOL    H7929199   1.303   7.456   3.063 -1.1860  2.1596  0.7167
  161MOL    H8029200   1.055   7.472   3.040  1.0343  0.1875 -0.7818
  161MOL    H8129201   1.037   7.434   3.205  2.3476  0.0920  2.4616
  161MOL    H8229202   1.131   7.575   3.157  3.0994 -0.8527  1.8546
  161MOL    C8329203   1.292   7.392   3.270  0.5060  0.3076  0.1775
  161MOL    C8429204   1.444   7.396   3.291  0.8482  0.5492  0.1073
  161MOL    C8529205   1.505   7.532   3.254 -0.2325 -0.6133  0.3545
  161MOL    H8629206   1.242   7.476   3.320 -0.3093 -0.9256  1.4628
  161MOL    H8729207   1.256   7.307   3.328  0.2041  1.7930  2.2628
  161MOL    H8829208   1.489   7.327   3.219  0.2168  1.6273 -1.3451
  161MOL    H8929209   1.492   7.545   3.146  0.3028  0.4420  0.4124
  161MOL    H9029210   1.462   7.617   3.306  0.8326  0.2938 -0.2197
  161MOL    H9129211   1.614   7.542   3.254 -0.4931  4.1960 -2.5201
  161MOL    C9229212   1.498   7.358   3.429 -0.6440  0.2128  0.5116
  161MOL    C9329213   1.491   7.205   3.456 -0.1948 -0.0702 -0.1840
  161MOL    C9429214   1.565   7.113   3.359  0.5896 -0.1911  0.0417
  161MOL    H9529215   1.601   7.390   3.436 -1.0109  1.2713  1.2386
  161MOL    H9629216   1.436   7.408   3.504  1.9230  1.2418  2.0057
  161MOL    H9729217   1.388   7.178   3.434 -0.9022  1.2899  1.3196
  161MOL    H9829218   1.558   7.006   3.383 -0.4079 -0.2236 -0.3846
  161MOL    H9929219   1.514   7.117   3.263 -0.2760 -0.4430  0.4770
  161MOL   H10029220   1.671   7.137   3.355  0.9515 -1.4173  1.6292
  161MOL   C10129221   1.508   7.191   3.615 -0.0399 -0.4654  0.7848
  161MOL   C10229222   1.639   7.246   3.676  0.0549 -0.0001 -0.8761
  161MOL   C10329223   1.621   7.328   3.809  0.8553 -0.0831  0.2579
  161MOL   H10429224   1.418   7.235   3.657 -0.5680 -0.4677 -0.3241
  161MOL   H10529225   1.498   7.083   3.631 -0.8418 -0.4755  0.2207
  161MOL   H10629226   1.676   7.317   3.602  0.9316  1.9522  1.3746
  161MOL   H10729227   1.553   7.411   3.789  1.3723  0.2619 -0.0870
  161MOL   H10829228   1.595   7.261   3.891 -0.1792  1.6652  1.3851
  161MOL   H10929229   1.715   7.364   3.848  0.3834  1.9294 -0.3762
  161MOL   C11029230   1.749   7.135   3.693  0.2982 -0.0209 -0.0283
  161MOL   C11129231   1.897   7.181   3.721  0.7336  0.4117  0.4931
  161MOL   C11229232   1.974   7.062   3.768  0.0722 -0.2578 -0.4562
  161MOL   H11329233   1.711   7.080   3.780  1.5990 -1.6059 -0.4388
  161MOL   H11429234   1.735   7.077   3.601  0.2452 -0.4481  0.2449
  161MOL   H11529235   1.892   7.249   3.806  1.1167  0.7187  0.2757
  161MOL   H11629236   2.066   7.093   3.817 -0.5022 -1.3660  1.3852
  161MOL   H11729237   1.912   7.020   3.847  0.6354  1.8787  1.1588
  161MOL   H11829238   2.004   6.988   3.694  1.7102  0.4079 -0.4763
  161MOL   C11929239   1.967   7.264   3.614 -0.1160 -0.0033 -0.1439
  161MOL   C12029240   1.980   7.416   3.647 -0.0137  0.0619 -0.2872
  161MOL   C12129241   2.095   7.434   3.752 -0.3243  0.3425 -0.2116
  161MOL   H12229242   2.065   7.221   3.594  0.3933  0.2938  1.6258
  161MOL   H12329243   1.918   7.249   3.518 -0.3838  0.3026 -0.0593
  161MOL   H12429244   1.886   7.455   3.685 -2.2430 -1.3945 -3.9988
  161MOL   H12529245   2.094   7.532   3.800 -0.5935  0.3590 -0.2540
  161MOL   H12629246   2.087   7.357   3.828  1.7662  0.3179  0.0317
  161MOL   H12729247   2.193   7.427   3.704  0.2969 -1.7846  1.2984
  161MOL   C12829248   2.019   7.506   3.527  0.3160  0.4140 -0.1098
  161MOL   C12929249   1.910   7.532   3.429 -0.5382  0.9781 -0.1824
  161MOL   C13029250   1.798   7.614   3.501  0.2037  0.3046  0.2959
  161MOL   H13129251   2.055   7.597   3.574 -0.2533 -0.5355  2.1920
  161MOL   H13229252   2.092   7.445   3.472  1.8215  1.3390  0.8222
  161MOL   H13329253   1.872   7.434   3.401  0.9975 -0.2084  1.7830
  161MOL   H13429254   1.735   7.560   3.572 -1.5621  2.3264  0.3131
  161MOL   H13529255   1.832   0.003   3.558 -0.2243  0.7568 -0.1396
  161MOL   H13629256   1.729   7.654   3.427 -0.3479  0.4930  0.9075
  161MOL   C13729257   1.957   7.609   3.304  0.2682 -0.0299  0.0633
  161MOL   C13829258   2.049   7.523   3.211  0.2901 -0.0040 -1.1827
  161MOL   C13929259   1.968   7.404   3.155  0.1298 -0.1557  0.0876
  161MOL   H14029260   1.863   7.632   3.254  0.8867 -0.2106 -1.1829
  161MOL   H14129261   1.991   0.010   3.335 -1.3249 -0.3644  3.1086
  161MOL   H14229262   2.124   7.482   3.278  0.8875  2.9286  0.0423
  161MOL   H14329263   1.937   7.330   3.229 -0.4368  0.6952  0.7036
  161MOL   H14429264   1.873   7.449   3.127  0.9022  1.6409  0.2990
  161MOL   H14529265   2.026   7.352   3.079  0.6000  1.7076 -0.8501
  161MOL   C14629266   2.108   7.601   3.101  0.1529 -0.7228  0.5992
  161MOL   C14729267   2.257   7.580   3.072 -0.0108  0.3021 -0.1246
  161MOL   C14829268   2.276   7.433   3.028  0.7692 -0.7653 -0.2291
  161MOL   H14929269   2.053   7.584   3.009  0.4234 -1.6355  0.5961
  161MOL   H15029270   2.076   0.005   3.122 -0.4212 -1.0878  1.5787
  161MOL   H15129271   2.308   7.589   3.168  0.0269 -0.6369 -0.0549
  161MOL   H15229272   2.375   7.422   2.984  1.6236  1.9521  0.8923
  161MOL   H15329273   2.261   7.353   3.100 -1.6323 -0.5627 -0.4420
  161MOL   H15429274   2.202   7.407   2.952 -1.2504 -0.2443  1.4810
  161MOL   C15529275   2.312   7.692   2.977  0.3622  0.2497  0.7684
  161MOL   C15629276   2.318   0.131   3.041 -0.2068  0.0495  0.2938
  161MOL   C15729277   2.412   0.132   3.165 -0.3094 -0.5721  0.5681
  161MOL   H15829278   2.406   7.662   2.931  0.1528 -1.8385  1.6300
  161MOL   H15929279   2.242   7.696   2.894 -0.3505  0.6437  1.3802
  161MOL   H16029280   2.223   0.169   3.077  0.4772  1.8320  0.2623
  161MOL   H16129281   2.402   0.227   3.217 -2.7916 -0.8477  0.6521
  161MOL   H16229282   2.404   0.052   3.238 -0.5818  0.6382  1.8950
  161MOL   H16329283   2.512   0.124   3.120 -0.8310  3.4171 -1.5153
  161MOL   C16429284   2.359   0.235   2.934 -0.0273 -0.3380 -0.5300
  161MOL   C16529285   2.320   0.378   2.987 -0.1638  0.0394 -0.4433
  161MOL   C16629286   2.447   0.468   2.971 -0.3189  0.1645  0.8299
  161MOL   H16729287   2.463   0.222   2.905  0.8947 -0.9627  2.8629
  161MOL   H16829288   2.293   0.219   2.849 -1.5942  0.6841  0.4550
  161MOL   H16929289   2.292   0.380   3.092 -1.3986  0.8304 -0.7739
  161MOL   H17029290   2.477   0.470   2.866 -0.6397 -0.9895  0.7101
  161MOL   H17129291   2.429   0.575   2.985 -0.3421  0.2066  0.4924
  161MOL   H17229292   2.543   0.437   3.010  1.2179  1.2456 -1.9049
  161MOL   C17329293   2.198   0.440   2.915  0.0633  0.0423 -0.0511
  161MOL   C17429294   2.064   0.368   2.943 -0.0163  0.2011 -0.0482
  161MOL   C17529295   1.954   0.427   2.855 -0.3551 -0.3956  0.0158
  161MOL   H17629296   2.188   0.548   2.926  1.8876  0.2651 -0.4017
  161MOL   H17729297   2.229   0.443   2.810 -2.7755  0.7527 -0.9104
  161MOL   H17829298   2.045   0.380   3.050 -0.8751  1.9352 -0.3707
  161MOL   H17929299   1.872   0.357   2.846 -0.0421 -1.4019  3.8668
  161MOL   H18029300   1.921   0.523   2.897  1.0090  0.1843 -0.1867
  161MOL   H18129301   1.984   0.453   2.753 -2.3942  0.8952 -0.2684
  161MOL   H18229302   2.059   0.264   2.912  0.9886  0.6259 -1.6891
  162MOL     C129303   5.064   5.830   1.664 -0.1439  0.2449  0.1208
  162MOL     C229304   5.006   5.889   1.794  0.6773  0.1334  0.1542
  162MOL     C329305   5.024   5.779   1.904 -0.8104 -0.2740  0.6397
  162MOL     H429306   5.025   5.731   1.642  0.2928  0.5841 -2.3493
  162MOL     H529307   5.173   5.831   1.669 -0.1255 -1.2609  0.3001
  162MOL     H629308   4.899   5.902   1.778  0.4994 -0.4364  0.8711
  162MOL     H729309   5.027   5.817   2.006  1.2990 -1.8154  1.1765
  162MOL     H829310   4.950   5.699   1.906  0.4318 -1.4549  0.3159
  162MOL     H929311   5.128   5.747   1.899 -1.1504 -1.6130  1.8757
  162MOL    H1029312   5.045   5.898   1.581  0.8998  0.0440 -0.2856
  162MOL    C1129313   5.064   6.026   1.827  0.7407  0.0657 -0.3104
  162MOL    C1229314   4.986   6.103   1.937  0.2794 -0.3789  0.1163
  162MOL    C1329315   5.030   6.082   2.089  0.2770  0.0073  0.2551
  162MOL    H1429316   5.165   6.009   1.861 -0.2156 -1.2621  1.9360
  162MOL    H1529317   5.072   6.088   1.737 -1.0205 -0.2006 -0.6794
  162MOL    H1629318   4.881   6.074   1.931  0.8474 -2.1917 -1.5460
  162MOL    H1729319   5.052   5.981   2.122  0.5107 -0.4817 -1.3387
  162MOL    H1829320   5.114   6.148   2.110  2.2170 -2.3299  0.0171
  162MOL    H1929321   4.950   6.117   2.155 -0.2157 -1.7809  0.6551
  162MOL    C2029322   4.974   6.254   1.907 -0.2069 -0.9865 -0.2642
  162MOL    C2129323   4.882   6.296   1.791  0.1725 -0.2864  0.5142
  162MOL    C2229324   4.759   6.366   1.858 -0.4236  0.1578  0.2019
  162MOL    H2329325   4.932   6.299   1.998 -2.4805  0.8045 -2.1508
  162MOL    H2429326   5.067   6.312   1.904 -1.1042  0.4600 -0.4007
  162MOL    H2529327   4.837   6.206   1.749 -0.2477 -0.3909  1.1792
  162MOL    H2629328   4.674   6.396   1.797  1.2450  2.6916 -0.9696
  162MOL    H2729329   4.715   6.289   1.921 -0.0661 -0.4117 -0.2469
  162MOL    H2829330   4.788   6.452   1.918  3.4891 -1.7446  1.1575
  162MOL    C2929331   4.961   6.377   1.680  0.2146  0.3769  0.2151
  162MOL    C3029332   4.879   6.394   1.548  0.7051 -0.3869 -0.1211
  162MOL    C3129333   4.781   6.513   1.549  0.5196 -0.1796  0.0324
  162MOL    H3229334   4.999   6.473   1.713  0.4493 -0.0675  1.2606
  162MOL    H3329335   5.057   6.328   1.664  1.4356  2.3969  1.1222
  162MOL    H3429336   4.811   6.309   1.536 -0.0793  0.5472 -2.5501
  162MOL    H3529337   4.717   6.511   1.461  0.5472 -1.2611  0.0238
  162MOL    H3629338   4.716   6.513   1.637 -0.4127 -0.4447 -0.6496
  162MOL    H3729339   4.817   6.615   1.564  0.7636 -0.4182  1.1530
  162MOL    C3829340   4.984   6.410   1.431  0.9001  0.3300  1.1965
  162MOL    C3929341   5.067   6.274   1.402 -0.3635 -0.4634 -0.9881
  162MOL    C4029342   4.980   6.144   1.391  0.4765  0.0918  0.0657
  162MOL    H4129343   4.935   6.442   1.339 -2.0715 -1.5108  2.0330
  162MOL    H4229344   5.060   6.483   1.457  0.9821  0.9455 -0.6887
  162MOL    H4329345   5.137   6.249   1.481  0.4625 -0.0145 -1.5662
  162MOL    H4429346   4.901   6.159   1.318  1.0999 -2.0013 -1.0771
  162MOL    H4529347   5.039   6.064   1.346  0.6342  1.0952 -1.5381
  162MOL    H4629348   4.935   6.110   1.485  0.4739  0.4866  0.2101
  162MOL    C4729349   5.144   6.299   1.271 -0.5046  0.4980  0.2577
  162MOL    C4829350   5.252   6.406   1.276 -0.2836  0.2540 -0.4084
  162MOL    C4929351   5.368   6.371   1.377  0.6267  0.0014  0.5836
  162MOL    H5029352   5.192   6.209   1.233 -1.7939  0.3278 -1.0139
  162MOL    H5129353   5.076   6.319   1.188  0.5359  2.7777 -0.0794
  162MOL    H5229354   5.215   6.502   1.314 -3.3333  0.3172 -3.3163
  162MOL    H5329355   5.358   6.425   1.471  1.5728 -1.2950  1.4501
  162MOL    H5429356   5.371   6.263   1.393  2.4500  0.0211  0.5261
  162MOL    H5529357   5.466   6.393   1.336  0.2973  0.9340  0.2966
  162MOL    C5629358   5.325   6.418   1.135 -0.1356  0.7764 -0.3369
  162MOL    C5729359   5.243   6.472   1.018 -0.0534  0.2681  0.2651
  162MOL    C5829360   5.158   6.597   1.035 -0.1176  0.1689 -0.4151
  162MOL    H5929361   5.411   6.484   1.145  0.3680  0.2281 -1.0434
  162MOL    H6029362   5.373   6.325   1.105 -2.3202 -0.0218 -1.4122
  162MOL    H6129363   5.183   6.382   1.000  0.8553 -1.0956  3.6159
  162MOL    H6229364   5.083   6.600   0.955 -0.3119  0.4378 -0.2226
  162MOL    H6329365   5.110   6.616   1.131 -1.6083  0.5243 -1.2150
  162MOL    H6429366   5.219   6.688   1.029  1.4523 -0.9794 -2.5896
  162MOL    C6529367   5.332   6.496   0.889  1.5486  0.4016 -0.5911
  162MOL    C6629368   5.444   6.387   0.855  0.7892  0.6456  0.2678
  162MOL    C6729369   5.372   6.261   0.801  0.8487 -0.0483 -0.3141
  162MOL    H6829370   5.264   6.500   0.804  0.0829 -1.5468  0.4329
  162MOL    H6929371   5.381   6.593   0.895 -0.5871  1.5386 -1.0282
  162MOL    H7029372   5.494   6.361   0.948  0.4907 -0.9017  0.0017
  162MOL    H7129373   5.352   6.194   0.885 -1.6117 -1.4737 -2.0115
  162MOL    H7229374   5.276   6.288   0.758  0.2186 -0.9982  0.4640
  162MOL    H7329375   5.433   6.189   0.746  0.5515 -0.1337 -0.5293
  162MOL    C7429376   5.548   6.433   0.753  0.6419 -0.4011 -0.1391
  162MOL    C7529377   5.648   6.546   0.798 -0.5884  0.0928  0.5280
  162MOL    C7629378   5.778   6.500   0.874  0.1178 -0.4682  0.6195
  162MOL    H7729379   5.605   6.347   0.718  0.1208 -0.3429 -1.1420
  162MOL    H7829380   5.489   6.456   0.665 -1.2550  0.2267  1.2522
  162MOL    H7929381   5.589   6.610   0.864 -2.5745 -0.3288 -0.8018
  162MOL    H8029382   5.845   6.439   0.814 -0.3031 -1.0158  0.7110
  162MOL    H8129383   5.829   6.591   0.906  1.3959 -0.5611 -1.0953
  162MOL    H8229384   5.756   6.433   0.957 -2.8914  0.1619  0.3780
  162MOL    C8329385   5.681   6.645   0.675 -0.1203 -0.0606  0.2553
  162MOL    C8429386   5.737   6.788   0.716  0.6474  0.5397 -0.1850
  162MOL    C8529387   5.815   6.850   0.599 -0.0186 -0.1127  0.7096
  162MOL    H8629388   5.765   6.593   0.629  1.5443  1.8468  1.0564
  162MOL    H8729389   5.595   6.643   0.609 -0.8411  0.1986  1.1809
  162MOL    H8829390   5.807   6.780   0.799 -1.1169 -1.9333  1.1114
  162MOL    H8929391   5.740   6.864   0.520 -1.7434 -1.1528  2.1431
  162MOL    H9029392   5.859   6.947   0.624  3.9648 -1.3560 -1.1055
  162MOL    H9129393   5.892   6.781   0.565 -1.4989 -1.1134 -0.6547
  162MOL    C9229394   5.624   6.879   0.769 -0.6426 -0.3076 -0.0223
  162MOL    C9329395   5.645   7.034   0.772  0.9613  0.0270 -0.0752
  162MOL    C9429396   5.505   7.091   0.794  0.6813  0.0876  0.1198
  162MOL    H9529397   5.530   6.860   0.717 -1.1827  0.7377  0.5477
  162MOL    H9629398   5.609   6.850   0.873  1.1886  0.1518  0.3924
  162MOL    H9729399   5.681   7.071   0.675  1.5172  1.2672  0.5849
  162MOL    H9829400   5.467   7.042   0.884 -0.6837  0.0711 -0.4476
  162MOL    H9929401   5.517   7.195   0.824  0.0603  0.5601 -1.2246
  162MOL   H10029402   5.441   7.082   0.707 -1.2331 -0.1654  1.5057
  162MOL   C10129403   5.749   7.073   0.882  0.1941  0.0165  0.1746
  162MOL   C10229404   5.809   7.215   0.883  0.2887 -0.3352  1.0209
  162MOL   C10329405   5.838   7.258   1.033 -0.5255 -0.1578  0.8572
  162MOL   H10429406   5.713   7.053   0.983 -0.4033  1.3745  0.2439
  162MOL   H10529407   5.834   7.006   0.882  0.7901  0.7567  1.6890
  162MOL   H10629408   5.730   7.278   0.843  0.5208  1.0153  2.6717
  162MOL   H10729409   5.928   7.216   1.078  0.8809  2.6145  0.7962
  162MOL   H10829410   5.857   7.365   1.045  0.8309 -0.2316 -0.4611
  162MOL   H10929411   5.757   7.245   1.104  0.4344 -0.2492  1.9499
  162MOL   C11029412   5.930   7.231   0.791  0.6411 -0.3185 -0.0039
  162MOL   C11129413   6.009   7.362   0.787  0.7121 -0.0983 -0.2740
  162MOL   C11229414   6.147   7.349   0.722  0.6292 -0.1900 -0.1898
  162MOL   H11329415   6.010   7.159   0.810  2.9345  2.3114  0.5973
  162MOL   H11429416   5.891   7.211   0.691  2.2603 -0.9031 -0.5351
  162MOL   H11529417   6.022   7.389   0.891  0.3675  2.2151 -0.8080
  162MOL   H11629418   6.130   7.307   0.623 -1.5161  0.5736 -0.1737
  162MOL   H11729419   6.212   7.437   0.722  1.2248 -0.6165  1.1653
  162MOL   H11829420   6.195   7.270   0.779 -2.1504 -0.3352  2.0983
  162MOL   C11929421   5.922   7.477   0.727 -0.5186 -0.3960 -0.5200
  162MOL   C12029422   5.978   7.620   0.735 -0.2015 -0.0682 -0.1978
  162MOL   C12129423   5.889   0.027   0.656 -0.7024  0.4994 -0.4699
  162MOL   H12229424   5.905   7.454   0.622  0.6159 -0.4720 -0.6908
  162MOL   H12329425   5.825   7.472   0.777 -0.8918  2.0860 -0.9145
  162MOL   H12429426   6.074   7.620   0.684 -0.3783 -2.1876 -0.5764
  162MOL   H12529427   5.793   0.032   0.709  0.1326 -0.8869  1.2362
  162MOL   H12629428   5.924   0.131   0.654  1.0134 -0.0899 -1.8024
  162MOL   H12729429   5.860   0.011   0.553 -1.7803 -0.3332 -0.0454
  162MOL   C12829430   5.997   7.671   0.879 -0.7591  0.3004 -0.6146
  162MOL   C12929431   6.069   0.105   0.903  0.6020 -0.2331  0.0810
  162MOL   C13029432   6.026   0.176   1.036  0.0672 -0.3868  0.2107
  162MOL   H13129433   5.899   7.681   0.926 -0.1197 -0.4964  0.9195
  162MOL   H13229434   6.053   7.593   0.930 -1.6677 -0.9963 -1.5972
  162MOL   H13329435   6.060   0.162   0.811 -2.7848 -0.9874 -0.1145
  162MOL   H13429436   6.057   0.280   1.036 -0.6182 -0.1660 -1.0054
  162MOL   H13529437   5.918   0.191   1.031  0.1038  1.1356  3.0549
  162MOL   H13629438   6.067   0.120   1.120 -0.5618 -0.6053  0.3698
  162MOL   C13729439   6.226   0.082   0.911 -0.3720  0.2266 -0.8603
  162MOL   C13829440   6.311   0.219   0.905  0.3305 -0.1139  0.3196
  162MOL   C13929441   6.454   0.202   0.963  0.4133 -0.0562 -0.7252
  162MOL   H14029442   6.244   0.039   1.009 -2.5439  1.2821  0.0173
  162MOL   H14129443   6.262   0.013   0.834 -0.1624 -0.7218  0.0763
  162MOL   H14229444   6.267   0.296   0.968  1.5496  2.1951 -1.5222
  162MOL   H14329445   6.509   0.135   0.897 -1.0491 -1.7889 -0.2468
  162MOL   H14429446   6.504   0.299   0.961 -0.4299  0.3854 -0.6421
  162MOL   H14529447   6.459   0.166   1.066  0.6504  1.5777 -0.1429
  162MOL   C14629448   6.319   0.280   0.765  0.5766  0.3794 -0.0954
  162MOL   C14729449   6.356   0.426   0.746  0.2323  0.2409 -0.4199
  162MOL   C14829450   6.495   0.436   0.679  0.6741  0.1183 -0.5997
  162MOL   H14929451   6.395   0.225   0.708 -0.8178  1.4976 -3.1658
  162MOL   H15029452   6.226   0.253   0.714  0.7961  0.5307 -0.5801
  162MOL   H15129453   6.371   0.470   0.844  1.8088 -4.2617  1.4946
  162MOL   H15229454   6.573   0.386   0.736 -0.0920 -0.9998 -0.5282
  162MOL   H15329455   6.514   0.400   0.578  1.5013  1.6546 -1.0200
  162MOL   H15429456   6.527   0.537   0.654  1.3054 -0.7795 -3.6864
  162MOL   C15529457   6.242   0.480   0.649 -0.7076  0.7997 -0.6833
  162MOL   C15629458   6.237   0.635   0.634  0.2583 -0.4850 -1.1299
  162MOL   C15729459   6.158   0.673   0.508  0.0409  0.5771  0.8314
  162MOL   H15829460   6.256   0.431   0.552  1.3460 -2.2615  1.0565
  162MOL   H15929461   6.149   0.442   0.691  0.4691 -0.4988  0.7897
  162MOL   H16029462   6.340   0.669   0.622  0.8125 -1.9161 -0.5877
  162MOL   H16129463   6.160   0.777   0.473  4.7918  0.1944 -0.2855
  162MOL   H16229464   6.203   0.617   0.426  1.9105  1.5951  1.1391
  162MOL   H16329465   6.052   0.646   0.511  0.4032 -1.7777 -3.5528
  162MOL   C16429466   6.184   0.702   0.763 -0.5946 -0.9638 -0.2689
  162MOL   C16529467   6.238   0.839   0.793  0.6878 -0.6015 -0.8868
  162MOL   C16629468   6.133   0.943   0.827 -0.2337 -0.6719  0.2439
  162MOL   H16729469   6.078   0.723   0.753  0.0442  3.3537  1.1917
  162MOL   H16829470   6.210   0.635   0.845  2.1720 -0.7445 -0.9001
  162MOL   H16929471   6.281   0.883   0.703  1.7341  0.8444  0.3073
  162MOL   H17029472   6.069   0.916   0.911 -0.8660  0.1267  0.0257
  162MOL   H17129473   6.183   1.038   0.848 -0.1459 -0.9179  1.1936
  162MOL   H17229474   6.069   0.971   0.743  0.9591  2.0982  0.2093
  162MOL   C17329475   6.362   0.836   0.894  0.0755  0.4913  0.5589
  162MOL   C17429476   6.425   0.972   0.925 -0.1540  0.0711  0.4111
  162MOL   C17529477   6.567   0.961   0.990 -0.0165  0.5814 -0.0881
  162MOL   H17629478   6.318   0.798   0.986  0.1786  0.5540  0.6339
  162MOL   H17729479   6.432   0.764   0.852  0.3767  0.7919  0.5466
  162MOL   H17829480   6.353   1.021   0.991 -1.2477 -1.1412  0.1484
  162MOL   H17929481   6.641   0.919   0.923 -0.3018  0.8685 -0.5841
  162MOL   H18029482   6.597   1.059   1.029  0.2518  0.4301  0.0915
  162MOL   H18129483   6.566   0.896   1.078  0.4316 -0.0258 -0.5343
  162MOL   H18229484   6.427   1.032   0.834  1.8168  1.6433  1.4568
  163MOL     C129485   5.955   2.870   7.279  0.0119  0.4802  0.6675
  163MOL     C229486   5.811   2.836   7.339 -0.2556  0.0706  0.3589
  163MOL     C329487   5.706   2.855   7.229 -0.2676  1.1037  0.2561
  163MOL     H429488   6.032   2.847   7.353  0.2503 -2.0658 -0.3189
  163MOL     H529489   5.967   2.976   7.256 -0.4036  0.4240  0.1764
  163MOL     H629490   5.796   2.914   7.414  3.6251  0.5399  0.7677
  163MOL     H729491   5.724   2.792   7.142  0.7192  1.1010  0.4645
  163MOL     H829492   5.611   2.823   7.273 -0.5621 -1.4332 -2.0589
  163MOL     H929493   5.683   2.958   7.202  1.9369  1.9030  1.3342
  163MOL    H1029494   5.969   2.809   7.190  2.6576  2.0460 -0.0531
  163MOL    C1129495   5.816   2.703   7.406  0.7912  0.2280 -0.3845
  163MOL    C1229496   5.702   2.683   7.513 -0.3606 -0.0587  0.0416
  163MOL    C1329497   5.667   2.533   7.547  0.7408  0.1435  1.0087
  163MOL    H1429498   5.807   2.623   7.333  1.3935  0.5223 -0.7956
  163MOL    H1529499   5.911   2.696   7.460 -0.7447 -1.3678  2.1938
  163MOL    H1629500   5.611   2.729   7.474  0.1947  0.6720 -0.3993
  163MOL    H1729501   5.743   2.495   7.615  2.7653 -0.0092 -1.2903
  163MOL    H1829502   5.576   2.534   7.606 -0.9170  1.3228 -1.4786
  163MOL    H1929503   5.659   2.468   7.461  2.3820  2.0248 -0.6235
  163MOL    C2029504   5.742   2.756   7.647 -0.5701  0.3661 -0.2948
  163MOL    C2129505   5.650   2.756   0.073  1.2062 -0.1820  0.3312
  163MOL    C2229506   5.703   2.840   0.193 -0.4592  0.0128 -0.3619
  163MOL    H2329507   5.819   2.690   7.687 -1.1047 -0.0095  0.1298
  163MOL    H2429508   5.784   2.853   7.622 -2.7999  0.9179 -2.1417
  163MOL    H2529509   5.627   2.656   0.110  1.2077  0.3287  1.7431
  163MOL    H2629510   5.655   2.818   0.289  1.0402  2.4430  0.9905
  163MOL    H2729511   5.803   2.805   0.220 -0.9541 -1.1811 -0.0257
  163MOL    H2829512   5.713   2.947   0.176  1.2687 -0.2441 -1.0218
  163MOL    C2929513   5.507   2.812   0.034  0.5475  0.1440 -0.0832
  163MOL    C3029514   5.394   2.799   0.145  0.1551 -0.1388 -0.1986
  163MOL    C3129515   5.271   2.891   0.097 -0.2087  0.5765 -0.2740
  163MOL    H3229516   5.523   2.915   0.000 -1.1081  0.3141 -0.3802
  163MOL    H3329517   5.468   2.762   7.643 -1.2571 -1.8493  1.7859
  163MOL    H3429518   5.427   2.846   0.238 -0.7993  0.7310 -0.2870
  163MOL    H3529519   5.215   2.846   0.015 -1.4982 -1.5453  1.7033
  163MOL    H3629520   5.191   2.894   0.170  0.0353 -0.9745  0.0805
  163MOL    H3729521   5.295   2.996   0.085 -2.6222  1.2258  0.2817
  163MOL    C3829522   5.350   2.657   0.168 -0.3893  0.1401 -0.2229
  163MOL    C3929523   5.397   2.602   0.303  0.1039  0.7005  0.7868
  163MOL    C4029524   5.300   2.648   0.414  0.0414  0.2975  0.1528
  163MOL    H4129525   5.242   2.653   0.151 -0.5043  0.1607  0.4895
  163MOL    H4229526   5.384   2.591   0.088 -1.2723 -1.3609  0.6113
  163MOL    H4329527   5.501   2.629   0.319  0.6620  0.4458 -2.1111
  163MOL    H4429528   5.297   2.754   0.440  1.0263  0.5513 -0.7201
  163MOL    H4529529   5.201   2.613   0.383 -0.4853  0.2508  1.8658
  163MOL    H4629530   5.318   2.599   0.509  0.4292 -1.5733 -0.8539
  163MOL    C4729531   5.412   2.448   0.312  0.5369 -0.5798 -0.9898
  163MOL    C4829532   5.541   2.392   0.251  0.8573 -0.2862 -0.0399
  163MOL    C4929533   5.669   2.430   0.318  0.3163 -0.0779 -0.0784
  163MOL    H5029534   5.399   2.422   0.417  0.9775  3.3559  0.0999
  163MOL    H5129535   5.323   2.408   0.264  0.5764  1.5182 -2.8531
  163MOL    H5229536   5.556   2.434   0.151  0.5758 -2.9335 -1.2484
  163MOL    H5329537   5.693   2.536   0.327 -1.6342  0.4938 -1.2149
  163MOL    H5429538   5.682   2.385   0.416 -0.6115  2.3784  1.2404
  163MOL    H5529539   5.748   2.391   0.255  0.9444  1.2273 -0.1198
  163MOL    C5629540   5.540   2.240   0.231  0.2927  0.0562  0.1410
  163MOL    C5729541   5.426   2.174   0.149 -0.1060 -0.1484  0.4326
  163MOL    C5829542   5.413   2.239   0.009 -0.9380 -0.5504  0.0331
  163MOL    H5929543   5.636   2.206   0.194  0.8086  0.2547  1.2820
  163MOL    H6029544   5.533   2.204   0.333  3.3700 -2.0529 -0.3451
  163MOL    H6129545   5.332   2.181   0.203 -1.5340  1.6625 -2.1638
  163MOL    H6229546   5.368   2.338   0.011 -0.0618 -0.1689  0.7840
  163MOL    H6329547   5.503   2.234   7.646  0.9609 -3.1018  2.9453
  163MOL    H6429548   5.347   2.173   7.650 -1.1576 -0.4926  0.2217
  163MOL    C6529549   5.450   2.021   0.135 -0.3979 -0.9297 -0.8146
  163MOL    C6629550   5.468   1.946   0.272  0.1133  0.3634  0.3023
  163MOL    C6729551   5.330   1.953   0.341 -0.1101 -0.1979  0.5871
  163MOL    H6829552   5.373   1.976   0.072 -0.5953  0.0683 -1.3114
  163MOL    H6929553   5.538   2.015   0.072 -0.3399  2.8030 -1.2067
  163MOL    H7029554   5.542   1.990   0.339  0.5988 -1.6719  1.1333
  163MOL    H7129555   5.326   1.896   0.433 -0.0139 -2.0257 -0.5154
  163MOL    H7229556   5.314   2.059   0.362 -0.2527  0.3575 -2.1392
  163MOL    H7329557   5.250   1.930   0.270  1.9865 -0.3354 -1.8257
  163MOL    C7429558   5.507   1.799   0.252 -0.2233 -0.1850 -0.1895
  163MOL    C7529559   5.404   1.704   0.201  0.0797  0.7669  0.0208
  163MOL    C7629560   5.444   1.614   0.081  0.1155 -0.4662 -0.2156
  163MOL    H7729561   5.591   1.807   0.184 -1.4074 -0.0627 -1.6594
  163MOL    H7829562   5.555   1.767   0.345  0.2003  1.2881  0.1267
  163MOL    H7929563   5.326   1.763   0.152  0.2714  0.9417 -0.0746
  163MOL    H8029564   5.498   1.673   0.008 -0.3619 -1.1240 -1.1072
  163MOL    H8129565   5.500   1.523   0.102 -1.1280 -1.7790 -2.3912
  163MOL    H8229566   5.354   1.582   0.028  0.5933 -1.0220 -0.7053
  163MOL    C8329567   5.347   1.622   0.318  0.8795 -0.3230 -0.3802
  163MOL    C8429568   5.207   1.569   0.282  0.3012 -0.1105  0.2535
  163MOL    C8529569   5.162   1.467   0.387 -0.1627  0.2277  0.0188
  163MOL    H8629570   5.403   1.533   0.347  2.2545  1.2689  2.0667
  163MOL    H8729571   5.331   1.691   0.400  0.8336  1.6303 -1.9853
  163MOL    H8829572   5.195   1.525   0.183 -3.6941  0.5158  0.3862
  163MOL    H8929573   5.071   1.412   0.361 -0.2324  1.1398 -1.7595
  163MOL    H9029574   5.237   1.393   0.413 -0.3375  0.0637  0.0627
  163MOL    H9129575   5.136   1.516   0.481 -2.7419 -4.2796  1.8031
  163MOL    C9229576   5.103   1.685   0.290  0.2452 -0.8019  0.2561
  163MOL    C9329577   4.953   1.656   0.262  0.1411  0.8032  0.3073
  163MOL    C9429578   4.873   1.782   0.302 -0.2155  0.5111  0.8062
  163MOL    H9529579   5.108   1.725   0.391 -0.7946 -1.8227  0.7269
  163MOL    H9629580   5.131   1.766   0.223  1.2499  0.2176  1.8757
  163MOL    H9729581   4.925   1.568   0.320  0.1375  0.0980 -0.7650
  163MOL    H9829582   4.913   1.875   0.263 -2.1087  0.5513 -1.1420
  163MOL    H9929583   4.769   1.765   0.275  0.0898  0.1344 -0.1555
  163MOL   H10029584   4.860   1.797   0.409  1.8014  0.4482  1.0853
  163MOL   C10129585   4.924   1.614   0.116  0.2169 -0.3628 -0.1374
  163MOL   C10229586   4.789   1.532   0.100  0.0378 -0.0613  0.5134
  163MOL   C10329587   4.732   1.559   7.659 -0.0411  0.5275  0.5466
  163MOL   H10429588   4.925   1.704   0.056 -0.9716 -1.4040 -1.7431
  163MOL   H10529589   4.996   1.545   0.071 -0.5738 -1.0127 -0.4284
  163MOL   H10629590   4.722   1.566   0.179  0.2400 -0.3146  0.7957
  163MOL   H10729591   4.755   1.659   7.621 -1.3522  0.5845 -0.0954
  163MOL   H10829592   4.790   1.503   7.587  1.6946  1.0762  1.4785
  163MOL   H10929593   4.632   1.525   7.635 -1.0418  2.2196  2.1713
  163MOL   C11029594   4.794   1.379   0.137 -0.7205  0.2968 -0.4226
  163MOL   C11129595   4.657   1.311   0.124 -0.5975  0.2733 -0.2936
  163MOL   C11229596   4.656   1.211   0.008  0.1648 -0.2033 -0.9419
  163MOL   H11329597   4.863   1.346   0.060  0.8533 -1.0758  1.5303
  163MOL   H11429598   4.837   1.358   0.235 -3.3407 -0.3648  0.6308
  163MOL   H11529599   4.580   1.384   0.100  0.1526  0.8420 -1.0170
  163MOL   H11629600   4.690   1.266   7.618  0.0190  1.1651 -0.1523
  163MOL   H11729601   4.721   1.125   0.023  0.9519  0.4841 -0.3936
  163MOL   H11829602   4.553   1.180   7.691 -0.0673  0.2204 -0.2064
  163MOL   C11929603   4.598   1.242   0.248  0.3101 -0.1889 -0.2558
  163MOL   C12029604   4.542   1.334   0.358 -0.3071 -0.2760 -0.5460
  163MOL   C12129605   4.403   1.389   0.313 -0.3120 -0.7340  0.0286
  163MOL   H12229606   4.530   1.162   0.220 -0.0732  0.1171 -0.2082
  163MOL   H12329607   4.674   1.174   0.287  1.0765  1.7154  1.6636
  163MOL   H12429608   4.615   1.415   0.358 -0.3788 -0.2049  0.9245
  163MOL   H12529609   4.336   1.306   0.289  0.4351 -0.9711 -1.2489
  163MOL   H12629610   4.358   1.472   0.367 -0.0543  0.2736 -1.2806
  163MOL   H12729611   4.413   1.435   0.215  4.1223 -1.5296  0.0180
  163MOL   C12829612   4.538   1.260   0.492  0.5546 -0.1951  0.0321
  163MOL   C12929613   4.675   1.242   0.563  0.1327  0.3828  0.4156
  163MOL   C13029614   4.757   1.372   0.591 -0.2076 -0.4102  0.2637
  163MOL   H13129615   4.482   1.333   0.551 -1.3723  0.0824 -2.1002
  163MOL   H13229616   4.474   1.172   0.496 -1.2467  0.9926 -1.7609
  163MOL   H13329617   4.731   1.178   0.496 -1.7514 -1.2017  0.3023
  163MOL   H13429618   4.689   1.428   0.654  2.3616  0.3738  2.4491
  163MOL   H13529619   4.853   1.352   0.639  0.1349 -2.1088 -1.0571
  163MOL   H13629620   4.779   1.437   0.506 -2.1167  1.4634  1.1674
  163MOL   C13729621   4.660   1.169   0.702  0.1127  0.6213  0.3000
  163MOL   C13829622   4.643   1.016   0.676  0.1977  0.5273 -0.1091
  163MOL   C13929623   4.781   0.946   0.647 -0.2489 -0.0471 -0.4860
  163MOL   H14029624   4.746   1.196   0.763  0.9225  0.3544 -0.7215
  163MOL   H14129625   4.569   1.214   0.740 -1.1096 -0.1647 -1.6279
  163MOL   H14229626   4.573   1.002   0.593  0.0080 -3.4824  0.6578
  163MOL   H14329627   4.845   0.945   0.735  0.4330 -0.6532 -0.9824
  163MOL   H14429628   4.763   0.840   0.628 -0.5962 -0.7049  3.1570
  163MOL   H14529629   4.831   0.990   0.560  0.3821  0.3514  0.0759
  163MOL   C14629630   4.590   0.935   0.796  0.7575 -0.4109 -0.3657
  163MOL   C14729631   4.450   0.977   0.848 -0.2258  0.2053 -0.1668
  163MOL   C14829632   4.354   0.942   0.733  0.0133  0.2885  0.3444
  163MOL   H14929633   4.578   0.828   0.776 -0.6812 -0.4277  0.4995
  163MOL   H15029634   4.661   0.939   0.878 -0.1771 -1.2368  0.5017
  163MOL   H15129635   4.442   1.084   0.862 -2.4553 -0.1542  1.5969
  163MOL   H15229636   4.250   0.968   0.751 -1.1323 -3.8174  0.1961
  163MOL   H15329637   4.390   1.010   0.655 -0.5188 -0.0360 -0.1871
  163MOL   H15429638   4.348   0.838   0.703 -1.9244  0.3270  0.5365
  163MOL   C15529639   4.404   0.907   0.975  0.1209 -0.0428 -0.1939
  163MOL   C15629640   4.471   0.965   1.109 -0.4399  0.3245 -0.0965
  163MOL   C15729641   4.412   1.108   1.126  0.2745  0.6840  0.1369
  163MOL   H15829642   4.297   0.926   0.974  0.6244  3.0094 -0.5535
  163MOL   H15929643   4.429   0.801   0.963 -0.9741 -0.2512 -0.7126
  163MOL   H16029644   4.579   0.962   1.096 -0.1806 -1.9434  2.1885
  163MOL   H16129645   4.447   1.175   1.048 -0.5625  1.6816  0.6180
  163MOL   H16229646   4.306   1.097   1.106  0.7614 -1.2470 -1.5297
  163MOL   H16329647   4.433   1.158   1.221  2.3874 -1.3288  0.7989
  163MOL   C16429648   4.445   0.883   1.238 -0.5167  0.4842  0.0960
  163MOL   C16529649   4.519   0.752   1.247  0.1003  0.1270  0.3528
  163MOL   C16629650   4.674   0.773   1.279 -0.2804 -0.4713 -0.0505
  163MOL   H16729651   4.468   0.941   1.327  0.4023  0.3815 -0.0669
  163MOL   H16829652   4.340   0.858   1.251 -0.6896  0.1258 -1.8446
  163MOL   H16929653   4.512   0.709   1.147  0.5900  2.7227 -0.8572
  163MOL   H17029654   4.716   0.680   1.240 -0.4796  0.1832 -1.8867
  163MOL   H17129655   4.729   0.853   1.228  0.7149 -1.5989 -0.7751
  163MOL   H17229656   4.690   0.791   1.386 -1.2016 -0.2385  0.0537
  163MOL   C17329657   4.461   0.643   1.351  0.4685  0.3449 -0.2211
  163MOL   C17429658   4.316   0.596   1.307 -0.0373  0.0699 -0.7880
  163MOL   C17529659   4.252   0.495   1.405 -0.4961  0.1352 -0.1882
  163MOL   H17629660   4.526   0.556   1.357  4.3489  3.0355 -1.0908
  163MOL   H17729661   4.445   0.692   1.448 -1.9897  0.9149 -0.8981
  163MOL   H17829662   4.326   0.543   1.212  1.0823 -2.3287  0.6278
  163MOL   H17929663   4.143   0.497   1.398 -0.3580  1.8503 -2.2396
  163MOL   H18029664   4.294   0.395   1.393  0.4175  0.5143 -0.1785
  163MOL   H18129665   4.272   0.520   1.509  1.0853  2.3199 -0.9773
  163MOL   H18229666   4.253   0.681   1.284  0.3377  0.1509 -1.5430
  164MOL     C129667   6.959   4.039   0.409 -0.4500  0.5317  0.1440
  164MOL     C229668   6.812   4.077   0.441 -0.8243 -0.1748  0.6629
  164MOL     C329669   6.798   4.179   0.559 -0.0745  0.0551 -0.2648
  164MOL     H429670   6.967   3.960   0.334 -0.1415 -0.0895  0.8280
  164MOL     H529671   7.004   3.993   0.497 -1.9622 -0.7953  0.2346
  164MOL     H629672   6.766   3.986   0.478  0.1470 -1.3237 -0.8984
  164MOL     H729673   6.699   4.223   0.569 -0.4140 -1.1306  1.6153
  164MOL     H829674   6.827   4.137   0.655  3.3358 -0.5699 -1.4810
  164MOL     H929675   6.862   4.266   0.543  1.2382 -0.7346  0.5736
  164MOL    H1029676   7.010   4.131   0.381 -0.6811  1.2258  1.9318
  164MOL    C1129677   6.737   4.107   0.307 -0.0556 -0.1469  0.5506
  164MOL    C1229678   6.585   4.103   0.312  0.6347 -0.6103  0.1319
  164MOL    C1329679   6.529   4.151   0.175 -0.4900  0.0051 -0.6022
  164MOL    H1429680   6.759   4.208   0.272  0.2650 -0.1454  0.7530
  164MOL    H1529681   6.762   4.036   0.228 -0.9743 -0.9542  0.9669
  164MOL    H1629682   6.551   4.177   0.384  1.4866 -0.2806  0.1990
  164MOL    H1729683   6.421   4.136   0.171 -0.4824 -0.2558  0.2121
  164MOL    H1829684   6.556   4.256   0.163 -1.8734  0.2972 -1.3026
  164MOL    H1929685   6.574   4.088   0.098  0.6893 -1.8709  1.5690
  164MOL    C2029686   6.532   3.956   0.342 -0.5329  0.4633  0.7091
  164MOL    C2129687   6.410   3.945   0.432  0.7564  0.5901 -0.6460
  164MOL    C2229688   6.426   4.023   0.570  0.1273  0.6868 -0.0585
  164MOL    H2329689   6.520   3.899   0.250  3.2580 -0.5760  0.7533
  164MOL    H2429690   6.609   3.902   0.397  0.1090  1.3716  0.6981
  164MOL    H2529691   6.404   3.840   0.461  1.6999  0.3318 -1.3588
  164MOL    H2629692   6.350   4.004   0.645  0.4512  0.4605  0.2191
  164MOL    H2729693   6.526   3.993   0.604  0.5492 -0.0977 -1.9353
  164MOL    H2829694   6.433   4.130   0.553  2.1880  0.5750 -0.1030
  164MOL    C2929695   6.274   3.986   0.366  0.2906 -0.1902  1.2112
  164MOL    C3029696   6.146   3.941   0.433 -0.1219  0.1006  0.6227
  164MOL    C3129697   6.058   4.059   0.475 -0.3258 -1.0327 -0.2843
  164MOL    H3229698   6.262   4.093   0.346 -5.4297 -0.3999  2.7181
  164MOL    H3329699   6.273   3.941   0.267 -0.5882  0.8923  0.7169
  164MOL    H3429700   6.176   3.889   0.524 -0.5540 -1.2431 -0.0047
  164MOL    H3529701   6.120   4.138   0.517 -0.6373 -0.5865 -0.6596
  164MOL    H3629702   5.992   4.091   0.394 -0.5517  0.1150  0.3468
  164MOL    H3729703   5.988   4.041   0.556 -1.4532  1.3308 -0.6961
  164MOL    C3829704   6.058   3.843   0.356 -0.5724  0.1498  0.3780
  164MOL    C3929705   6.124   3.709   0.324 -0.0006  0.5737 -0.4010
  164MOL    C4029706   6.168   3.628   0.454 -0.0963 -0.1429  0.4252
  164MOL    H4129707   5.974   3.825   0.423  0.6521  0.5209  2.0553
  164MOL    H4229708   6.036   3.902   0.267  0.1750  0.5879  0.4816
  164MOL    H4329709   6.220   3.725   0.276  1.0088 -1.6675  0.7958
  164MOL    H4429710   6.081   3.616   0.520  1.0945  0.0252  2.0462
  164MOL    H4529711   6.190   3.527   0.420  1.3964  0.6543 -1.0525
  164MOL    H4629712   6.250   3.671   0.512  0.6385 -0.7771 -0.1471
  164MOL    C4729713   6.027   3.620   0.241 -0.4139 -1.2385 -0.5862
  164MOL    C4829714   6.032   3.646   0.091  0.1522  0.4777 -0.6268
  164MOL    C4929715   6.175   3.674   0.031 -0.1074  0.0202  0.7770
  164MOL    H5029716   6.070   3.520   0.253  3.0887  0.0089 -1.9616
  164MOL    H5129717   5.930   3.627   0.289  0.1558  0.6784  0.3031
  164MOL    H5229718   5.985   3.743   0.074 -1.8940 -0.5562 -1.0476
  164MOL    H5329719   6.177   3.701   7.623 -0.6930 -3.9065 -0.2889
  164MOL    H5429720   6.232   3.753   0.080 -0.5334  0.2677  0.8735
  164MOL    H5529721   6.250   3.595   0.038  1.8348  1.7367  0.0692
  164MOL    C5629722   5.960   3.541   0.015  0.5087  0.3551 -0.3511
  164MOL    C5729723   5.812   3.516   0.042  0.5073 -0.5408 -0.7773
  164MOL    C5829724   5.721   3.644   0.037 -0.2371 -0.3401  0.2760
  164MOL    H5929725   5.961   3.574   7.609 -2.4918  0.4253 -0.4114
  164MOL    H6029726   6.012   3.445   0.012 -1.7820 -0.8759 -3.0844
  164MOL    H6129727   5.811   3.479   0.145  1.7500 -5.8674 -2.5107
  164MOL    H6229728   5.615   3.632   0.059 -1.4096  1.1345 -3.8778
  164MOL    H6329729   5.760   3.717   0.108  2.3919 -1.6949  0.2636
  164MOL    H6429730   5.723   3.691   7.635 -0.4295  2.2328  1.4431
  164MOL    C6529731   5.756   3.409   7.635  0.3213 -0.0892 -0.2810
  164MOL    C6629732   5.608   3.362   7.677  0.0713  0.2498  0.1953
  164MOL    C6729733   5.573   3.248   7.579 -0.1065  0.5103  0.0461
  164MOL    H6829734   5.768   3.448   7.534 -3.0632  1.4380 -0.1850
  164MOL    H6929735   5.820   3.322   7.645 -0.3837 -0.6371 -0.5393
  164MOL    H7029736   5.536   3.442   7.659  1.2534  0.9075 -1.7386
  164MOL    H7129737   5.619   3.153   7.608 -0.4402 -0.3160 -2.0456
  164MOL    H7229738   5.464   3.251   7.581 -0.0658  1.4546  0.9116
  164MOL    H7329739   5.613   3.275   7.481 -1.4738 -1.3645 -1.0633
  164MOL    C7429740   5.594   3.309   0.124  0.2889 -0.0497 -0.2448
  164MOL    C7529741   5.456   3.244   0.161  0.4379 -0.2708 -0.0753
  164MOL    C7629742   5.461   3.160   0.284  0.0017 -0.1953  0.4839
  164MOL    H7729743   5.679   3.241   0.140  0.6802  0.5470  0.2116
  164MOL    H7829744   5.611   3.396   0.186 -1.6637  0.3979 -0.3066
  164MOL    H7929745   5.420   3.181   0.080  0.3298  1.8785 -1.7513
  164MOL    H8029746   5.469   3.210   0.380  2.9844  0.9769 -0.3243
  164MOL    H8129747   5.374   3.094   0.289  0.0912 -0.2083  2.2598
  164MOL    H8229748   5.553   3.102   0.271  0.5247  0.6449  0.4000
  164MOL    C8329749   5.357   3.363   0.175  0.5956  0.7720 -0.2562
  164MOL    C8429750   5.209   3.310   0.166 -0.0804  0.2687  0.4741
  164MOL    C8529751   5.126   3.428   0.224  0.3562 -0.2208  0.0768
  164MOL    H8629752   5.387   3.411   0.267  2.5641  1.0940 -1.0525
  164MOL    H8729753   5.373   3.436   0.096 -0.6491  0.3010 -0.9817
  164MOL    H8829754   5.194   3.229   0.237 -1.3195  1.0397  1.1191
  164MOL    H8929755   5.161   3.456   0.323  0.9735 -0.5041 -0.0564
  164MOL    H9029756   5.119   3.518   0.163 -1.9446 -2.2039 -2.7727
  164MOL    H9129757   5.024   3.394   0.244  0.3146  0.1154  0.4283
  164MOL    C9229758   5.159   3.271   0.019 -0.7391  0.2835 -0.6306
  164MOL    C9329759   5.004   3.248   0.010 -0.1966 -0.3172 -0.3427
  164MOL    C9429760   4.955   3.243   7.557  0.1053  0.2545  0.3164
  164MOL    H9529761   5.201   3.338   7.641  0.7780 -1.3237 -1.2485
  164MOL    H9629762   5.208   3.175   7.695  1.1910  1.2420 -0.6266
  164MOL    H9729763   4.948   3.337   0.037  0.4058 -0.6165  2.0182
  164MOL    H9829764   4.982   3.146   7.517 -0.4794  0.4204 -0.4932
  164MOL    H9929765   4.848   3.264   7.560  0.3084  1.1368  2.5079
  164MOL   H10029766   5.010   3.327   7.515 -0.2336  0.9721  1.2849
  164MOL   C10129767   4.964   3.124   0.100  0.5737 -0.1017 -0.0147
  164MOL   C10229768   4.813   3.103   0.115  0.8356 -0.1886  0.1536
  164MOL   C10329769   4.776   2.977   0.192 -0.3504 -0.6582  0.2451
  164MOL   H10429770   5.004   3.036   0.049 -0.6961 -1.1321  0.7280
  164MOL   H10529771   5.007   3.120   0.201 -3.9221 -4.1149  1.9350
  164MOL   H10629772   4.756   3.103   0.022  1.7988 -2.9910 -0.5021
  164MOL   H10729773   4.834   2.972   0.284  1.6984 -0.3518 -1.0047
  164MOL   H10829774   4.675   2.984   0.233 -1.5018  0.8162 -2.7178
  164MOL   H10929775   4.795   2.887   0.134  2.2103  0.1475 -0.1915
  164MOL   C11029776   4.748   3.223   0.192  0.4300  0.2051  0.3458
  164MOL   C11129777   4.604   3.251   0.158  0.7861  0.4111 -0.4231
  164MOL   C11229778   4.536   3.343   0.263 -0.4631 -0.1559  0.2099
  164MOL   H11329779   4.744   3.191   0.296  0.7114  2.5058  1.1020
  164MOL   H11429780   4.795   3.320   0.179 -1.0010  1.1959  2.2439
  164MOL   H11529781   4.543   3.162   0.168  2.0037 -0.4611 -0.6209
  164MOL   H11629782   4.432   3.360   0.234 -0.4877  0.5770  0.7144
  164MOL   H11729783   4.554   3.327   0.369  0.4051  1.7445  0.3749
  164MOL   H11829784   4.584   3.440   0.249 -0.5496  0.1060  1.6958
  164MOL   C11929785   4.578   3.304   0.015  0.1252  0.3794 -0.1443
  164MOL   C12029786   4.502   3.201   7.613 -0.0094  0.0041  0.0979
  164MOL   C12129787   4.356   3.183   7.653  0.4372  0.7133 -0.1679
  164MOL   H12229788   4.508   3.388   0.014  2.4926  2.3784 -2.0234
  164MOL   H12329789   4.665   3.345   7.663 -0.2114 -2.5303 -3.3162
  164MOL   H12429790   4.552   3.105   7.626 -0.6213 -0.3841 -0.4067
  164MOL   H12529791   4.288   3.268   7.641 -0.0279  0.1214 -1.8089
  164MOL   H12629792   4.299   3.117   7.588 -0.8674  1.0510  0.6141
  164MOL   H12729793   4.344   3.146   0.058 -2.3487 -0.7090 -0.9586
  164MOL   C12829794   4.515   3.240   7.461 -0.2235  0.1770 -0.0902
  164MOL   C12929795   4.460   3.138   7.351 -0.5088 -0.2287 -0.4774
  164MOL   C13029796   4.484   3.206   7.214 -0.3639 -0.0616 -0.4914
  164MOL   H13129797   4.478   3.342   7.452 -1.4604 -0.1948  0.5927
  164MOL   H13229798   4.621   3.258   7.443  0.2013 -0.5683  1.5335
  164MOL   H13329799   4.354   3.126   7.374 -0.4110  1.1708  0.7955
  164MOL   H13429800   4.429   3.300   7.205  1.3178  1.0383  0.6160
  164MOL   H13529801   4.589   3.232   7.208  0.0459 -1.5023  0.2863
  164MOL   H13629802   4.461   3.142   7.128  0.6244 -0.4884 -0.4364
  164MOL   C13729803   4.524   2.996   7.363  0.4291  0.0538  0.3221
  164MOL   C13829804   4.459   2.876   7.439  0.3998  0.1542 -0.6537
  164MOL   C13929805   4.323   2.838   7.381 -0.2624 -0.0184  0.0581
  164MOL   H14029806   4.547   2.963   7.262  0.1255  0.6187  0.0642
  164MOL   H14129807   4.623   3.014   7.405 -0.3226 -0.0842  2.1943
  164MOL   H14229808   4.440   2.908   7.541  0.0117  0.6510 -0.8772
  164MOL   H14329809   4.330   2.831   7.272  3.7754 -1.5441  0.3380
  164MOL   H14429810   4.278   2.745   7.417 -1.7792  0.6035 -0.1901
  164MOL   H14529811   4.251   2.920   7.389 -0.1612  0.4259 -3.0769
  164MOL   C14629812   4.555   2.757   7.441 -0.2887 -0.7698  0.0454
  164MOL   C14729813   4.644   2.755   7.569 -0.1349 -0.0029  0.3307
  164MOL   C14829814   4.575   2.700   7.692 -0.1111  0.2645  0.1761
  164MOL   H14929815   4.491   2.669   7.445  0.3461 -1.1856  1.4480
  164MOL   H15029816   4.614   2.760   7.349  0.5259  1.1413  0.6064
  164MOL   H15129817   4.688   2.850   7.598  0.8548 -0.7557  1.3433
  164MOL   H15229818   4.499   2.773   0.021 -0.4273  0.6719 -1.7389
  164MOL   H15329819   4.530   2.603   7.670 -0.8611  1.2454 -3.0349
  164MOL   H15429820   4.643   2.694   0.079  0.4502  0.9947 -0.2179
  164MOL   C15529821   4.767   2.660   7.551  0.1129 -0.0013  0.6298
  164MOL   C15629822   4.866   2.699   7.438 -0.4651  0.2564  0.2395
  164MOL   C15729823   4.924   2.842   7.436  0.6809  0.3813 -0.0547
  164MOL   H15829824   4.814   2.643   7.648  0.7246 -0.4308  0.2588
  164MOL   H15929825   4.731   2.560   7.529 -0.1271  0.1373  0.3829
  164MOL   H16029826   4.820   2.689   7.340 -0.1247 -1.4185  0.2369
  164MOL   H16129827   4.976   2.862   7.530  0.7639  3.7635 -0.7595
  164MOL   H16229828   4.996   2.850   7.354  1.3584 -2.6163  0.1883
  164MOL   H16329829   4.847   2.919   7.432  1.2094  1.0634  2.3407
  164MOL   C16429830   4.967   2.588   7.424 -0.5179  0.1885  0.0357
  164MOL   C16529831   5.073   2.577   7.531 -0.4597  0.0422  0.5355
  164MOL   C16629832   5.058   2.442   7.600  0.5601  0.4055 -0.3984
  164MOL   H16729833   4.912   2.495   7.411 -0.3179  0.2218 -1.0596
  164MOL   H16829834   5.018   2.590   7.328 -1.6909  0.5796 -0.5976
  164MOL   H16929835   5.051   2.655   7.604  0.1550 -1.0638  1.9451
  164MOL   H17029836   5.054   2.353   7.537 -0.3675  0.4326 -0.3786
  164MOL   H17129837   5.138   2.443   7.674 -0.3749  0.3024  0.6167
  164MOL   H17229838   4.968   2.428   7.659 -0.0481 -0.9574 -1.6189
  164MOL   C17329839   5.215   2.588   7.462 -0.1411  0.0987 -0.7332
  164MOL   C17429840   5.261   2.470   7.376  0.1855 -0.3656 -0.3253
  164MOL   C17529841   5.374   2.520   7.285 -0.0092  0.3669 -0.3658
  164MOL   H17629842   5.209   2.688   7.418 -0.2915  0.3877 -0.0626
  164MOL   H17729843   5.296   2.596   7.534 -0.6127 -1.9027  0.0620
  164MOL   H17829844   5.181   2.436   7.311  0.7488 -0.6839 -0.8533
  164MOL   H17929845   5.344   2.611   7.234  1.4747  1.7236  1.1189
  164MOL   H18029846   5.465   2.535   7.343 -0.0026  0.0940 -0.3039
  164MOL   H18129847   5.399   2.441   7.214  0.2609  0.9759 -0.9632
  164MOL   H18229848   5.300   2.384   7.430  0.9925  0.3213  0.2097
  165MOL     C129849   6.302   3.715   1.836 -0.1392  0.6362 -0.3838
  165MOL     C229850   6.390   3.651   1.939  0.1402 -0.0000  0.5319
  165MOL     C329851   6.386   3.744   2.065 -0.6992  1.1001 -0.1093
  165MOL     H429852   6.199   3.738   1.865 -0.5265 -0.8012 -0.5744
  165MOL     H529853   6.295   3.651   1.748  2.4842 -1.1336  0.6470
  165MOL     H629854   6.492   3.645   1.901 -0.3131 -1.2281 -0.5173
  165MOL     H729855   6.414   3.848   2.046 -0.0688  1.1813  1.1982
  165MOL     H829856   6.287   3.752   2.111 -2.3304  1.3288 -3.4573
  165MOL     H929857   6.464   3.719   2.136  0.6182 -0.2831 -2.0067
  165MOL    H1029858   6.341   3.811   1.803 -0.4538  0.4447 -1.3392
  165MOL    C1129859   6.348   3.507   1.971 -0.4738  0.9785 -0.1215
  165MOL    C1229860   6.427   3.434   2.079  0.2333 -0.0816 -0.0362
  165MOL    C1329861   6.355   3.299   2.099 -0.3996  0.3314 -0.0347
  165MOL    H1429862   6.240   3.511   1.984 -0.5968  0.8974 -1.0514
  165MOL    H1529863   6.349   3.455   1.875  0.1442  0.0419  0.3871
  165MOL    H1629864   6.413   3.481   2.176  1.2036 -0.0455  0.0899
  165MOL    H1729865   6.375   3.224   2.022 -0.1094 -0.1899  0.5334
  165MOL    H1829866   6.388   3.241   2.185 -1.4794 -0.0539  0.1291
  165MOL    H1929867   6.249   3.324   2.098  0.0202  2.1972  0.7511
  165MOL    C2029868   6.575   3.412   2.035 -0.0984 -0.1114  0.1111
  165MOL    C2129869   6.663   3.318   2.124 -0.3461 -0.2455  0.2941
  165MOL    C2229870   6.795   3.284   2.054  0.2208  0.0420 -0.1506
  165MOL    H2329871   6.578   3.367   1.936 -1.7418  0.0204 -0.0161
  165MOL    H2429872   6.622   3.508   2.017 -0.3734 -0.2411 -1.3362
  165MOL    H2529873   6.619   3.219   2.136  1.6674 -0.9997  1.6568
  165MOL    H2629874   6.870   3.222   2.104 -1.0833 -0.5461  1.0758
  165MOL    H2729875   6.786   3.234   1.957  1.5785  3.6564 -2.2708
  165MOL    H2829876   6.839   3.378   2.019  0.6826 -0.5982 -1.3300
  165MOL    C2929877   6.676   3.370   2.273 -0.0440  0.4237  0.0748
  165MOL    C3029878   6.762   3.500   2.300  0.0187  0.4407 -0.0908
  165MOL    C3129879   6.690   3.613   2.373 -1.0879 -0.1342 -0.6419
  165MOL    H3229880   6.576   3.378   2.316 -0.3291  0.5246 -0.5875
  165MOL    H3329881   6.716   3.296   2.342 -3.2221  0.1024  1.6635
  165MOL    H3429882   6.777   3.543   2.201  0.4782  0.8135  0.1377
  165MOL    H3529883   6.586   3.607   2.343 -1.2175  1.0623 -0.4754
  165MOL    H3629884   6.696   3.602   2.481  1.4862  0.6320 -0.6548
  165MOL    H3729885   6.737   3.710   2.352  1.8625 -1.5711 -0.9463
  165MOL    C3829886   6.897   3.470   2.363  0.4423  0.1324  0.1240
  165MOL    C3929887   7.009   3.575   2.378 -0.1217 -0.2472  0.1561
  165MOL    C4029888   7.114   3.531   2.480 -0.2183  0.1552  0.1532
  165MOL    H4129889   6.865   3.435   2.461 -1.2506 -2.6275 -1.3554
  165MOL    H4229890   6.930   3.377   2.317  0.3825  0.8122 -1.3063
  165MOL    H4329891   6.968   3.662   2.428  3.5753 -1.0906  4.9856
  165MOL    H4429892   7.118   3.422   2.476  0.8324  0.1967 -0.1074
  165MOL    H4529893   7.216   3.565   2.461 -0.6746  1.7723  0.5233
  165MOL    H4629894   7.093   3.548   2.586  0.4051  1.5650  0.0502
  165MOL    C4729895   7.067   3.625   2.250  0.1656  0.2406  0.4933
  165MOL    C4829896   7.061   3.788   2.230 -0.0493 -0.8474 -0.2582
  165MOL    C4929897   7.176   3.846   2.319  0.5299 -0.0773  0.9239
  165MOL    H5029898   7.171   3.592   2.243  0.1874  0.8164 -2.7158
  165MOL    H5129899   7.012   3.573   2.171 -1.2663 -0.4508  1.9165
  165MOL    H5229900   6.963   3.821   2.265 -0.8331 -2.1369 -1.1989
  165MOL    H5329901   7.176   3.954   2.301  1.2627 -0.7732 -3.6599
  165MOL    H5429902   7.165   3.842   2.428 -0.3615 -1.8253  0.7899
  165MOL    H5529903   7.274   3.804   2.299 -0.4021 -1.4363 -0.9233
  165MOL    C5629904   7.080   3.830   2.081  0.0773  0.0513  0.3626
  165MOL    C5729905   6.955   3.804   1.998 -0.2721 -0.1087  0.1999
  165MOL    C5829906   6.824   3.875   2.037  0.1267 -0.0794  0.4749
  165MOL    H5929907   7.111   3.934   2.081  0.7479 -0.1477  0.7795
  165MOL    H6029908   7.176   3.793   2.044  0.0089 -1.1452  1.3221
  165MOL    H6129909   6.932   3.698   2.006 -0.2819 -0.2296 -1.2697
  165MOL    H6229910   6.839   3.982   2.037 -1.2519  0.1216  0.4305
  165MOL    H6329911   6.743   3.840   1.973  1.2790 -0.0458 -1.0429
  165MOL    H6429912   6.799   3.843   2.138 -4.3259  2.8590  0.4005
  165MOL    C6529913   6.981   3.827   1.847  0.1132  0.1544  0.5262
  165MOL    C6629914   7.069   3.724   1.776 -0.6595  0.3750 -0.8539
  165MOL    C6729915   7.016   3.576   1.769 -0.6376  0.2716  0.2539
  165MOL    H6829916   6.883   3.839   1.799 -1.1005 -1.5672  2.4631
  165MOL    H6929917   7.034   3.922   1.841 -0.4463  0.4728  0.5549
  165MOL    H7029918   7.157   3.710   1.838 -2.4667 -0.1377  1.6404
  165MOL    H7129919   7.012   3.531   1.869 -2.9598  1.3898  0.6948
  165MOL    H7229920   6.908   3.574   1.759 -0.2890  0.0761 -4.2857
  165MOL    H7329921   7.053   3.497   1.704 -1.0553 -1.2312  1.7929
  165MOL    C7429922   7.117   3.774   1.643 -0.0064 -0.5517  0.0944
  165MOL    C7529923   7.231   3.883   1.645  0.0161 -0.5619  0.3545
  165MOL    C7629924   7.363   3.824   1.600 -0.4848 -0.0734 -0.8676
  165MOL    H7729925   7.165   3.690   1.592  0.2888 -1.3898  1.7390
  165MOL    H7829926   7.032   3.797   1.578 -1.2945  0.1650  1.9993
  165MOL    H7929927   7.247   3.921   1.745  0.2392  3.3262 -1.0912
  165MOL    H8029928   7.350   3.788   1.498 -1.2431  0.9791 -1.1440
  165MOL    H8129929   7.446   3.894   1.597 -0.7707  0.3904  1.4254
  165MOL    H8229930   7.389   3.739   1.664 -2.5399 -0.1666 -0.1214
  165MOL    C8329931   7.183   3.993   1.557  0.0195 -0.2516 -0.1568
  165MOL    C8429932   7.260   4.126   1.542 -0.4555  0.6937  0.1054
  165MOL    C8529933   7.215   4.215   1.427  0.0600 -0.2564 -0.3404
  165MOL    H8629934   7.188   3.950   1.457 -0.0062 -0.9673  0.1488
  165MOL    H8729935   7.079   4.011   1.581  0.2749  1.2580 -0.0881
  165MOL    H8829936   7.361   4.092   1.521 -1.4680 -2.1263 -0.4148
  165MOL    H8929937   7.107   4.224   1.437  0.0923 -1.2704  1.2455
  165MOL    H9029938   7.267   4.310   1.428 -1.4573  0.5770  1.7718
  165MOL    H9129939   7.231   4.160   1.334 -0.1867 -2.9303  1.1240
  165MOL    C9229940   7.264   4.198   1.679 -0.0603  0.2947 -0.6269
  165MOL    C9329941   7.344   4.336   1.675 -0.1114 -0.5720  0.1917
  165MOL    C9429942   7.242   4.450   1.693  0.6770  0.2228  0.0840
  165MOL    H9529943   7.163   4.213   1.718 -0.0608  3.4550 -1.7342
  165MOL    H9629944   7.303   4.139   1.762 -0.0394  1.6266  0.3251
  165MOL    H9729945   7.396   4.350   1.580 -0.1270 -0.4110  0.2057
  165MOL    H9829946   7.181   4.445   1.783 -0.4481 -1.8209 -0.7521
  165MOL    H9929947   7.299   4.542   1.702  0.9389  0.0769 -0.0589
  165MOL   H10029948   7.169   4.451   1.612  2.0027 -0.8954 -1.1582
  165MOL   C10129949   7.443   4.341   1.799  0.3314  0.5239  0.2927
  165MOL   C10229950   7.559   4.234   1.792  0.3574 -0.3444 -0.4076
  165MOL   C10329951   7.678   4.281   1.705  0.3833 -0.4724 -0.4116
  165MOL   H10429952   7.486   4.438   1.821 -2.0692  1.3531  1.5427
  165MOL   H10529953   7.380   4.327   1.887 -0.1143  1.0523  0.0575
  165MOL   H10629954   7.532   4.141   1.741  2.3766 -0.1670 -1.8773
  165MOL   H10729955   0.063   4.210   1.701  0.9418  0.2602 -2.2411
  165MOL   H10829956   7.635   4.291   1.605 -0.3841  0.2663 -0.0166
  165MOL   H10929957   0.016   4.377   1.743  0.0410 -0.8622  0.9301
  165MOL   C11029958   7.607   4.215   1.934 -0.2046  0.0580  0.4620
  165MOL   C11129959   7.529   4.118   2.023 -0.3405  0.5564  0.5156
  165MOL   C11229960   7.507   3.979   1.951 -0.6557 -0.5113  1.1742
  165MOL   H11329961   0.014   4.181   1.930 -0.2055 -0.2225  2.1449
  165MOL   H11429962   7.617   4.307   1.992  0.8404  0.1501  0.1544
  165MOL   H11529963   7.428   4.156   2.041 -1.6425 -1.3874 -2.3804
  165MOL   H11629964   7.591   3.967   1.882  0.4109 -1.3862  2.6036
  165MOL   H11729965   7.513   3.895   2.020 -0.8285 -0.5449  1.1480
  165MOL   H11829966   7.421   3.969   1.884  1.2044 -0.5907 -1.2605
  165MOL   C11929967   7.609   4.100   2.160  0.5036  0.2611  0.1484
  165MOL   C12029968   7.600   4.204   2.265 -0.0511 -0.3325  0.9929
  165MOL   C12129969   7.453   4.230   2.301  0.5524  0.0094 -0.0313
  165MOL   H12229970   7.567   4.011   2.206 -1.1808  0.9740  0.0139
  165MOL   H12329971   0.017   4.077   2.141  0.7271 -0.3677  2.0839
  165MOL   H12429972   7.635   4.300   2.227  3.0039 -0.9747  2.1317
  165MOL   H12529973   7.428   4.286   2.391 -1.9112 -0.6519 -0.2691
  165MOL   H12629974   7.393   4.271   2.220  2.8836  3.3523 -0.1715
  165MOL   H12729975   7.404   4.142   2.341  0.5349  0.6441  1.3763
  165MOL   C12829976   7.689   4.176   2.392 -0.4565 -0.4479  0.6925
  165MOL   C12929977   0.142   4.206   2.377 -0.5278  0.0057 -0.0451
  165MOL   C13029978   0.164   4.354   2.380  0.1909  0.1288  0.2534
  165MOL   H13129979   7.637   4.223   2.476  0.4416 -1.0447  1.6045
  165MOL   H13229980   7.683   4.069   2.415  1.5136 -0.4284  1.4157
  165MOL   H13329981   0.164   4.160   2.281  0.2131  1.3782 -0.5363
  165MOL   H13429982   0.269   4.382   2.390  0.1411  0.4223 -0.0483
  165MOL   H13529983   0.134   4.390   2.282 -0.8131  0.5258  0.6964
  165MOL   H13629984   0.112   4.409   2.459  0.5794 -2.7807  2.6159
  165MOL   C13729985   0.234   4.136   2.483 -0.7536 -0.4443 -0.6751
  165MOL   C13829986   0.392   4.154   2.470 -1.0667 -0.2378  0.8432
  165MOL   C13929987   0.441   4.256   2.574 -0.1246  0.2297  0.3417
  165MOL   H14029988   0.195   4.170   2.579  0.8703 -1.4414  0.3758
  165MOL   H14129989   0.206   4.031   2.494 -0.4346 -0.4930 -0.2980
  165MOL   H14229990   0.425   4.198   2.376 -1.7431 -0.3889  0.5340
  165MOL   H14329991   0.379   4.346   2.578 -4.0740 -2.4411  2.5498
  165MOL   H14429992   0.431   4.210   2.673  0.5082  1.8995  1.2057
  165MOL   H14529993   0.544   4.290   2.567  0.3312 -0.6011  2.6213
  165MOL   C14629994   0.460   4.010   2.488 -0.2630  0.1330  0.4145
  165MOL   C14729995   0.433   3.905   2.377 -0.1437  0.1438 -0.4070
  165MOL   C14829996   0.461   3.959   2.229 -0.5524  0.2277  0.3052
  165MOL   H14929997   0.569   4.015   2.493 -0.0012 -3.1874 -0.2359
  165MOL   H15029998   0.419   3.969   2.581 -1.4197  0.1025 -0.0935
  165MOL   H15129999   0.328   3.878   2.383 -0.0522 -0.1145  0.0242
  165MOL   H15230000   0.454   3.885   2.150  0.1574  0.2812  0.1944
  165MOL   H15330001   0.400   4.048   2.212 -1.5296 -0.4855  0.0117
  165MOL   H15430002   0.564   3.989   2.245  0.2057 -2.8409  1.5710
  165MOL   C15530003   0.509   3.776   2.406 -0.4447  0.3256 -0.1436
  165MOL   C15630004   0.442   3.685   2.507  0.5755 -0.2680  0.1651
  165MOL   C15730005   0.359   3.582   2.423  0.2273 -0.3780 -0.1726
  165MOL   H15830006   0.538   3.718   2.319  1.3324 -0.7746  1.1470
  165MOL   H15930007   0.609   3.806   2.440  0.1378 -1.6770 -0.0639
  165MOL   H16030008   0.387   3.757   2.567 -0.3240 -0.9831  0.2137
  165MOL   H16130009   0.305   3.628   2.340  1.7306  0.8432 -0.4999
  165MOL   H16230010   0.424   3.514   2.369  0.1100  0.0434 -0.8582
  165MOL   H16330011   0.296   3.516   2.483 -0.0508 -0.2654 -0.3380
  165MOL   C16430012   0.545   3.602   2.596  0.3409 -0.2809  0.6828
  165MOL   C16530013   0.588   3.672   2.724  0.0127 -0.1792  0.0455
  165MOL   C16630014   0.470   3.671   2.826  0.4448 -0.4447 -0.6259
  165MOL   H16730015   0.500   3.506   2.622 -0.3139 -0.1989 -0.1375
  165MOL   H16830016   0.628   3.576   2.531 -0.8928 -2.6606 -0.0115
  165MOL   H16930017   0.613   3.772   2.687 -0.8433 -0.2830 -0.8384
  165MOL   H17030018   0.507   3.698   2.925  0.9513  0.7600 -1.1409
  165MOL   H17130019   0.401   3.754   2.814  0.2009 -0.1448  2.5967
  165MOL   H17230020   0.423   3.573   2.834  2.0801 -1.0554  2.4218
  165MOL   C17330021   0.710   3.594   2.769  0.1570 -0.3066 -0.1504
  165MOL   C17430022   0.788   3.687   2.867 -0.6126 -0.7255  0.3692
  165MOL   C17530023   0.925   3.624   2.921  0.2862 -0.3707 -0.0531
  165MOL   H17630024   0.685   3.503   2.824  2.0572 -1.4481 -1.1338
  165MOL   H17730025   0.778   3.578   2.685 -0.1924 -2.9907  0.0497
  165MOL   H17830026   0.717   3.726   2.941 -1.0802  1.7544 -1.3193
  165MOL   H17930027   0.990   3.577   2.848  0.6730  0.8872 -0.5338
  165MOL   H18030028   0.986   3.710   2.947 -1.3892  0.9783 -0.4990
  165MOL   H18130029   0.904   3.568   3.013 -0.0739 -1.6992 -0.9368
  165MOL   H18230030   0.824   3.772   2.808  0.8268 -0.6535  1.3208
  166MOL     C130031   3.625   1.586   1.018  0.5131 -0.6695 -0.4140
  166MOL     C230032   3.617   1.612   1.168 -0.2513 -0.1646  0.6350
  166MOL     C330033   3.752   1.589   1.233  0.3749  0.7957  0.4485
  166MOL     H430034   3.631   1.479   0.996 -0.2526 -0.6508 -0.7282
  166MOL     H530035   3.717   1.624   0.974  0.2282  0.9731  0.3958
  166MOL     H630036   3.549   1.534   1.203 -0.0386  0.3798  2.2940
  166MOL     H730037   3.754   1.609   1.341  2.1598 -0.2113  0.6123
  166MOL     H830038   3.773   1.482   1.225  0.9423  1.1084 -2.6039
  166MOL     H930039   3.829   1.652   1.189  1.1634 -0.4193  0.0564
  166MOL    H1030040   3.540   1.628   0.966 -1.0402 -0.4651  2.1881
  166MOL    C1130041   3.574   1.755   1.200 -0.0893  0.1281  0.2502
  166MOL    C1230042   3.422   1.782   1.167  0.2727  0.2185  0.3328
  166MOL    C1330043   3.315   1.726   1.271 -0.0065  0.2547  0.2006
  166MOL    H1430044   3.579   1.785   1.305 -1.1701  2.8709 -0.4386
  166MOL    H1530045   3.641   1.825   1.151  0.5331  0.1176  1.0711
  166MOL    H1630046   3.400   1.722   1.079  1.2698  0.7793 -0.3014
  166MOL    H1730047   3.277   1.813   1.324 -1.7605  0.7319 -1.7838
  166MOL    H1830048   3.235   1.685   1.210  1.2456  0.7780 -1.8674
  166MOL    H1930049   3.369   1.653   1.331 -2.5523 -0.0498  2.1699
  166MOL    C2030050   3.382   1.934   1.127  0.0264 -0.0001  0.6140
  166MOL    C2130051   3.444   1.982   0.991  0.4275 -0.0960  0.1811
  166MOL    C2230052   3.378   1.928   0.867 -0.7413  0.0975  0.1601
  166MOL    H2330053   3.274   1.943   1.111  0.6131  0.6085 -3.4289
  166MOL    H2430054   3.409   2.000   1.209 -2.6831  0.7107  1.0152
  166MOL    H2530055   3.550   1.959   0.986 -0.1814 -2.9756  0.0644
  166MOL    H2630056   3.416   1.827   0.852 -0.3998  0.4552 -1.5478
  166MOL    H2730057   3.269   1.928   0.877 -0.5524  1.4799  2.6666
  166MOL    H2830058   3.403   1.972   0.771  2.6590  0.9400  1.3806
  166MOL    C2930059   3.451   2.142   0.989  0.3974 -0.4281 -0.1601
  166MOL    C3030060   3.521   2.214   0.869  0.5653  0.7197  0.2532
  166MOL    C3130061   3.513   2.367   0.890  0.3912 -0.2146 -0.3016
  166MOL    H3230062   3.352   2.186   1.000  0.9420  0.6943  0.3480
  166MOL    H3330063   3.507   2.177   1.076  1.1367 -0.1005 -0.7553
  166MOL    H3430064   3.470   2.180   0.779  0.4247 -0.5785  0.8208
  166MOL    H3530065   3.533   2.412   0.793 -1.5694 -2.6063 -1.8842
  166MOL    H3630066   3.414   2.393   0.927  1.8994  1.4945  2.6434
  166MOL    H3730067   3.581   2.410   0.963  1.5442 -1.2517 -0.7540
  166MOL    C3830068   3.668   2.173   0.859 -0.3843 -0.3908  0.1249
  166MOL    C3930069   3.737   2.239   0.732 -0.4139 -0.0073  0.5889
  166MOL    C4030070   3.857   2.328   0.754  0.5227  0.1754 -0.1634
  166MOL    H4130071   3.712   2.218   0.948  0.7839  1.0868 -1.1698
  166MOL    H4230072   3.685   2.065   0.861 -1.3387 -0.5784 -1.3014
  166MOL    H4330073   3.665   2.302   0.680 -1.9356 -0.1723  2.4482
  166MOL    H4430074   3.943   2.263   0.774 -1.5350 -2.5508  0.0714
  166MOL    H4530075   3.883   2.408   0.686  0.6954  0.0730 -0.2178
  166MOL    H4630076   3.839   2.377   0.850  2.9661  1.9226 -0.5402
  166MOL    C4730077   3.769   2.129   0.629 -0.1399 -0.2328 -0.1437
  166MOL    C4830078   3.651   2.054   0.557  0.1845 -0.2028 -0.8525
  166MOL    C4930079   3.588   2.149   0.449 -0.0137 -0.0615 -0.4994
  166MOL    H5030080   3.818   2.180   0.547 -1.0938  0.8707 -0.0381
  166MOL    H5130081   3.837   2.062   0.682 -1.2288 -0.1768  1.3809
  166MOL    H5230082   3.573   2.037   0.632  1.8972  1.8345  1.5029
  166MOL    H5330083   3.548   2.241   0.493  0.1688 -0.5579  0.7391
  166MOL    H5430084   3.663   2.180   0.376  2.4396 -0.4031  1.7876
  166MOL    H5530085   3.508   2.101   0.394  0.8440 -2.3649  0.1950
  166MOL    C5630086   3.695   1.933   0.486 -0.5156 -0.2822  0.2924
  166MOL    C5730087   3.741   1.818   0.573  0.3437  0.3159 -0.5001
  166MOL    C5830088   3.674   1.798   0.711  0.1701 -0.1756  0.6237
  166MOL    H5930089   3.616   1.895   0.422  0.7687 -3.1564  0.3654
  166MOL    H6030090   3.774   1.957   0.415  1.6377 -0.0827  2.7113
  166MOL    H6130091   3.841   1.850   0.601  0.3291  0.0401 -0.1252
  166MOL    H6230092   3.742   1.735   0.768  0.8185 -0.9580 -0.9826
  166MOL    H6330093   3.662   1.891   0.767  1.8872  0.9921 -0.9176
  166MOL    H6430094   3.577   1.749   0.703  0.2196 -0.2092  0.2422
  166MOL    C6530095   3.754   1.686   0.506  0.3501  0.5108  0.1667
  166MOL    C6630096   3.849   1.664   0.389 -0.4496 -0.0430 -0.3164
  166MOL    C6730097   3.995   1.672   0.441  0.3363 -0.1020  0.3262
  166MOL    H6830098   3.782   1.609   0.578 -0.6384  0.8402  0.9242
  166MOL    H6930099   3.657   1.652   0.468  0.5671 -0.2038  0.2367
  166MOL    H7030100   3.836   1.743   0.315 -2.0663 -0.8108 -0.8642
  166MOL    H7130101   4.064   1.665   0.356  1.7081 -0.1672  1.4205
  166MOL    H7230102   4.008   1.776   0.474  1.5603  0.4084 -1.6428
  166MOL    H7330103   4.026   1.600   0.516  0.8419 -0.4662 -0.2288
  166MOL    C7430104   3.822   1.518   0.333 -0.5027  0.1556 -0.1656
  166MOL    C7530105   3.920   1.495   0.207  0.5759  0.4483 -0.8003
  166MOL    C7630106   3.899   1.348   0.167 -0.6612  0.0838 -0.7395
  166MOL    H7730107   3.846   1.440   0.405  0.7647 -1.3100 -2.1260
  166MOL    H7830108   3.716   1.509   0.309 -0.7539  0.6153  0.7454
  166MOL    H7930109   4.022   1.482   0.243  0.0418  0.0500  0.6209
  166MOL    H8030110   3.898   1.279   0.251  0.1547 -1.0534 -1.6357
  166MOL    H8130111   3.802   1.331   0.122 -0.9505  0.0036 -0.0918
  166MOL    H8230112   3.974   1.318   0.094  0.3776  1.3780 -0.2331
  166MOL    C8330113   3.899   1.594   0.093 -0.2179  0.2808  0.6515
  166MOL    C8430114   4.001   1.583   7.679  0.2977 -0.7571 -0.3941
  166MOL    C8530115   3.946   1.662   7.559  0.1893  0.5830  0.7718
  166MOL    H8630116   3.797   1.584   0.057 -0.2841  0.8079  0.6947
  166MOL    H8730117   3.917   1.695   0.129  3.1693  0.5384 -1.5293
  166MOL    H8830118   4.002   1.478   7.652  0.4606 -0.7886 -0.2650
  166MOL    H8930119   4.004   1.629   7.473 -1.3078  3.1043 -1.2972
  166MOL    H9030120   3.841   1.646   7.535  1.0418 -0.2670 -2.7452
  166MOL    H9130121   3.976   1.767   7.567 -0.7414  0.8884  0.3454
  166MOL    C9230122   4.145   1.634   0.025  0.4174 -0.1879 -0.0731
  166MOL    C9330123   4.259   1.604   7.619  0.0416  0.7349 -0.4455
  166MOL    C9430124   4.386   1.674   7.656  0.6812  0.7713  0.1519
  166MOL    H9530125   4.138   1.742   0.041  1.4064  0.0357 -1.0318
  166MOL    H9630126   4.182   1.597   0.120  0.0313  2.2654  1.0628
  166MOL    H9730127   4.230   1.635   7.519  0.1866  0.0920 -0.6892
  166MOL    H9830128   4.371   1.782   7.661  2.4480  1.0412 -0.0325
  166MOL    H9930129   4.417   1.643   0.058  1.8580 -1.2111 -0.8042
  166MOL   H10030130   4.467   1.670   7.582  1.1895 -3.1820  0.8399
  166MOL   C10130131   4.287   1.452   7.605 -0.8126  0.2751 -0.2461
  166MOL   C10230132   4.290   1.394   7.457  0.2505  0.0980 -0.0562
  166MOL   C10330133   4.393   1.478   7.376 -0.1567  0.1355  0.5326
  166MOL   H10430134   4.381   1.424   7.653 -0.9002  1.4692  0.6193
  166MOL   H10530135   4.211   1.401   7.663  0.2829 -0.0679  0.9249
  166MOL   H10630136   4.196   1.404   7.403 -0.5081 -0.1983  1.2210
  166MOL   H10730137   4.425   1.428   7.285 -0.5647  2.3999 -0.8937
  166MOL   H10830138   4.349   1.572   7.343 -2.0359 -0.7042  0.5791
  166MOL   H10930139   4.487   1.489   7.431  0.8759 -0.4545 -1.0929
  166MOL   C11030140   4.319   1.239   7.457  0.3379 -0.1949  0.0979
  166MOL   C11130141   4.228   1.149   7.545 -0.0556  0.0339  0.6280
  166MOL   C11230142   4.077   1.166   7.513  0.4751  0.4188 -0.3990
  166MOL   H11330143   4.311   1.203   7.354  0.8093  0.6561 -0.2477
  166MOL   H11430144   4.422   1.218   7.485  0.3072 -1.2211 -0.5197
  166MOL   H11530145   4.260   1.195   7.639  2.1596  0.2063 -0.1813
  166MOL   H11630146   4.027   1.116   7.596  0.2361 -1.0381 -1.4041
  166MOL   H11730147   4.038   1.265   7.536  1.0406  1.3656 -3.3340
  166MOL   H11830148   4.042   1.137   7.414  0.4522  0.9090 -0.5357
  166MOL   C11930149   4.268   1.003   7.552 -0.6505  0.2893 -0.3613
  166MOL   C12030150   4.205   0.923   7.674  0.7309  0.2037  0.6683
  166MOL   C12130151   4.256   0.777   7.666 -0.1504  0.1386 -0.2663
  166MOL   H12230152   4.243   0.962   7.454  0.0285  0.0958 -0.4627
  166MOL   H12330153   4.374   0.977   7.545 -0.7406 -0.2789  0.2530
  166MOL   H12430154   4.096   0.921   7.680  0.6917  0.5494  0.1382
  166MOL   H12530155   4.196   0.708   0.029 -1.6123  3.3471  2.0677
  166MOL   H12630156   4.246   0.741   7.564 -0.0655  0.4781 -0.3917
  166MOL   H12730157   4.362   0.758   7.682  0.6429  3.1081 -1.7437
  166MOL   C12830158   4.249   0.984   0.115 -0.6896 -0.3339 -0.1933
  166MOL   C12930159   4.217   0.918   0.252 -0.1640  0.1152 -0.4777
  166MOL   C13030160   4.321   0.971   0.353 -0.3112  0.0498  0.0903
  166MOL   H13130161   4.353   1.018   0.111 -0.4740 -1.2323 -2.9258
  166MOL   H13230162   4.202   1.083   0.117  1.1789  0.6021 -1.4304
  166MOL   H13330163   4.255   0.817   0.234 -1.7127 -0.4613 -0.6112
  166MOL   H13430164   4.415   0.985   0.302 -0.5928 -1.1461 -0.7785
  166MOL   H13530165   4.288   1.068   0.391  0.3969  0.7810 -1.1631
  166MOL   H13630166   4.338   0.907   0.441 -0.3642  0.9218  0.7389
  166MOL   C13730167   4.072   0.912   0.292  0.1045 -0.1443 -0.0000
  166MOL   C13830168   4.046   0.829   0.423 -0.1619  0.2697 -0.2646
  166MOL   C13930169   3.892   0.837   0.465  0.3387 -0.3973  0.0015
  166MOL   H14030170   4.040   1.015   0.308 -0.5734 -0.4774  0.8422
  166MOL   H14130171   4.009   0.866   0.216 -2.2898 -1.3374  2.5840
  166MOL   H14230172   4.105   0.871   0.504 -0.0079 -0.5461  0.0584
  166MOL   H14330173   3.874   0.805   0.568 -1.5761  0.1543 -0.1259
  166MOL   H14430174   3.847   0.936   0.467  1.8381  0.2819  0.7806
  166MOL   H14530175   3.833   0.780   0.393  1.1591 -0.4008 -0.6758
  166MOL   C14630176   4.087   0.680   0.417 -0.2748  0.5468 -0.2435
  166MOL   C14730177   4.073   0.587   0.544  0.4451 -0.4424  0.8861
  166MOL   C14830178   4.109   0.441   0.515  0.1737  0.3462 -0.4506
  166MOL   H14930179   4.009   0.640   0.352  2.1790 -3.1109 -1.0759
  166MOL   H15030180   4.176   0.656   0.360  0.4740  2.7315 -0.0499
  166MOL   H15130181   3.975   0.600   0.590  1.6283  0.1856  3.3334
  166MOL   H15230182   4.060   0.379   0.590 -0.9870  0.5599 -1.0233
  166MOL   H15330183   4.066   0.405   0.422  0.9292 -1.9021  0.0478
  166MOL   H15430184   4.215   0.415   0.515 -0.3936 -2.1382 -0.3005
  166MOL   C15530185   4.165   0.642   0.660  0.8342  0.1517  0.9009
  166MOL   C15630186   4.147   0.567   0.791 -0.6207  0.4144  0.0338
  166MOL   C15730187   4.274   0.482   0.828  0.3340  0.6526  0.2763
  166MOL   H15830188   4.269   0.639   0.630  0.8290 -0.4243  0.9237
  166MOL   H15930189   4.149   0.747   0.682 -2.5124 -0.2529  0.7637
  166MOL   H16030190   4.065   0.498   0.772  0.5896 -0.4028 -2.4817
  166MOL   H16130191   4.354   0.543   0.870  1.4689  0.6851 -1.8612
  166MOL   H16230192   4.259   0.418   0.915  2.0077 -0.8355 -0.5108
  166MOL   H16330193   4.317   0.417   0.752 -0.4302 -0.5157  0.8285
  166MOL   C16430194   4.090   0.656   0.900  0.2867 -0.2008 -0.9459
  166MOL   C16530195   4.057   0.593   1.040  0.1262 -0.7478 -1.1075
  166MOL   C16630196   4.003   0.705   1.129  0.1049 -0.4918 -0.8751
  166MOL   H16730197   4.163   0.736   0.917  0.9124 -1.3440  1.9969
  166MOL   H16830198   3.997   0.696   0.859  1.2899  1.8131 -1.3409
  166MOL   H16930199   4.145   0.548   1.084  0.4380  0.0859 -0.8694
  166MOL   H17030200   4.075   0.786   1.122 -0.0769 -0.0044  2.1564
  166MOL   H17130201   3.910   0.752   1.098  0.3997 -0.3353 -1.5118
  166MOL   H17230202   3.981   0.666   1.229 -1.1516  1.8090 -0.2251
  166MOL   C17330203   3.949   0.481   1.020  0.2276  0.2986  0.3062
  166MOL   C17430204   3.904   0.410   1.156  0.0113  0.0222 -0.3243
  166MOL   C17530205   4.012   0.310   1.195 -0.3980  0.2809 -0.5331
  166MOL   H17630206   3.870   0.526   0.959 -2.1150 -1.1886  2.1627
  166MOL   H17730207   3.971   0.393   0.960 -1.8147 -0.0874  0.0902
  166MOL   H17830208   3.812   0.353   1.145  1.0030 -1.3120 -2.0584
  166MOL   H17930209   4.105   0.360   1.221 -0.3056  0.2485 -0.7967
  166MOL   H18030210   3.965   0.242   1.266  0.5540  0.5436  0.3497
  166MOL   H18130211   4.039   0.239   1.117  0.6015 -0.6289  0.6201
  166MOL   H18230212   3.887   0.492   1.225  0.7710  0.7245 -0.9592
  167MOL     C130213   3.316   3.789   0.451 -0.1785  0.1048 -0.7607
  167MOL     C230214   3.177   3.849   0.437 -0.0705 -0.0172  0.0730
  167MOL     C330215   3.071   3.744   0.393 -0.1462  0.5404 -0.1758
  167MOL     H430216   3.348   3.748   0.356  0.8378 -1.3451  0.1733
  167MOL     H530217   3.316   3.709   0.525 -0.2096  0.2468 -0.6054
  167MOL     H630218   3.173   3.909   0.346  0.1504  0.9356  0.6810
  167MOL     H730219   3.043   3.676   0.472 -0.6261 -0.0001 -0.8067
  167MOL     H830220   2.973   3.788   0.373 -0.5316  0.0991  0.7577
  167MOL     H930221   3.102   3.683   0.308 -0.7554 -1.1604  0.8100
  167MOL    H1030222   3.388   3.865   0.482 -0.7191  0.1767  0.3796
  167MOL    C1130223   3.127   3.939   0.550  0.1562  0.3825 -0.5272
  167MOL    C1230224   2.986   4.008   0.523 -0.0673  0.1662  0.3180
  167MOL    C1330225   2.953   4.067   0.660  0.7534 -0.1140  0.0076
  167MOL    H1430226   3.121   3.862   0.627  2.5238  1.0110  0.3297
  167MOL    H1530227   3.208   4.009   0.570 -0.8981  1.1167  1.2941
  167MOL    H1630228   2.907   3.939   0.497  1.0882 -1.4040  0.8928
  167MOL    H1730229   2.968   3.988   0.734 -0.4738 -1.5983 -1.2786
  167MOL    H1830230   3.011   4.155   0.686 -0.4192  0.6457  0.0594
  167MOL    H1930231   2.849   4.097   0.658  1.1559  1.2312 -1.9819
  167MOL    C2030232   2.998   4.119   0.420 -1.0383  0.0708  0.2915
  167MOL    C2130233   2.865   4.181   0.366 -0.5528  0.6043  0.3030
  167MOL    C2230234   2.895   4.310   0.304  0.5893 -0.3297 -0.1637
  167MOL    H2330235   3.058   4.197   0.466  0.1928 -1.9173  2.1735
  167MOL    H2430236   3.051   4.083   0.332  0.6347 -0.1165  1.3571
  167MOL    H2530237   2.805   4.197   0.455 -1.0312 -0.1669  0.1253
  167MOL    H2630238   2.976   4.358   0.358 -0.1054  0.3377  0.2862
  167MOL    H2730239   2.919   4.299   0.199  4.4898  0.5371  0.5790
  167MOL    H2830240   2.802   4.366   0.309 -1.1432 -3.2106  2.1135
  167MOL    C2930241   2.797   4.082   0.262  0.7974  0.5029 -0.5757
  167MOL    C3030242   2.655   4.115   0.226  0.3878 -0.3640  0.1832
  167MOL    C3130243   2.630   4.039   0.097  0.5602 -0.3506  0.0277
  167MOL    H3230244   2.862   4.073   0.175 -0.3849  1.0966 -1.5234
  167MOL    H3330245   2.806   3.979   0.299 -0.6674 -0.4958 -2.8960
  167MOL    H3430246   2.662   4.222   0.207 -1.7569 -0.5287 -1.7698
  167MOL    H3530247   2.526   4.035   0.067 -0.1105  1.4518  1.9808
  167MOL    H3630248   2.696   4.072   0.016  1.4532  4.5345  2.5463
  167MOL    H3730249   2.653   3.936   0.125  0.8392  0.4079  2.7516
  167MOL    C3830250   2.546   4.084   0.330 -0.4823  0.0322 -0.2899
  167MOL    C3930251   2.409   4.149   0.317  0.1874 -0.0985 -0.4825
  167MOL    C4030252   2.309   4.075   0.407 -0.0614 -0.0880 -0.1524
  167MOL    H4130253   2.528   3.977   0.337  0.0775  0.0447  1.8717
  167MOL    H4230254   2.586   4.102   0.430 -1.4798 -0.0833  0.1315
  167MOL    H4330255   2.361   4.138   0.220 -1.4543  0.1442  0.2858
  167MOL    H4430256   2.294   3.971   0.381 -1.9970 -0.3514  1.8489
  167MOL    H4530257   2.333   4.076   0.513  3.2199  0.3122 -0.8491
  167MOL    H4630258   2.207   4.113   0.404 -0.1571  0.1643  3.7411
  167MOL    C4730259   2.411   4.298   0.357 -0.2685  0.7345  0.3654
  167MOL    C4830260   2.276   4.381   0.328 -0.9055  0.1361  0.3215
  167MOL    C4930261   2.236   4.460   0.455 -0.2806 -0.5022  0.7085
  167MOL    H5030262   2.445   4.319   0.458 -0.7914  2.8325  0.1351
  167MOL    H5130263   2.482   4.357   0.298  0.7489  1.6516  2.4715
  167MOL    H5230264   2.192   4.311   0.324 -1.1560  0.4936 -0.8827
  167MOL    H5330265   2.219   4.400   0.544 -0.4549  0.0400  1.0389
  167MOL    H5430266   2.322   4.523   0.478 -0.1054 -0.2659 -0.5630
  167MOL    H5530267   2.152   4.518   0.416  0.4058  1.1155  1.6228
  167MOL    C5630268   2.283   4.472   0.202 -0.8366 -0.9273  1.0434
  167MOL    C5730269   2.309   4.401   0.060  0.1920 -0.6448 -0.3612
  167MOL    C5830270   2.204   4.424   7.646 -0.0424 -0.5699 -0.0952
  167MOL    H5930271   2.183   4.511   0.182 -0.1306  0.4457  0.1912
  167MOL    H6030272   2.341   4.562   0.216 -0.8943 -0.7910  0.3969
  167MOL    H6130273   2.286   4.295   0.074  1.7523 -0.6856  2.2076
  167MOL    H6230274   2.198   4.528   7.616 -1.0283 -0.1087  1.5995
  167MOL    H6330275   2.230   4.360   7.561 -2.2234 -2.1421  0.3877
  167MOL    H6430276   2.109   4.384   7.682 -0.9828  1.1466 -0.6090
  167MOL    C6530277   2.456   4.424   0.011  0.1510  0.2039  0.0866
  167MOL    C6630278   2.493   4.558   7.644  0.2866  0.7094  0.0071
  167MOL    C6730279   2.643   4.601   7.679 -0.2657 -0.4234 -0.1159
  167MOL    H6830280   2.522   4.401   0.094  0.5729 -0.6931 -0.4868
  167MOL    H6930281   2.485   4.338   7.647  1.6758 -0.5958  1.9015
  167MOL    H7030282   2.425   4.636   7.679 -1.4400  0.1444 -1.9410
  167MOL    H7130283   2.711   4.520   7.656  1.1200  1.2888 -2.2796
  167MOL    H7230284   2.663   4.689   7.618 -0.5299  0.5185  1.1289
  167MOL    H7330285   2.652   4.620   0.089 -0.0376 -0.1940 -0.1753
  167MOL    C7430286   2.472   4.553   7.486  0.1954  0.4951 -0.8949
  167MOL    C7530287   2.438   4.692   7.430 -0.0275  0.6290 -0.6299
  167MOL    C7630288   2.459   4.694   7.279  0.5576  0.7100  0.5832
  167MOL    H7730289   2.558   4.507   7.439 -0.5759 -1.9563  0.0324
  167MOL    H7830290   2.393   4.481   7.462 -1.7054  3.0794 -2.7535
  167MOL    H7930291   2.506   4.762   7.478 -2.0040  0.5491  2.4408
  167MOL    H8030292   2.392   4.620   7.235  1.7898  1.0121 -1.8818
  167MOL    H8130293   2.428   4.793   7.244 -1.0006  0.3367  0.8650
  167MOL    H8230294   2.561   4.659   7.264  0.6426  1.1831  0.0167
  167MOL    C8330295   2.290   4.731   7.466 -0.4260 -0.7330  0.3535
  167MOL    C8430296   2.235   4.873   7.442  0.2998  0.6555 -0.2170
  167MOL    C8530297   2.092   4.900   7.501 -0.3500 -0.5845 -0.9273
  167MOL    H8630298   2.220   4.670   7.410 -0.7352 -0.5876  0.5798
  167MOL    H8730299   2.273   4.716   7.573 -1.0282  0.1070  0.3747
  167MOL    H8830300   2.224   4.885   7.334 -0.7699 -0.5040 -0.2413
  167MOL    H8930301   2.056   5.002   7.488  2.0907  0.5360  0.7004
  167MOL    H9030302   2.026   4.827   7.454 -0.0738 -0.4573 -1.5159
  167MOL    H9130303   2.097   4.886   7.609  0.3408 -1.3102 -1.0482
  167MOL    C9230304   2.328   4.990   7.485  0.4907 -0.9209 -0.3869
  167MOL    C9330305   2.377   5.091   7.381 -0.1221  0.3652 -0.1104
  167MOL    C9430306   2.263   5.185   7.332  0.3157  0.0237 -0.8316
  167MOL    H9530307   2.297   5.028   7.582  2.6859 -1.4465  0.5320
  167MOL    H9630308   2.417   4.943   7.526  1.7338  1.4035 -0.3909
  167MOL    H9730309   2.414   5.041   7.292  1.1628 -0.8183  1.0585
  167MOL    H9830310   2.242   5.263   7.406  1.5793 -1.7842  1.4982
  167MOL    H9930311   2.279   5.232   7.235 -1.0029  2.0713 -0.1079
  167MOL   H10030312   2.172   5.129   7.313  0.2384  0.1594 -0.8639
  167MOL   C10130313   2.493   5.150   7.452 -0.9574 -0.4013 -0.5146
  167MOL   C10230314   2.548   5.286   7.384 -0.0603  0.6556  0.2079
  167MOL   C10330315   2.641   5.374   7.471  0.5024  0.1089 -0.6842
  167MOL   H10430316   2.453   5.195   7.543 -0.6429 -0.3626 -0.3957
  167MOL   H10530317   2.571   5.076   7.468  0.8942  1.5908 -0.0929
  167MOL   H10630318   2.461   5.346   7.361  1.1843  1.8293 -1.5696
  167MOL   H10730319   2.722   5.312   7.508  0.5710  0.3926 -0.3538
  167MOL   H10830320   2.663   5.472   7.427 -0.4125  0.5362 -0.2175
  167MOL   H10930321   2.592   5.396   7.566  2.0540  2.3904 -0.3644
  167MOL   C11030322   2.620   5.267   7.254  0.9424  0.4731  0.5353
  167MOL   C11130323   2.743   5.177   7.259 -0.3877 -0.1483  0.4424
  167MOL   C11230324   2.720   5.035   7.203  0.0167  0.1717 -0.2682
  167MOL   H11330325   2.554   5.249   7.169  2.2455 -1.8079 -0.0314
  167MOL   H11430326   2.656   5.362   7.214  0.0820  0.1688 -1.0070
  167MOL   H11530327   2.762   5.159   7.365  1.2379 -1.5612 -0.0740
  167MOL   H11630328   2.796   4.959   7.224 -1.5861 -1.0671  1.2211
  167MOL   H11730329   2.628   4.987   7.234 -0.5456  1.7610  0.5842
  167MOL   H11830330   2.729   5.035   7.095  0.1580  1.5617 -0.2662
  167MOL   C11930331   2.873   5.239   7.194 -0.2315  0.3585  0.1156
  167MOL   C12030332   2.938   5.361   7.267 -0.0253 -0.0494 -0.1321
  167MOL   C12130333   3.001   5.323   7.401  0.7051  0.6256 -0.1747
  167MOL   H12230334   2.947   5.159   7.201 -1.1560 -0.4707  0.6538
  167MOL   H12330335   2.858   5.258   7.088 -3.6731  2.0035  0.8381
  167MOL   H12430336   2.868   5.444   7.283  0.1648  0.0792  0.0382
  167MOL   H12530337   3.096   5.269   7.403 -0.1849 -0.9547  1.6598
  167MOL   H12630338   3.019   5.412   7.461 -1.5075  3.2826 -3.3292
  167MOL   H12730339   2.941   5.248   7.454  1.3174 -0.2241 -0.6786
  167MOL   C12830340   3.030   5.422   7.159  0.0541 -0.5725 -0.5035
  167MOL   C12930341   3.125   5.531   7.202 -0.8340 -0.1204 -0.6064
  167MOL   C13030342   3.234   5.567   7.098 -0.2217 -0.2441  0.0269
  167MOL   H13130343   3.102   5.351   7.118 -0.6101 -0.9884 -0.9517
  167MOL   H13230344   2.971   5.451   7.072  1.2136  1.0780 -0.7789
  167MOL   H13330345   3.177   5.485   7.286 -3.2955 -0.1660  0.9310
  167MOL   H13430346   3.284   5.478   7.060 -2.3797 -0.9616 -1.2087
  167MOL   H13530347   3.195   5.627   7.016  1.6199  0.7807 -0.1404
  167MOL   H13630348   3.323   5.620   7.133  0.0036 -1.1301  0.8257
  167MOL   C13730349   3.053   5.661   7.251 -0.0719 -0.3988 -0.3637
  167MOL   C13830350   2.979   5.742   7.145 -0.4717 -0.4666  0.2068
  167MOL   C13930351   2.826   5.714   7.156  0.0574 -0.1708  0.3809
  167MOL   H14030352   2.990   5.628   7.333  0.3937  2.3099  1.1370
  167MOL   H14130353   3.140   5.709   7.296 -0.0260 -1.7116  0.9791
  167MOL   H14230354   3.007   5.721   7.041 -0.2337 -2.2297  0.6161
  167MOL   H14330355   2.780   5.722   7.255 -1.3108  2.0609 -0.4028
  167MOL   H14430356   2.777   5.784   7.088  1.4221 -1.4536 -1.9948
  167MOL   H14530357   2.795   5.615   7.121 -0.0277 -0.2902  0.7862
  167MOL   C14630358   2.995   5.895   7.171  0.3100 -0.1610 -0.2821
  167MOL   C14730359   3.128   5.949   7.115  0.2358  0.3008 -0.4772
  167MOL   C14830360   3.109   5.990   6.962 -0.4334  0.5801 -0.2372
  167MOL   H14930361   2.911   5.946   7.124  0.0959  0.3050  0.5933
  167MOL   H15030362   2.989   5.915   7.278  2.4539  1.0847 -0.3493
  167MOL   H15130363   3.200   5.868   7.110 -0.6674 -0.7344  2.5194
  167MOL   H15230364   3.191   6.054   6.930  1.1642 -1.1069  0.3567
  167MOL   H15330365   3.116   5.901   6.899  1.2968  1.1652 -0.9194
  167MOL   H15430366   3.022   6.049   6.934 -1.4721 -0.1296  1.4723
  167MOL   C15530367   3.177   6.069   7.210  0.0339 -0.7261 -0.0613
  167MOL   C15630368   3.324   6.105   7.193 -0.0108 -0.2900 -0.2092
  167MOL   C15730369   3.346   6.247   7.246  0.0283  0.5036  0.9108
  167MOL   H15830370   3.115   6.157   7.195  0.7327 -0.1494  0.4357
  167MOL   H15930371   3.161   6.029   7.310 -0.9087 -0.3281 -0.0477
  167MOL   H16030372   3.344   6.111   7.086 -1.6799 -1.9082 -0.6358
  167MOL   H16130373   3.268   6.312   7.206  1.7313  1.2390 -1.3196
  167MOL   H16230374   3.371   6.249   7.352  5.3958 -1.5874 -0.1285
  167MOL   H16330375   3.435   6.288   7.198 -1.1138  1.5862 -0.3208
  167MOL   C16430376   3.418   5.995   7.259  0.5635 -0.4094 -0.1523
  167MOL   C16530377   3.536   5.935   7.167 -0.1215  0.6330  0.3129
  167MOL   C16630378   3.649   6.038   7.144 -0.2017  0.6112  0.4228
  167MOL   H16730379   3.457   6.038   7.351  1.9398  2.2043 -1.8952
  167MOL   H16830380   3.353   5.917   7.298  0.5912 -0.9655 -1.2087
  167MOL   H16930381   3.496   5.924   7.066 -1.0269  0.1250  0.7123
  167MOL   H17030382   3.697   6.077   7.233  1.0191 -0.9022  0.4413
  167MOL   H17130383   3.736   5.995   7.095 -0.3195  0.7199  0.1170
  167MOL   H17230384   3.610   6.124   7.090 -2.4238 -0.4955  0.2066
  167MOL   C17330385   3.584   5.799   7.220  0.1491 -0.4476  0.3825
  167MOL   C17430386   3.626   5.807   7.373 -0.0727 -0.6874 -0.0614
  167MOL   C17530387   3.673   5.675   7.428 -0.5446  0.1367 -0.5186
  167MOL   H17630388   3.502   5.728   7.209 -0.5783  0.2639  1.1621
  167MOL   H17730389   3.672   5.770   7.162  0.1210 -0.3530  0.2941
  167MOL   H17830390   3.549   5.852   7.434 -0.4127 -2.9048  1.1991
  167MOL   H17930391   3.692   5.684   7.535  2.3427  2.3070 -1.1237
  167MOL   H18030392   3.603   5.593   7.415  0.0961 -0.7344  1.4096
  167MOL   H18130393   3.765   5.639   7.381 -1.5660 -0.2403 -2.2880
  167MOL   H18230394   3.710   5.876   7.385  0.9816 -1.6301 -1.7350
  168MOL     C130395   3.169   4.765   0.246 -0.0285  0.1461  0.3611
  168MOL     C230396   3.072   4.775   0.127 -0.7337 -0.7157  0.5204
  168MOL     C330397   3.027   4.629   0.100  0.3480 -0.7759  0.7108
  168MOL     H430398   3.224   4.670   0.241 -0.7461 -0.1703 -2.9139
  168MOL     H530399   3.127   4.784   0.344  3.5530  1.9406  1.6450
  168MOL     H630400   3.140   4.806   0.049 -2.9967  0.1039 -1.1811
  168MOL     H730401   2.999   4.577   0.191  0.0991  1.6279  2.0455
  168MOL     H830402   2.945   4.641   0.029  1.6568 -2.3346 -1.1186
  168MOL     H930403   3.104   4.570   0.051 -1.4117 -1.3229 -1.4834
  168MOL    H1030404   3.251   4.837   0.238 -1.4252  1.7465  0.2613
  168MOL    C1130405   2.951   4.870   0.155 -0.4207 -0.6994  0.6884
  168MOL    C1230406   2.963   5.025   0.175  0.1367  0.8647 -0.2137
  168MOL    C1330407   3.036   5.086   0.053  0.8149  0.4896  0.8742
  168MOL    H1430408   2.897   4.856   0.062 -0.1126 -0.5472  0.4853
  168MOL    H1530409   2.888   4.823   0.231  0.4708 -5.2603 -1.2420
  168MOL    H1630410   3.021   5.034   0.268  4.0012  0.1653 -2.4284
  168MOL    H1730411   2.973   5.058   7.666  1.5761 -1.1862  0.8382
  168MOL    H1830412   3.052   5.194   0.053  0.8880  0.5227 -1.8064
  168MOL    H1930413   3.138   5.048   0.045  0.0453 -1.6382  0.7182
  168MOL    C2030414   2.825   5.091   0.184 -0.1934  0.2415  0.3073
  168MOL    C2130415   2.814   5.236   0.219 -0.3326 -0.2718 -0.6939
  168MOL    C2230416   2.675   5.301   0.182  0.1355  0.2149 -0.2209
  168MOL    H2330417   2.778   5.067   0.088 -0.1687  0.2992  0.2809
  168MOL    H2430418   2.766   5.040   0.260  0.6131 -1.7751 -0.3968
  168MOL    H2530419   2.877   5.293   0.151 -0.1907 -0.2374 -0.5351
  168MOL    H2630420   2.643   5.271   0.083  1.5026  0.9487 -0.8977
  168MOL    H2730421   2.594   5.287   0.254  0.0228  2.3140  0.0986
  168MOL    H2830422   2.672   5.407   0.157 -3.0608 -0.1668 -1.6022
  168MOL    C2930423   2.857   5.268   0.363 -0.2731 -0.0201 -0.6022
  168MOL    C3030424   3.001   5.305   0.376  0.1373 -1.1537 -0.0101
  168MOL    C3130425   3.016   5.457   0.348 -0.7917 -0.3737  0.3483
  168MOL    H3230426   2.801   5.351   0.403 -2.6501 -1.8611 -0.0045
  168MOL    H3330427   2.829   5.182   0.425  0.9814  0.1643  0.2504
  168MOL    H3430428   3.056   5.255   0.296  2.5547  0.8163  0.3449
  168MOL    H3530429   3.121   5.475   0.325 -1.6354  1.4251 -2.3640
  168MOL    H3630430   2.960   5.487   0.259 -0.2349 -0.1804  0.0599
  168MOL    H3730431   2.983   5.508   0.439 -3.1029 -1.8413  0.3789
  168MOL    C3830432   3.054   5.270   0.520 -0.1055  0.1992 -0.3220
  168MOL    C3930433   3.100   5.122   0.543 -0.2336 -0.0485  0.1779
  168MOL    C4030434   3.242   5.109   0.483  0.7407 -0.1897  0.1890
  168MOL    H4130435   3.127   5.347   0.543 -0.1451  0.4521 -1.0365
  168MOL    H4230436   2.963   5.287   0.578 -0.6302 -0.2470 -1.0128
  168MOL    H4330437   3.032   5.059   0.486  2.2845 -2.2157 -0.5416
  168MOL    H4430438   3.316   5.164   0.540 -1.2043  1.4202  1.2208
  168MOL    H4530439   3.253   5.000   0.484 -0.9226 -0.4004 -0.7916
  168MOL    H4630440   3.241   5.141   0.379  0.6774 -2.8957 -0.6862
  168MOL    C4730441   3.101   5.086   0.697  0.1441 -0.0841  0.1921
  168MOL    C4830442   3.131   4.944   0.724  0.4459 -0.9773 -0.7702
  168MOL    C4930443   3.160   4.930   0.880  0.5241 -0.5054 -0.3728
  168MOL    H5030444   3.184   5.143   0.740 -0.4054  2.2349 -1.7012
  168MOL    H5130445   3.000   5.101   0.735  0.0954 -1.6983  0.7506
  168MOL    H5230446   3.229   4.920   0.681  3.0543  3.4097  2.4447
  168MOL    H5330447   3.213   4.838   0.906  0.4514 -0.2504  0.7092
  168MOL    H5430448   3.229   5.002   0.924  1.1910  0.1076 -2.3896
  168MOL    H5530449   3.070   4.925   0.941  2.5882 -1.3186  2.7179
  168MOL    C5630450   3.014   4.838   0.675  0.3476 -0.6773  0.1477
  168MOL    C5730451   3.047   4.692   0.686 -0.2832 -0.1851  0.0139
  168MOL    C5830452   2.922   4.611   0.646  0.2506 -0.0093  0.3821
  168MOL    H5930453   2.930   4.857   0.742  0.6863 -1.0941  0.6965
  168MOL    H6030454   2.992   4.858   0.570  1.6029  1.3211  0.2467
  168MOL    H6130455   3.085   4.672   0.786 -0.6650  0.7559  0.3502
  168MOL    H6230456   2.950   4.506   0.648 -3.1577 -0.9573  1.9062
  168MOL    H6330457   2.844   4.635   0.718 -0.1692 -1.6590  0.4766
  168MOL    H6430458   2.885   4.627   0.544  0.9042  0.1866  0.1707
  168MOL    C6530459   3.160   4.647   0.584 -0.5109  0.6637  0.0635
  168MOL    C6630460   3.282   4.567   0.651  0.3845  0.3021 -0.3278
  168MOL    C6730461   3.238   4.431   0.718  0.4362  0.5874  0.2943
  168MOL    H6830462   3.115   4.597   0.497 -2.4076  0.3317  1.2042
  168MOL    H6930463   3.216   4.735   0.554  0.3361  0.9437  2.4118
  168MOL    H7030464   3.321   4.623   0.736  3.0221  0.5462 -1.6481
  168MOL    H7130465   3.314   4.370   0.766  1.7204  0.9122 -1.2516
  168MOL    H7230466   3.159   4.447   0.791 -0.7991  0.4827 -0.9918
  168MOL    H7330467   3.201   4.358   0.647  0.2323  2.3330 -1.4371
  168MOL    C7430468   3.388   4.534   0.544  0.1010  0.4250  0.3832
  168MOL    C7530469   3.527   4.594   0.556  0.2646 -0.3063  0.2133
  168MOL    C7630470   3.611   4.515   0.657 -0.6340 -0.2500  0.6555
  168MOL    H7730471   3.387   4.426   0.528  3.8078  0.5936 -1.6829
  168MOL    H7830472   3.351   4.572   0.448  4.4366  0.8126 -1.2573
  168MOL    H7930473   3.515   4.695   0.595 -1.0929 -0.7677  1.0165
  168MOL    H8030474   3.631   4.409   0.638  0.2792 -0.1118  0.8169
  168MOL    H8130475   3.710   4.560   0.657 -1.5313  1.8451 -1.0518
  168MOL    H8230476   3.574   4.510   0.759  0.2645 -0.2546  0.9897
  168MOL    C8330477   3.603   4.594   0.424  0.2624 -0.3421  0.1385
  168MOL    C8430478   3.550   4.697   0.315  0.4855 -0.3880  0.5188
  168MOL    C8530479   3.529   4.841   0.368  0.4415  0.3523  0.7494
  168MOL    H8630480   3.709   4.619   0.428  0.1120  0.3880 -0.2692
  168MOL    H8730481   3.596   4.496   0.376  0.3675 -0.6384  0.7270
  168MOL    H8830482   3.450   4.663   0.288  1.8232 -1.8025 -2.8815
  168MOL    H8930483   3.620   4.872   0.419 -0.7509  0.2404  2.9907
  168MOL    H9030484   3.502   4.910   0.288 -1.4597 -1.6538 -0.4143
  168MOL    H9130485   3.446   4.840   0.439  0.3466  1.4800  0.6673
  168MOL    C9230486   3.632   4.691   0.186  0.1364  0.5719  0.1643
  168MOL    C9330487   3.612   4.562   0.102  0.4329  0.3131 -0.6612
  168MOL    C9430488   3.511   4.582   7.689  0.0767  0.2531  0.2260
  168MOL    H9530489   3.622   4.782   0.128 -1.1688  0.8289  0.7781
  168MOL    H9630490   3.734   4.707   0.221 -0.8139  0.5203  3.0589
  168MOL    H9730491   3.575   4.482   0.166  1.5701  0.8978  0.7446
  168MOL    H9830492   3.418   4.610   0.042 -0.7986 -2.6204  0.2940
  168MOL    H9930493   3.540   4.654   7.613  2.3442  1.0821  1.8357
  168MOL   H10030494   3.486   4.494   7.629 -1.3731  0.1695  0.9216
  168MOL   C10130495   3.750   4.527   0.045 -0.6540 -0.1353 -0.6943
  168MOL   C10230496   3.854   4.443   0.135  0.3792 -0.7468 -0.1134
  168MOL   C10330497   3.828   4.299   0.121 -0.3189 -0.3039 -0.6689
  168MOL   H10430498   3.728   4.468   7.654 -1.1026  1.4959 -1.6897
  168MOL   H10530499   3.795   4.623   0.020 -0.2748  0.0708  0.7177
  168MOL   H10630500   3.836   4.468   0.240  2.6641  0.4762  0.0109
  168MOL   H10730501   3.719   4.287   0.117 -0.8510  3.3253  1.1430
  168MOL   H10830502   3.850   4.259   0.022  0.1202  0.4193 -0.8609
  168MOL   H10930503   3.869   4.233   0.197  3.0453  1.7062 -0.6786
  168MOL   C11030504   4.003   4.479   0.101 -0.3077 -0.1446  0.3302
  168MOL   C11130505   4.112   4.427   0.198  0.9386 -0.0042  0.1716
  168MOL   C11230506   4.223   4.374   0.110 -0.6436  0.6902 -0.1300
  168MOL   H11330507   4.016   4.453   7.694  1.1440 -0.0598  0.4829
  168MOL   H11430508   4.017   4.586   0.092 -0.4307 -0.2018 -0.5571
  168MOL   H11530509   4.067   4.346   0.255 -0.0162  0.6741  0.4122
  168MOL   H11630510   4.196   4.298   0.036 -3.2866 -0.9765  2.4330
  168MOL   H11730511   4.275   4.459   0.068 -1.3143  1.2973  0.2573
  168MOL   H11830512   4.310   4.329   0.158 -2.4249 -1.1723  1.4662
  168MOL   C11930513   4.166   4.542   0.289  0.1925  0.6829  0.3846
  168MOL   C12030514   4.064   4.582   0.391 -0.5054 -0.2701 -1.0976
  168MOL   C12130515   4.022   4.461   0.489  0.0900 -0.3572 -0.4678
  168MOL   H12230516   4.248   4.502   0.348 -0.9413  3.0532  3.7258
  168MOL   H12330517   4.205   4.624   0.228  0.8266  0.9136  1.0877
  168MOL   H12430518   3.980   4.617   0.330 -0.3874  2.7229  0.3306
  168MOL   H12530519   3.967   4.501   0.573  0.9703  2.9044 -1.3651
  168MOL   H12630520   3.968   4.388   0.428 -1.5110  0.0986  0.3736
  168MOL   H12730521   4.106   4.425   0.548 -0.5485  1.0575  1.3649
  168MOL   C12830522   4.110   4.704   0.480  0.5557 -0.3552 -0.4133
  168MOL   C12930523   4.101   4.842   0.403 -0.8798  0.4836 -0.9269
  168MOL   C13030524   3.963   4.870   0.351  0.1006 -0.0694  0.4149
  168MOL   H13130525   4.048   4.703   0.570  0.6600 -1.6064 -0.3474
  168MOL   H13230526   4.214   4.698   0.514  0.4429  1.1205  0.2510
  168MOL   H13330527   4.171   4.833   0.320  0.8711 -0.8659  0.6606
  168MOL   H13430528   3.894   4.855   0.433  0.3832 -0.8161  0.5200
  168MOL   H13530529   3.955   4.972   0.313 -0.0007 -0.5979 -1.0243
  168MOL   H13630530   3.935   4.804   0.269 -3.7547 -1.3304  2.6036
  168MOL   C13730531   4.139   4.968   0.487  0.3766  0.1434 -0.3874
  168MOL   C13830532   4.294   4.993   0.505 -0.2931  0.5537  0.3020
  168MOL   C13930533   4.356   5.029   0.373  0.2899 -0.0864  0.8268
  168MOL   H14030534   4.110   5.063   0.442 -0.2192  0.3635  0.4541
  168MOL   H14130535   4.087   4.970   0.583  0.0166 -3.8044 -0.4356
  168MOL   H14230536   4.344   4.906   0.548  1.5711 -0.6615 -4.0602
  168MOL   H14330537   4.460   5.055   0.396  0.5176  0.3204 -0.6087
  168MOL   H14430538   4.354   4.941   0.308 -0.5051 -0.3610  1.2217
  168MOL   H14530539   4.306   5.112   0.323 -5.0588 -2.8398  1.2004
  168MOL   C14630540   4.324   5.101   0.616 -0.2533 -0.1152 -0.2066
  168MOL   C14730541   4.259   5.075   0.761 -0.6885 -0.1017 -0.7413
  168MOL   C14830542   4.264   4.926   0.811 -0.4837  0.1866  0.0013
  168MOL   H14930543   4.430   5.121   0.629 -0.5982  2.1551 -0.7984
  168MOL   H15030544   4.272   5.190   0.581 -0.2784 -0.6556 -1.5443
  168MOL   H15130545   4.154   5.103   0.762 -0.6173  0.3278  4.0814
  168MOL   H15230546   4.363   4.884   0.796  0.0703  0.9639  1.3924
  168MOL   H15330547   4.233   4.904   0.913  1.3543 -1.2071  0.2762
  168MOL   H15430548   4.204   4.863   0.745 -1.1671  1.5259 -0.6845
  168MOL   C15530549   4.344   5.157   0.858  0.0359 -0.1771  0.2989
  168MOL   C15630550   4.293   5.199   1.004 -0.3988  0.1956  0.2454
  168MOL   C15730551   4.391   5.304   1.061  0.4692  0.1760  0.5570
  168MOL   H15830552   4.440   5.105   0.854 -0.1578 -0.4677 -1.0885
  168MOL   H15930553   4.362   5.254   0.811 -1.0531  1.0300  2.3039
  168MOL   H16030554   4.292   5.102   1.055 -1.2887  0.9585  1.7259
  168MOL   H16130555   4.398   5.394   1.000  0.2770  0.2894  0.7023
  168MOL   H16230556   4.361   5.340   1.160 -0.8305  1.0458 -0.1390
  168MOL   H16330557   4.487   5.253   1.073  0.8636  0.3229 -1.7600
  168MOL   C16430558   4.152   5.270   1.000  0.0456 -0.1624 -0.3216
  168MOL   C16530559   4.076   5.289   1.137  0.3914  0.1524  0.2964
  168MOL   C16630560   3.936   5.350   1.116  0.2904 -0.1271 -0.1994
  168MOL   H16730561   4.150   5.354   0.931 -2.2265 -0.8918 -1.2042
  168MOL   H16830562   4.080   5.196   0.964 -1.3547  1.1501 -0.2811
  168MOL   H16930563   4.132   5.354   1.204  1.6095  1.2100 -1.7153
  168MOL   H17030564   3.944   5.453   1.079 -0.0997  0.8867  2.4257
  168MOL   H17130565   3.880   5.291   1.043 -1.9736 -1.1905  2.3468
  168MOL   H17230566   3.869   5.349   1.201  1.6532  2.8465  0.9791
  168MOL   C17330567   4.076   5.148   1.213  0.1938 -0.3051 -0.0118
  168MOL   C17430568   4.022   5.164   1.353 -0.5449  0.3040 -0.1946
  168MOL   C17530569   4.025   5.041   1.443 -0.3434 -0.6319 -0.3573
  168MOL   H17630570   4.012   5.070   1.169 -0.1549  0.9840 -1.8419
  168MOL   H17730571   4.181   5.123   1.228  0.7156  1.3481 -0.8690
  168MOL   H17830572   3.918   5.194   1.356 -0.2990  1.1557 -0.1283
  168MOL   H17930573   4.122   4.996   1.467 -0.2169 -0.9838 -1.5048
  168MOL   H18030574   3.991   5.069   1.543 -0.5740 -2.6801  0.1617
  168MOL   H18130575   3.964   4.956   1.413 -1.5595 -0.4761  1.5980
  168MOL   H18230576   4.088   5.236   1.403  0.0199 -1.4578  1.6651
  169MOL     C130577   2.558   3.818   0.606 -0.2239  0.3187 -0.1929
  169MOL     C230578   2.615   3.713   0.700 -0.4734 -0.1017  0.0710
  169MOL     C330579   2.771   3.732   0.718  0.2379 -0.4386 -0.8287
  169MOL     H430580   2.590   3.917   0.636  0.0834  0.3808 -0.7250
  169MOL     H530581   2.450   3.825   0.595 -0.3800  0.1435  1.1040
  169MOL     H630582   2.589   3.618   0.653  1.7430 -1.0233  0.6262
  169MOL     H730583   2.818   3.645   0.764 -0.4627  1.3284  3.4185
  169MOL     H830584   2.830   3.741   0.626  0.8824 -1.2370 -0.5096
  169MOL     H930585   2.798   3.809   0.790  3.5642 -2.4788  0.2546
  169MOL    H1030586   2.607   3.806   0.509 -1.9936  0.5716 -1.1384
  169MOL    C1130587   2.555   3.702   0.843  0.1310 -0.0630  0.5283
  169MOL    C1230588   2.405   3.676   0.848 -0.5259 -0.0617  0.1668
  169MOL    C1330589   2.357   3.561   0.755  0.5811 -0.5386  0.3006
  169MOL    H1430590   2.612   3.623   0.891  0.3719  0.4526  1.0895
  169MOL    H1530591   2.575   3.793   0.900  1.4933 -0.5458  0.8208
  169MOL    H1630592   2.353   3.768   0.822 -1.6581 -1.0531 -1.0984
  169MOL    H1730593   2.395   3.463   0.783  1.2959 -1.0422 -2.3743
  169MOL    H1830594   2.249   3.555   0.759  0.4535  1.4522  0.3987
  169MOL    H1930595   2.376   3.567   0.648 -0.6869  0.0101  0.0961
  169MOL    C2030596   2.376   3.647   0.993 -0.5395 -0.2151  0.2160
  169MOL    C2130597   2.241   3.573   1.028 -0.5921 -0.2428  0.4582
  169MOL    C2230598   2.239   3.512   1.165 -0.3774 -0.3019 -0.4982
  169MOL    H2330599   2.456   3.581   1.027  0.8818  1.6845  0.6528
  169MOL    H2430600   2.388   3.735   1.056  0.0925 -0.9845  1.2048
  169MOL    H2530601   2.217   3.497   0.954  0.1281 -0.1483  0.1196
  169MOL    H2630602   2.239   3.592   1.239 -2.2047 -2.7666  2.2259
  169MOL    H2730603   2.148   3.455   1.179 -0.8698  1.1001  2.3134
  169MOL    H2830604   2.320   3.440   1.178 -0.4355 -0.3992 -0.6759
  169MOL    C2930605   2.134   3.683   1.027  0.2535 -0.2800 -0.3215
  169MOL    C3030606   1.983   3.624   1.023  0.9336  0.3330 -0.4401
  169MOL    C3130607   1.874   3.720   1.074 -0.0492  0.4006  0.0911
  169MOL    H3230608   2.144   3.755   1.108  0.6642  0.1206 -0.7215
  169MOL    H3330609   2.138   3.745   0.938 -1.2231 -1.5678 -1.3161
  169MOL    H3430610   1.986   3.539   1.090  0.8638  0.9573  0.3640
  169MOL    H3530611   1.786   3.662   1.098 -1.4882  1.8794 -1.4927
  169MOL    H3630612   1.903   3.778   1.162  4.8342 -1.2499 -0.2729
  169MOL    H3730613   1.855   3.792   0.994 -2.1473 -2.7721 -2.3598
  169MOL    C3830614   1.952   3.564   0.878  0.0675  0.3735  0.5106
  169MOL    C3930615   1.913   3.413   0.873  0.1965 -0.8325  0.1064
  169MOL    C4030616   1.761   3.399   0.901 -0.8235 -0.6118  0.1166
  169MOL    H4130617   1.880   3.615   0.813  1.6177 -0.5426 -2.0052
  169MOL    H4230618   2.050   3.572   0.831  0.2925 -0.2726  0.8754
  169MOL    H4330619   1.967   3.364   0.954  1.5536  0.9348  0.2897
  169MOL    H4430620   1.698   3.468   0.844 -0.5936 -1.9207 -1.7718
  169MOL    H4530621   1.720   3.298   0.896  2.2711 -1.9866  1.1161
  169MOL    H4630622   1.753   3.424   1.007 -2.6065 -1.5145  0.2135
  169MOL    C4730623   1.956   3.353   0.736  0.2286  0.6073  0.1265
  169MOL    C4830624   1.957   3.198   0.712 -0.3526  0.5442  0.2899
  169MOL    C4930625   1.991   3.171   0.566  0.1825 -0.1729 -0.2981
  169MOL    H5030626   1.900   3.409   0.662 -0.1137  0.0502 -0.0424
  169MOL    H5130627   2.062   3.378   0.731  0.3974 -0.2252 -0.4871
  169MOL    H5230628   1.855   3.162   0.722 -0.4746 -0.1379 -2.8577
  169MOL    H5330629   1.925   3.227   0.500 -0.5397 -0.5931  0.0629
  169MOL    H5430630   2.091   3.208   0.541 -0.1213  0.2193 -0.9684
  169MOL    H5530631   1.970   3.067   0.543  0.7494 -0.5031  0.6557
  169MOL    C5630632   2.049   3.115   0.808  0.1362  0.1735  0.2243
  169MOL    C5730633   1.989   3.087   0.946 -0.2424 -0.8664  0.5401
  169MOL    C5830634   1.918   2.949   0.944 -0.7448 -0.9594  0.3435
  169MOL    H5930635   2.061   3.020   0.757  1.5037 -0.0197  0.8956
  169MOL    H6030636   2.146   3.165   0.813  1.1097 -1.4490 -1.6754
  169MOL    H6130637   1.911   3.160   0.966  0.2389  0.3113 -1.7277
  169MOL    H6230638   1.872   2.931   1.041 -1.8118  1.6206  0.3477
  169MOL    H6330639   1.852   2.936   0.858  2.2439 -1.5931 -1.9180
  169MOL    H6430640   1.985   2.865   0.926 -0.6675 -0.6113 -1.1200
  169MOL    C6530641   2.087   3.107   1.065 -0.4966 -0.6789 -0.2133
  169MOL    C6630642   2.039   3.085   1.209  0.3032 -0.7686  0.8475
  169MOL    C6730643   2.163   3.094   1.300  0.1397 -0.7336  0.7152
  169MOL    H6830644   2.172   3.039   1.057  0.5277  0.5333  0.1669
  169MOL    H6930645   2.128   3.207   1.053 -0.5878 -0.3853  1.7331
  169MOL    H7030646   1.998   2.985   1.224 -0.3482 -0.6378 -0.0021
  169MOL    H7130647   2.197   3.196   1.319 -1.1098  0.3590 -2.4584
  169MOL    H7230648   2.149   3.056   1.401  0.1916 -0.3369  0.8733
  169MOL    H7330649   2.246   3.032   1.266  0.9340  1.6564 -1.9372
  169MOL    C7430650   1.926   3.190   1.234 -0.0138  0.7000  0.0507
  169MOL    C7530651   1.865   3.200   1.370  0.1961  0.4730 -0.1559
  169MOL    C7630652   1.814   3.060   1.408  0.3784 -0.4063 -0.3506
  169MOL    H7730653   1.963   3.287   1.202  3.2966  0.1557  2.0188
  169MOL    H7830654   1.839   3.171   1.171  1.9696  0.2052 -2.5863
  169MOL    H7930655   1.777   3.263   1.358 -0.3477 -0.6182 -2.0221
  169MOL    H8030656   1.773   3.004   1.324  0.7770 -1.4403  0.1441
  169MOL    H8130657   1.876   2.996   1.470  1.5330  2.0770  1.1334
  169MOL    H8230658   1.727   3.072   1.471 -0.5860  3.2505 -2.1957
  169MOL    C8330659   1.931   3.271   1.485  0.3228 -0.1608 -0.2537
  169MOL    C8430660   1.968   3.417   1.452  0.8099  0.6015  0.1410
  169MOL    C8530661   1.861   3.514   1.498  0.4441 -0.1760  0.0387
  169MOL    H8630662   1.867   3.271   1.573  0.0909  1.0241 -0.4146
  169MOL    H8730663   2.018   3.213   1.516 -1.0712 -1.5268  1.1929
  169MOL    H8830664   1.970   3.434   1.344  1.3637 -1.0213 -0.1250
  169MOL    H8930665   1.911   3.611   1.495 -1.0722  0.6271  0.4506
  169MOL    H9030666   1.775   3.511   1.432 -1.0788  0.9325  1.9385
  169MOL    H9130667   1.835   3.499   1.603  0.5490  0.1373  0.1106
  169MOL    C9230668   2.113   3.451   1.490  0.1671 -0.0477 -0.5036
  169MOL    C9330669   2.148   3.451   1.646  0.6621  0.6174 -0.6254
  169MOL    C9430670   2.143   3.315   1.717 -0.1402  0.3088 -0.1676
  169MOL    H9530671   2.184   3.401   1.425  0.2248  0.3083 -0.7143
  169MOL    H9630672   2.116   3.553   1.451 -1.3589 -0.9600 -3.0426
  169MOL    H9730673   2.083   3.510   1.711 -0.7016 -2.7042  1.1601
  169MOL    H9830674   2.188   3.306   1.816 -2.4447  0.2472  0.8868
  169MOL    H9930675   2.040   3.284   1.734  1.5067 -4.3675  2.2593
  169MOL   H10030676   2.206   3.242   1.665 -0.3569  0.3842 -0.5351
  169MOL   C10130677   2.286   3.513   1.674  0.2488 -1.0460  0.9194
  169MOL   C10230678   2.313   3.653   1.603 -0.4069 -0.4716 -0.0554
  169MOL   C10330679   2.219   3.754   1.661 -0.5849  0.0572 -0.3693
  169MOL   H10430680   2.307   3.527   1.780 -0.8943  1.0736  0.8735
  169MOL   H10530681   2.368   3.451   1.636  0.1588 -0.2135 -0.6647
  169MOL   H10630682   2.288   3.656   1.497 -0.4424  1.1682 -0.0041
  169MOL   H10730683   2.226   3.853   1.616  1.3745  0.7611  1.3856
  169MOL   H10830684   2.116   3.726   1.639  0.4235 -2.2087 -2.5674
  169MOL   H10930685   2.236   3.769   1.768 -0.2975  1.3236 -0.5816
  169MOL   C11030686   2.461   3.712   1.620  0.7580  0.2197 -0.4589
  169MOL   C11130687   2.577   3.639   1.543  0.1506  0.5481  0.2983
  169MOL   C11230688   2.531   3.616   1.397  0.3007 -0.4500 -0.2360
  169MOL   H11330689   2.457   3.820   1.607 -1.4537  0.3200  0.7106
  169MOL   H11430690   2.480   3.695   1.726 -0.1238 -0.6253 -0.4273
  169MOL   H11530691   2.591   3.542   1.590 -0.3704  0.2576 -0.1553
  169MOL   H11630692   2.449   3.544   1.391 -1.8145  1.7641  1.4361
  169MOL   H11730693   2.508   3.717   1.363 -1.9455  0.1824  2.8891
  169MOL   H11830694   2.607   3.578   1.329 -1.1495 -1.4624 -1.3205
  169MOL   C11930695   2.713   3.720   1.544 -0.1296  0.2485  0.6804
  169MOL   C12030696   2.762   3.772   1.682 -0.2654  0.6072 -0.0302
  169MOL   C12130697   2.817   3.648   1.761  0.5141 -0.6148  0.8052
  169MOL   H12230698   2.794   3.679   1.483 -0.9152 -0.5307  0.1440
  169MOL   H12330699   2.693   3.817   1.497 -0.3877 -0.2697 -0.2862
  169MOL   H12430700   2.673   3.812   1.730  0.3037  2.0215 -0.1086
  169MOL   H12530701   2.904   3.610   1.708  0.8645 -1.8412  2.2209
  169MOL   H12630702   2.847   3.665   1.864 -1.6641 -2.0070  1.7018
  169MOL   H12730703   2.742   3.569   1.757 -2.0221  1.6233  2.2737
  169MOL   C12830704   2.876   3.880   1.656  0.5427 -0.4979  0.8334
  169MOL   C12930705   2.937   3.945   1.783 -0.6231  0.3166 -0.3011
  169MOL   C13030706   3.032   4.063   1.739 -0.1233  0.2415  0.1680
  169MOL   H13130707   2.966   3.839   1.610 -0.5564  0.5279 -2.3916
  169MOL   H13230708   2.833   3.970   1.612  1.8622  0.0891  0.6965
  169MOL   H13330709   2.997   3.876   1.842 -0.3526  1.3243  0.6033
  169MOL   H13430710   3.080   4.112   1.823  1.5339  0.0613 -0.6565
  169MOL   H13530711   3.107   4.028   1.667 -0.4490 -0.9365  0.3830
  169MOL   H13630712   2.979   4.144   1.687 -0.4931 -0.1344 -0.0516
  169MOL   C13730713   2.834   3.990   1.882  1.0919  0.5519 -0.0888
  169MOL   C13830714   2.868   4.057   2.017 -0.3366  0.7295  0.1976
  169MOL   C13930715   2.751   4.141   2.072  0.1440  0.1588 -0.9171
  169MOL   H14030716   2.761   4.052   1.831 -0.1032 -0.9121 -0.1778
  169MOL   H14130717   2.771   3.902   1.896  2.0659 -0.2339 -0.5178
  169MOL   H14230718   2.954   4.117   1.988 -1.0752  2.7789  2.1460
  169MOL   H14330719   2.666   4.073   2.080  0.4831 -0.2598 -0.8333
  169MOL   H14430720   2.786   4.182   2.166  0.1815 -1.9288  0.0090
  169MOL   H14530721   2.735   4.214   1.992 -1.0757  0.7576 -0.1464
  169MOL   C14630722   2.908   3.950   2.121  0.0901 -0.4845 -0.7277
  169MOL   C14730723   3.003   4.004   2.232 -0.3019 -0.0501 -0.3204
  169MOL   C14830724   3.004   3.903   2.347 -0.4024 -1.2435  0.3229
  169MOL   H14930725   2.822   3.906   2.172  0.9055 -1.5664 -0.2756
  169MOL   H15030726   2.941   3.864   2.063  1.8411  0.0816 -0.5817
  169MOL   H15130727   2.952   4.090   2.277  0.1232  1.2088 -2.2148
  169MOL   H15230728   3.041   3.811   2.301  0.0642 -0.2219 -1.4003
  169MOL   H15330729   3.084   3.912   2.420  0.2297 -0.4446 -0.4614
  169MOL   H15430730   2.906   3.884   2.390 -0.2778 -1.6979  0.4111
  169MOL   C15530731   3.144   4.043   2.176 -0.0162 -0.4130 -0.2342
  169MOL   C15630732   3.229   4.112   2.275 -0.3132 -0.0390  0.1034
  169MOL   C15730733   3.372   4.129   2.217 -0.0694 -0.0147  0.1440
  169MOL   H15830734   3.185   3.948   2.145  0.7444 -1.1486  2.8639
  169MOL   H15930735   3.127   4.113   2.094 -0.8195 -0.1930  0.1091
  169MOL   H16030736   3.248   4.043   2.358 -0.2937 -0.4131 -0.2146
  169MOL   H16130737   3.391   4.048   2.146 -1.0412 -1.0885  1.0725
  169MOL   H16230738   3.368   4.225   2.166 -0.2552 -0.0138  0.1572
  169MOL   H16330739   3.451   4.135   2.292  0.5006 -2.8126 -0.1688
  169MOL   C16430740   3.184   4.239   2.348  0.0897  0.4011 -0.6647
  169MOL   C16530741   3.272   4.296   2.461  0.3203  0.4724  0.2713
  169MOL   C16630742   3.224   4.434   2.513 -0.1640 -0.6042  0.0264
  169MOL   H16730743   3.181   4.322   2.277 -0.6741  2.4649  1.7373
  169MOL   H16830744   3.085   4.221   2.388  0.0578 -1.9729 -1.6931
  169MOL   H16930745   3.366   4.324   2.414 -0.7091  1.6981 -1.0866
  169MOL   H17030746   3.122   4.431   2.552  0.0431  0.0258  0.6292
  169MOL   H17130747   3.268   4.468   2.606 -0.0843  6.1769 -2.2401
  169MOL   H17230748   3.224   4.508   2.433 -1.0922  1.0285  1.5097
  169MOL   C17330749   3.280   4.189   2.577 -0.4816 -0.5817  0.0539
  169MOL   C17430750   3.359   4.226   2.708  0.4684  0.2398 -0.6715
  169MOL   C17530751   3.403   4.085   2.775 -0.6962  0.2237  0.0022
  169MOL   H17630752   3.180   4.149   2.593 -0.3432 -0.5713  0.9883
  169MOL   H17730753   3.350   4.114   2.539  0.1311 -0.1864  0.4015
  169MOL   H17830754   3.297   4.282   2.779 -0.0944  0.5922 -1.4263
  169MOL   H17930755   3.490   4.083   2.840  2.1021  0.3689 -3.5413
  169MOL   H18030756   3.321   4.031   2.822 -0.2859 -0.5311 -0.1452
  169MOL   H18130757   3.444   4.021   2.696 -1.5511 -0.4544  0.0943
  169MOL   H18230758   3.450   4.281   2.684  0.8810 -0.3802 -0.5207
  170MOL     C130759   4.555   1.728   5.395  0.2773 -0.6103  0.5872
  170MOL     C230760   4.412   1.778   5.424  0.6870  0.2617 -0.2024
  170MOL     C330761   4.371   1.865   5.308 -0.2662  0.9771 -0.2154
  170MOL     H430762   4.611   1.703   5.485 -0.7509 -2.0569  0.8398
  170MOL     H530763   4.617   1.799   5.341  2.1281 -0.7991  2.4005
  170MOL     H630764   4.405   1.847   5.508 -0.7190 -0.3395  0.1926
  170MOL     H730765   4.276   1.904   5.343  0.0801  0.6274  1.1388
  170MOL     H830766   4.430   1.956   5.297 -0.8779  1.0737 -3.1866
  170MOL     H930767   4.360   1.813   5.213  0.2493 -1.8659  1.2184
  170MOL    H1030768   4.539   1.642   5.330 -0.2411  0.4404 -0.7005
  170MOL    C1130769   4.306   1.673   5.442 -0.0712 -0.0551  0.3057
  170MOL    C1230770   4.282   1.630   5.595 -0.0309  0.0660  0.6050
  170MOL    C1330771   4.158   1.532   5.591  0.1709  0.1788  0.0171
  170MOL    H1430772   4.207   1.692   5.400 -0.3693  0.8320  1.3772
  170MOL    H1530773   4.339   1.582   5.392  1.0662  1.0771 -1.0680
  170MOL    H1630774   4.247   1.721   5.643 -0.0610  0.7288 -0.6655
  170MOL    H1730775   4.131   1.489   5.687  0.0840  0.0664 -0.0576
  170MOL    H1830776   4.068   1.585   5.559  0.5166 -0.3158 -1.8472
  170MOL    H1930777   4.180   1.450   5.522 -1.4407 -0.4507  0.2362
  170MOL    C2030778   4.402   1.567   5.668  0.7966 -0.1391  0.0103
  170MOL    C2130779   4.486   1.665   5.755  0.2366  0.3438 -0.1959
  170MOL    C2230780   4.398   1.687   5.878 -0.2633  0.0671  0.4155
  170MOL    H2330781   4.362   1.496   5.740  2.2807 -0.4214  0.5802
  170MOL    H2430782   4.468   1.509   5.602  0.1594  0.8253 -1.4931
  170MOL    H2530783   4.489   1.761   5.703 -1.2793  0.8598  0.6349
  170MOL    H2630784   4.306   1.737   5.847  1.0687  1.7907 -0.8125
  170MOL    H2730785   4.370   1.591   5.922 -1.5564  0.9283  1.4899
  170MOL    H2830786   4.435   1.753   5.956  0.5107  1.7928 -1.3807
  170MOL    C2930787   4.629   1.615   5.786  0.1471 -0.5060  0.2962
  170MOL    C3030788   4.713   1.724   5.852  0.6066  0.1905  0.1216
  170MOL    C3130789   4.832   1.652   5.925 -0.2364 -0.1934 -0.6264
  170MOL    H3230790   4.619   1.535   5.859  1.2371  1.6947  2.9360
  170MOL    H3330791   4.682   1.565   5.706  0.6345 -2.6053  1.8819
  170MOL    H3430792   4.657   1.772   5.932  0.6730  1.9377 -0.8458
  170MOL    H3530793   4.910   1.631   5.852  0.2872 -0.1156 -0.0892
  170MOL    H3630794   4.876   1.718   6.000  0.1916 -1.7394  0.4840
  170MOL    H3730795   4.803   1.578   5.999 -1.1793  1.8376  1.1005
  170MOL    C3830796   4.769   1.828   5.757 -0.5402 -0.6166  0.1819
  170MOL    C3930797   4.838   1.947   5.833 -0.4289 -0.4022  0.1010
  170MOL    C4030798   4.993   1.929   5.815 -0.7368  0.0073  0.3326
  170MOL    H4130799   4.839   1.788   5.683 -0.1664 -1.7679  1.1484
  170MOL    H4230800   4.690   1.865   5.692  0.9989  0.9751 -0.8199
  170MOL    H4330801   4.823   1.938   5.941 -0.3749 -0.4819  0.1020
  170MOL    H4430802   5.057   1.983   5.885  0.7068 -0.2595 -0.7614
  170MOL    H4530803   5.020   1.827   5.842  1.2043  1.0320  2.4226
  170MOL    H4630804   5.037   1.951   5.718 -1.7904 -1.1202 -0.4089
  170MOL    C4730805   4.806   2.085   5.791 -0.2629 -0.4692  0.1908
  170MOL    C4830806   4.661   2.122   5.826 -0.0599  0.6032  0.4040
  170MOL    C4930807   4.636   2.172   5.964 -0.0177 -0.0579  0.4773
  170MOL    H5030808   4.873   2.156   5.840 -1.6674  1.0020 -0.0028
  170MOL    H5130809   4.823   2.091   5.683  0.5257  0.7180  0.3698
  170MOL    H5230810   4.603   2.030   5.820  0.0513  0.5027  0.8794
  170MOL    H5330811   4.691   2.266   5.970  0.8020 -0.3574 -1.7096
  170MOL    H5430812   4.528   2.185   5.977  0.0097  0.6426  0.0817
  170MOL    H5530813   4.667   2.103   6.042  2.6187  0.5183 -0.0155
  170MOL    C5630814   4.603   2.223   5.728  0.1164 -0.1119 -0.2651
  170MOL    C5730815   4.524   2.158   5.616  0.1162  0.7612 -0.1012
  170MOL    C5830816   4.382   2.129   5.673 -0.0757 -0.1171 -0.0042
  170MOL    H5930817   4.541   2.294   5.782 -1.9519 -3.0631  1.3677
  170MOL    H6030818   4.679   2.288   5.684  1.2643 -1.1864  0.0782
  170MOL    H6130819   4.584   2.072   5.584 -0.1968 -0.4093  2.3656
  170MOL    H6230820   4.316   2.214   5.689 -0.0436 -0.0828 -0.0505
  170MOL    H6330821   4.330   2.054   5.613 -2.8315  2.1010 -0.4806
  170MOL    H6430822   4.388   2.081   5.771 -0.4323 -0.5235 -0.1810
  170MOL    C6530823   4.526   2.248   5.493  0.3016 -0.6223 -0.8163
  170MOL    C6630824   4.660   2.262   5.421 -0.1043 -0.4832 -0.6956
  170MOL    C6730825   4.721   2.138   5.358 -0.3081 -0.3613 -0.5572
  170MOL    H6830826   4.446   2.206   5.432 -0.5196  0.7952 -0.7254
  170MOL    H6930827   4.480   2.344   5.515 -1.2909 -1.6801  0.6510
  170MOL    H7030828   4.746   2.295   5.479  0.7428 -2.3541 -0.8512
  170MOL    H7130829   4.657   2.094   5.282  0.6974 -0.9708 -1.0721
  170MOL    H7230830   4.813   2.164   5.305 -0.2082 -2.2180 -1.3340
  170MOL    H7330831   4.734   2.052   5.424 -1.1308 -1.1940 -1.4747
  170MOL    C7430832   4.634   2.366   5.302 -0.2481 -0.3055  0.0503
  170MOL    C7530833   4.579   2.507   5.341 -0.2893 -0.2818  0.0964
  170MOL    C7630834   4.657   2.571   5.449 -0.0886  0.1708 -0.7204
  170MOL    H7730835   4.727   2.369   5.246 -0.3319 -2.6606 -0.2633
  170MOL    H7830836   4.567   2.313   5.234  1.7914 -0.1326 -2.1633
  170MOL    H7930837   4.476   2.513   5.376  0.0039  0.1127  0.9023
  170MOL    H8030838   4.673   2.495   5.526  0.4398  4.5765  3.7709
  170MOL    H8130839   4.756   2.600   5.416 -0.8992  2.2602 -1.3717
  170MOL    H8230840   4.610   2.663   5.482  3.2755  1.3842  0.8134
  170MOL    C8330841   4.584   2.603   5.217  0.8106 -0.0390  0.0573
  170MOL    C8430842   4.479   2.577   5.108  0.3465 -0.4108  0.2704
  170MOL    C8530843   4.330   2.617   5.133 -0.1499 -0.2149  0.0581
  170MOL    H8630844   4.575   2.706   5.251 -0.0123  0.3039 -1.1446
  170MOL    H8730845   4.683   2.588   5.175  1.2784  4.3173 -0.6820
  170MOL    H8830846   4.485   2.472   5.078 -1.5399 -0.6323  0.6032
  170MOL    H8930847   4.302   2.723   5.130  1.3687  0.1555 -1.7569
  170MOL    H9030848   4.277   2.555   5.062  0.4668 -0.6329 -0.0312
  170MOL    H9130849   4.299   2.578   5.230 -1.2103 -1.0670 -0.6088
  170MOL    C9230850   4.535   2.658   4.989 -0.2589 -0.0901  0.8039
  170MOL    C9330851   4.601   2.569   4.881  0.8851 -0.0612  0.4767
  170MOL    C9430852   4.487   2.513   4.789 -0.4024  0.5250 -0.8701
  170MOL    H9530853   4.448   2.707   4.945 -0.7665  0.4009  2.3258
  170MOL    H9630854   4.607   2.736   5.014 -1.7933  1.6472 -0.0495
  170MOL    H9730855   4.649   2.487   4.934  2.7410 -0.8005 -2.2878
  170MOL    H9830856   4.407   2.463   4.843  0.2670 -1.6555 -1.8044
  170MOL    H9930857   4.441   2.591   4.728  1.5819  3.2477  0.9946
  170MOL   H10030858   4.536   2.437   4.727 -1.1746 -0.2119 -0.5827
  170MOL   C10130859   4.707   2.646   4.795 -0.8957  0.4986 -0.1407
  170MOL   C10230860   4.828   2.699   4.879  0.5114 -0.1033  0.7646
  170MOL   C10330861   4.964   2.631   4.836  0.4770 -0.0890 -0.0075
  170MOL   H10430862   4.744   2.578   4.719  0.5593  1.4239 -0.2772
  170MOL   H10530863   4.655   2.721   4.736 -0.8986  1.8522  1.5361
  170MOL   H10630864   4.814   2.659   4.980  0.1393 -0.9296  0.3916
  170MOL   H10730865   4.951   2.524   4.850  0.2465  0.0919  1.2371
  170MOL   H10830866   5.006   2.653   4.738 -2.4139 -0.4447 -1.3637
  170MOL   H10930867   5.046   2.657   4.903 -0.0750 -1.1880  1.1007
  170MOL   C11030868   4.828   2.852   4.893 -0.1328  0.4129 -0.3640
  170MOL   C11130869   4.931   2.908   5.002 -0.5889 -0.0238  0.0880
  170MOL   C11230870   4.918   3.061   4.995 -0.1315  0.1407  0.0180
  170MOL   H11330871   4.867   2.885   4.797 -0.0719  0.3873 -0.3477
  170MOL   H11430872   4.723   2.880   4.897 -0.7478 -1.9217  0.5348
  170MOL   H11530873   5.032   2.876   4.973 -0.4016  2.1389 -1.8030
  170MOL   H11630874   4.817   3.091   5.024  0.0339 -1.4862  2.3986
  170MOL   H11730875   4.986   3.110   5.064  0.0241 -0.2903  0.1735
  170MOL   H11830876   4.929   3.098   4.893 -2.6688  1.1156  0.0681
  170MOL   C11930877   4.913   2.846   5.146  0.2700  0.3167 -0.1069
  170MOL   C12030878   4.968   2.918   5.268  0.0130  0.2766 -0.5652
  170MOL   C12130879   4.907   2.852   5.397 -0.2032 -0.0229  0.4539
  170MOL   H12230880   4.807   2.826   5.158  0.0350  1.5240 -0.1634
  170MOL   H12330881   4.966   2.751   5.149 -0.2700  0.0116 -0.2179
  170MOL   H12430882   4.929   3.019   5.256  2.1104  1.2571  0.6870
  170MOL   H12530883   4.799   2.844   5.385  0.0521 -0.2782 -2.0582
  170MOL   H12630884   4.940   2.749   5.407 -1.3097 -0.3528  0.7240
  170MOL   H12730885   4.936   2.905   5.488  2.4648 -1.4632  0.4884
  170MOL   C12830886   5.122   2.906   5.264 -0.1907  0.1924  0.0191
  170MOL   C12930887   5.194   3.039   5.296  0.7686 -0.2429  0.0745
  170MOL   C13030888   5.164   3.083   5.443  0.7241 -0.4264  0.0481
  170MOL   H13130889   5.164   2.838   5.337 -0.4998 -0.6912 -0.6157
  170MOL   H13230890   5.152   2.867   5.167  0.1396  1.1027 -0.2489
  170MOL   H13330891   5.141   3.113   5.235  0.5311 -1.0738 -0.7448
  170MOL   H13430892   5.216   3.166   5.492  1.0659 -0.7374  0.2058
  170MOL   H13530893   5.063   3.119   5.463  1.4347 -0.0007  3.0222
  170MOL   H13630894   5.170   2.999   5.511  1.8709  0.4858  1.1070
  170MOL   C13730895   5.341   3.049   5.256  0.5690  0.5411 -0.8828
  170MOL   C13830896   5.391   3.198   5.243  0.5737 -0.4702 -0.3371
  170MOL   C13930897   5.546   3.201   5.230 -0.4879  0.2270 -0.2510
  170MOL   H14030898   5.407   3.010   5.334  0.9007  1.1652 -0.8423
  170MOL   H14130899   5.362   2.987   5.169 -0.1942 -1.2148  0.1640
  170MOL   H14230900   5.373   3.242   5.341 -1.3125 -0.5701 -0.6339
  170MOL   H14330901   5.573   3.301   5.264 -0.3704 -0.4356  1.6532
  170MOL   H14430902   5.590   3.131   5.301  0.5229  1.0226 -0.0854
  170MOL   H14530903   5.599   3.179   5.138 -1.2768  0.0713 -0.6695
  170MOL   C14630904   5.323   3.288   5.131 -0.1690  0.1936 -0.3117
  170MOL   C14730905   5.306   3.437   5.177  0.7055 -0.7391 -0.0052
  170MOL   C14830906   5.287   3.514   5.048 -0.4312 -1.2117  0.2623
  170MOL   H14930907   5.378   3.264   5.040 -1.9303  0.2619 -1.4139
  170MOL   H15030908   5.225   3.252   5.099 -1.1129  1.4068  1.1617
  170MOL   H15130909   5.398   3.473   5.223  1.2162 -0.1452 -1.4944
  170MOL   H15230910   5.282   3.619   5.077  1.6084 -1.1367  0.4118
  170MOL   H15330911   5.370   3.498   4.979 -1.5927 -0.3427 -1.3657
  170MOL   H15430912   5.191   3.495   4.999 -0.3383 -0.9186 -0.0301
  170MOL   C15530913   5.184   3.451   5.266  0.3545  0.2280  0.0292
  170MOL   C15630914   5.139   3.593   5.303  0.4082 -0.4704  0.0861
  170MOL   C15730915   4.997   3.588   5.355  0.3670 -0.3455  0.1301
  170MOL   H15830916   5.105   3.404   5.207  0.0767 -1.6614  1.8287
  170MOL   H15930917   5.194   3.388   5.354  1.4328 -0.0300 -0.2638
  170MOL   H16030918   5.126   3.658   5.217 -0.8818 -0.9690 -0.1100
  170MOL   H16130919   4.962   3.688   5.378  2.4901  0.8431 -1.5640
  170MOL   H16230920   4.938   3.533   5.281  0.1339 -1.1274  0.8829
  170MOL   H16330921   4.983   3.525   5.442 -0.0538  1.6887  1.5568
  170MOL   C16430922   5.240   3.657   5.398  0.1499  0.0161 -0.5854
  170MOL   C16530923   5.216   3.812   5.408 -0.6138  0.0863  0.7036
  170MOL   C16630924   5.287   3.867   5.534  0.0457  0.2610  0.4391
  170MOL   H16730925   5.232   3.602   5.492  0.9654 -0.3625 -0.7397
  170MOL   H16830926   5.342   3.640   5.366  1.1388 -0.0293  2.3856
  170MOL   H16930927   5.112   3.826   5.436 -0.6044 -1.8024  1.7620
  170MOL   H17030928   5.286   3.974   5.552  2.0127  0.1080  1.6640
  170MOL   H17130929   5.231   3.829   5.619 -1.1194 -2.5059 -1.4785
  170MOL   H17230930   5.388   3.825   5.534 -0.0761 -0.0427 -0.0987
  170MOL   C17330931   5.265   3.900   5.295 -0.3690 -1.0499  0.4293
  170MOL   C17430932   5.404   3.871   5.229  0.0995 -0.0142  0.1891
  170MOL   C17530933   5.439   3.957   5.113  0.0209  0.5881  0.3961
  170MOL   H17630934   5.190   3.881   5.218 -0.0883  0.2623 -0.1816
  170MOL   H17730935   5.267   4.001   5.334  2.1146  0.1004 -2.4171
  170MOL   H17830936   5.418   3.769   5.193  0.9076  0.3368 -0.4725
  170MOL   H17930937   5.357   3.939   5.043  0.7822 -0.6689 -0.1930
  170MOL   H18030938   5.433   4.058   5.153  0.7855  0.1636  1.6398
  170MOL   H18130939   5.534   3.940   5.062 -0.9783 -0.7325 -1.0354
  170MOL   H18230940   5.474   3.885   5.312  1.0348 -1.9212 -0.2487
  171MOL     C130941   5.598   1.545   7.212 -0.0454 -0.3156  0.1680
  171MOL     C230942   5.682   1.505   7.336 -0.4912 -0.2527 -0.3462
  171MOL     C330943   5.581   1.449   7.446 -0.0745  0.6821 -0.3786
  171MOL     H430944   5.491   1.565   7.224 -0.0142  0.7367 -1.2193
  171MOL     H530945   5.605   1.471   7.132 -1.5212  0.3725 -0.6163
  171MOL     H630946   5.713   1.593   7.391 -0.6792 -0.7232  0.5362
  171MOL     H730947   5.504   1.524   7.462  0.5457  1.4291 -0.9040
  171MOL     H830948   5.536   1.351   7.430 -0.3620  0.8187 -0.4044
  171MOL     H930949   5.624   1.435   7.545 -2.8588 -1.1755  0.6316
  171MOL    H1030950   5.645   1.629   7.161 -0.5400 -0.1729 -0.0610
  171MOL    C1130951   5.801   1.411   7.303 -0.0116  0.5139  0.0728
  171MOL    C1230952   5.895   1.468   7.183  0.0924  0.3519 -0.3707
  171MOL    C1330953   5.960   1.605   7.226 -0.2512 -0.5539 -0.0176
  171MOL    H1430954   5.859   1.388   7.392 -1.4671 -2.3524  0.3539
  171MOL    H1530955   5.765   1.315   7.267 -1.2124  0.9154  0.1812
  171MOL    H1630956   5.830   1.484   7.097 -0.0344  1.3103 -0.1041
  171MOL    H1730957   6.056   1.592   7.276 -1.4156 -0.5737  2.3017
  171MOL    H1830958   5.969   1.671   7.139 -0.1143  1.6217  1.5890
  171MOL    H1930959   5.895   1.660   7.295  0.8335 -0.8642  1.2637
  171MOL    C2030960   5.997   1.359   7.141  0.1534  0.4691 -0.1335
  171MOL    C2130961   6.043   1.394   6.999  0.7995  0.3413  0.1941
  171MOL    C2230962   6.186   1.323   6.986  0.6108  0.2356  0.4204
  171MOL    H2330963   6.081   1.366   7.211 -0.2880 -0.5076  0.5013
  171MOL    H2430964   5.951   1.260   7.146  0.8970  0.0575 -1.3111
  171MOL    H2530965   6.049   1.502   6.992  0.9613  0.2508 -1.3057
  171MOL    H2630966   6.261   1.349   7.061  0.7748 -0.3851  0.4707
  171MOL    H2730967   6.167   1.217   6.999  2.0229 -0.2985 -1.6982
  171MOL    H2830968   6.240   1.337   6.893 -1.5830  1.6576 -0.6872
  171MOL    C2930969   5.944   1.339   6.891 -0.2621  0.2808 -0.5324
  171MOL    C3030970   5.924   1.425   6.769  0.1154  0.7462  0.4848
  171MOL    C3130971   6.058   1.451   6.695 -0.0425  0.4355 -0.1204
  171MOL    H3230972   5.966   1.235   6.867 -1.4941 -0.7891  2.7659
  171MOL    H3330973   5.842   1.333   6.927 -0.4817  0.8292 -1.0440
  171MOL    H3430974   5.881   1.513   6.818  1.2297  0.9948  1.0455
  171MOL    H3530975   6.039   1.506   6.602 -0.3547 -1.3723 -1.1615
  171MOL    H3630976   6.128   1.514   6.748  0.8576 -1.1884  0.6469
  171MOL    H3730977   6.110   1.358   6.675 -0.5728  0.4057 -1.4840
  171MOL    C3830978   5.818   1.379   6.661 -0.2334  0.0076  0.9790
  171MOL    C3930979   5.670   1.361   6.712  0.2863 -0.6101  0.2247
  171MOL    C4030980   5.621   1.474   6.805  0.3507 -0.0402  0.1978
  171MOL    H4130981   5.809   1.460   6.588  0.2671  0.3196  1.2539
  171MOL    H4230982   5.847   1.298   6.594  2.1913  1.2410  0.4809
  171MOL    H4330983   5.672   1.267   6.766 -0.0044 -0.4677  0.4845
  171MOL    H4430984   5.516   1.460   6.828  0.9111 -2.0888  1.6331
  171MOL    H4530985   5.676   1.498   6.896 -0.9934  0.5596  0.8642
  171MOL    H4630986   5.617   1.562   6.741  1.1487  0.9646  1.5064
  171MOL    C4730987   5.577   1.348   6.600 -0.2022  0.5722  0.1053
  171MOL    C4830988   5.593   1.225   6.503 -0.7251 -0.0398 -0.8960
  171MOL    C4930989   5.609   1.099   6.582 -0.1027  0.6983 -0.1410
  171MOL    H5030990   5.472   1.353   6.630  0.1403 -1.7081  1.8049
  171MOL    H5130991   5.587   1.433   6.533  0.3831  0.4694  0.0649
  171MOL    H5230992   5.676   1.243   6.435 -0.9383 -1.6938 -1.6283
  171MOL    H5330993   5.541   1.101   6.667  2.1613 -1.6880  1.7970
  171MOL    H5430994   5.602   1.010   6.519  0.8057  1.1261 -0.8544
  171MOL    H5530995   5.704   1.083   6.632  0.0381  1.8350 -0.0378
  171MOL    C5630996   5.469   1.208   6.411  0.0877 -0.0497 -0.3840
  171MOL    C5730997   5.472   1.284   6.274  0.4133  0.2763  0.5509
  171MOL    C5830998   5.558   1.217   6.165  0.0649 -0.5591 -0.5445
  171MOL    H5930999   5.448   1.102   6.393 -3.7371  0.4824  0.5604
  171MOL    H6031000   5.377   1.243   6.459  0.7130 -0.5912  1.2613
  171MOL    H6131001   5.518   1.381   6.291 -0.4343  1.0628 -1.4362
  171MOL    H6231002   5.562   1.264   6.067 -0.3259 -0.1274 -0.3562
  171MOL    H6331003   5.664   1.222   6.188 -0.4545  0.9036  1.6522
  171MOL    H6431004   5.535   1.112   6.144  0.1129 -0.7029  0.1068
  171MOL    C6531005   5.332   1.317   6.213 -0.3917  0.4841  0.5283
  171MOL    C6631006   5.325   1.409   6.085 -0.0878 -0.5715 -1.1756
  171MOL    C6731007   5.176   1.424   6.042 -0.4575 -0.3077 -0.3570
  171MOL    H6831008   5.295   1.219   6.182  0.0721 -0.0186  1.5651
  171MOL    H6931009   5.265   1.348   6.293 -1.1100 -3.2761  1.4998
  171MOL    H7031010   5.369   1.341   6.013  0.5221 -1.4405  0.0050
  171MOL    H7131011   5.131   1.503   6.102  0.8135  0.9973 -1.0915
  171MOL    H7231012   5.164   1.452   5.937  1.9338  3.2370  0.2337
  171MOL    H7331013   5.126   1.328   6.058  1.7222 -1.4627 -0.3794
  171MOL    C7431014   5.406   1.539   6.099  0.3683  0.4256 -0.2703
  171MOL    C7531015   5.408   1.643   5.983  0.4610 -0.8540  0.0298
  171MOL    C7631016   5.401   1.785   6.046 -0.1353  0.1690 -0.5375
  171MOL    H7731017   5.370   1.600   6.181 -0.1947 -1.7466  1.1327
  171MOL    H7831018   5.509   1.521   6.131 -0.5194 -0.1059  2.4208
  171MOL    H7931019   5.327   1.631   5.912  1.1785  1.6132 -1.2567
  171MOL    H8031020   5.413   1.862   5.969 -0.1349  1.0755  0.3621
  171MOL    H8131021   5.319   1.808   6.113  0.6149 -0.5890  0.6661
  171MOL    H8231022   5.494   1.807   6.099 -1.0544  2.1450  0.2789
  171MOL    C8331023   5.537   1.628   5.896  0.7348  0.2539  0.4327
  171MOL    C8431024   5.563   1.483   5.841 -0.0985  0.1663 -0.0880
  171MOL    C8531025   5.450   1.428   5.752 -0.2924 -0.1341 -0.5103
  171MOL    H8631026   5.543   1.715   5.830  1.8963  1.0666  1.5738
  171MOL    H8731027   5.620   1.653   5.962  1.0377 -0.2374  0.2396
  171MOL    H8831028   5.567   1.417   5.928  1.7344 -0.2795 -0.4996
  171MOL    H8931029   5.352   1.432   5.798  0.7121  0.6154  1.6501
  171MOL    H9031030   5.435   1.492   5.665 -0.0171  0.0432 -0.4296
  171MOL    H9131031   5.472   1.325   5.723 -0.3828 -0.7895  1.6494
  171MOL    C9231032   5.691   1.467   5.759 -0.9996 -0.6300  0.2359
  171MOL    C9331033   5.822   1.505   5.835  0.3746  0.3267  1.1160
  171MOL    C9431034   5.850   1.406   5.952 -0.2552  0.3544 -0.2341
  171MOL    H9531035   5.696   1.362   5.730  3.7721 -0.4439  0.1029
  171MOL    H9631036   5.696   1.522   5.665 -0.0131 -1.3122 -0.1131
  171MOL    H9731037   5.805   1.599   5.887  1.5493  0.7818  0.6975
  171MOL    H9831038   5.776   1.416   6.032  1.9908  1.5275  1.7580
  171MOL    H9931039   5.858   1.304   5.916 -0.0556  0.3026 -0.0409
  171MOL   H10031040   5.939   1.433   6.009 -0.6068 -0.0041  0.4934
  171MOL   C10131041   5.949   1.501   5.737  0.5150 -0.9308  0.1263
  171MOL   C10231042   5.944   1.585   5.604  1.3213  0.6413 -0.1643
  171MOL   C10331043   5.905   1.731   5.639  0.2507 -0.1164 -0.6369
  171MOL   H10431044   6.046   1.527   5.780  0.8933 -0.8285 -0.7879
  171MOL   H10531045   5.970   1.398   5.710 -1.3008 -1.7837  1.8780
  171MOL   H10631046   5.876   1.537   5.533  0.4437  1.1891  0.2933
  171MOL   H10731047   5.914   1.795   5.551  0.8117  0.2048 -0.3509
  171MOL   H10831048   5.808   1.750   5.684  0.0262 -1.6280 -0.4647
  171MOL   H10931049   5.980   1.762   5.712 -1.5324 -0.1012  1.2355
  171MOL   C11031050   6.080   1.568   5.533  0.7677 -0.1378 -0.9351
  171MOL   C11131051   6.107   1.438   5.462  0.3925 -0.4044 -0.5319
  171MOL   C11231052   6.001   1.388   5.367 -0.4514 -0.3716  0.5477
  171MOL   H11331053   6.096   1.644   5.457  2.3985 -0.1010 -0.5907
  171MOL   H11431054   6.157   1.600   5.605  0.9242 -0.0088 -1.1602
  171MOL   H11531055   6.110   1.362   5.539  1.0633  1.7623  1.6437
  171MOL   H11631056   5.903   1.371   5.410  0.1510  0.3295  2.2267
  171MOL   H11731057   5.986   1.460   5.286 -0.7198 -1.4617 -0.3838
  171MOL   H11831058   6.039   1.297   5.319 -2.1052 -0.1882 -1.1672
  171MOL   C11931059   6.247   1.429   5.399  0.2656  0.2614 -0.3040
  171MOL   C12031060   6.365   1.461   5.500  0.7872 -0.0616  0.6329
  171MOL   C12131061   6.369   1.360   5.614  0.3813 -0.1853  0.4868
  171MOL   H12231062   6.276   1.329   5.364  1.8832  0.7604 -0.4358
  171MOL   H12331063   6.256   1.491   5.310 -1.8886 -1.0792 -1.4930
  171MOL   H12431064   6.347   1.563   5.535  0.5814 -0.0053  0.3565
  171MOL   H12531065   6.293   1.371   5.691 -0.8179 -2.1786 -0.3907
  171MOL   H12631066   6.350   1.257   5.585  0.7071  0.0189 -0.4554
  171MOL   H12731067   6.464   1.366   5.668 -0.4984  1.7828  1.8863
  171MOL   C12831068   6.495   1.450   5.426 -0.3308 -0.3255 -0.4309
  171MOL   C12931069   6.626   1.503   5.497 -0.7318 -0.0992 -0.1194
  171MOL   C13031070   6.753   1.446   5.430 -0.4302  0.1337 -0.7307
  171MOL   H13131071   6.507   1.344   5.402 -0.3888 -0.3271 -0.4526
  171MOL   H13231072   6.488   1.494   5.327  0.2837  1.8982  0.4904
  171MOL   H13331073   6.622   1.462   5.598 -0.9411 -1.2524 -0.5846
  171MOL   H13431074   6.756   1.338   5.440  1.6100  0.1418 -1.0884
  171MOL   H13531075   6.761   1.471   5.324  0.7356  0.0007 -0.6747
  171MOL   H13631076   6.841   1.480   5.485  1.5731 -0.6259 -3.3374
  171MOL   C13731077   6.629   1.656   5.486 -0.0140 -0.1656  0.9582
  171MOL   C13831078   6.575   1.736   5.605 -0.0117  0.0668 -0.8758
  171MOL   C13931079   6.677   1.744   5.729  0.1627  0.1139 -0.6156
  171MOL   H14031080   6.726   1.698   5.458  1.0755 -0.7947  3.6312
  171MOL   H14131081   6.563   1.693   5.407  0.1059 -1.0532  0.4408
  171MOL   H14231082   6.487   1.689   5.649 -1.6769  4.1208  0.3622
  171MOL   H14331083   6.781   1.738   5.695  0.3507 -2.0925  0.2591
  171MOL   H14431084   6.671   1.837   5.786  1.8645 -0.6192  0.8048
  171MOL   H14531085   6.674   1.655   5.792 -1.8324  0.8944  0.4243
  171MOL   C14631086   6.534   1.882   5.561 -0.1960 -0.7473 -0.4726
  171MOL   C14731087   6.379   1.885   5.527 -0.5059  0.3188  0.1433
  171MOL   C14831088   6.292   1.890   5.656 -0.2863 -0.3890 -0.3944
  171MOL   H14931089   6.543   1.943   5.651 -2.0513  1.1834 -1.5536
  171MOL   H15031090   6.601   1.924   5.486  1.3689  0.2587  1.4319
  171MOL   H15131091   6.359   1.785   5.489  0.5788 -0.5505  1.7674
  171MOL   H15231092   6.307   1.800   5.715  0.0457  1.0036  1.6851
  171MOL   H15331093   6.310   1.978   5.717  0.8123 -0.9765  0.1456
  171MOL   H15431094   6.184   1.897   5.646 -0.3630  1.7826  1.5964
  171MOL   C15531095   6.327   1.988   5.423 -0.5979  0.2893  0.0424
  171MOL   C15631096   6.372   1.972   5.277  0.5983 -0.6315  0.1352
  171MOL   C15731097   6.337   1.834   5.214  0.4687 -0.1538  0.1709
  171MOL   H15831098   6.218   1.990   5.429 -0.6390 -0.1757 -0.4520
  171MOL   H15931099   6.368   2.086   5.448  0.9200  0.0417 -1.3571
  171MOL   H16031100   6.481   1.967   5.274  0.5952 -0.0343 -1.3369
  171MOL   H16131101   6.228   1.824   5.213  0.5695 -1.3206  0.3288
  171MOL   H16231102   6.367   1.833   5.109  0.3285 -1.8348  0.1246
  171MOL   H16331103   6.381   1.753   5.272  1.3157  1.2076  1.4430
  171MOL   C16431104   6.311   2.083   5.182 -0.5386  0.4194 -0.2043
  171MOL   C16531105   6.367   2.227   5.211  0.1796 -0.1981 -0.8350
  171MOL   C16631106   6.504   2.250   5.166 -0.7072 -0.4574 -0.5317
  171MOL   H16731107   6.339   2.051   5.082 -2.9285  0.3522 -0.8693
  171MOL   H16831108   6.202   2.076   5.187 -0.5053  0.5622  0.8583
  171MOL   H16931109   6.381   2.238   5.319  0.7862  0.8344 -1.0091
  171MOL   H17031110   6.513   2.237   5.058  2.4602  0.9167 -0.4763
  171MOL   H17131111   6.540   2.346   5.201 -1.8670  0.5158 -1.9557
  171MOL   H17231112   6.579   2.178   5.201 -0.3099  0.1888 -0.0501
  171MOL   C17331113   6.278   2.342   5.162  0.4833 -0.2489  0.1064
  171MOL   C17431114   6.162   2.373   5.253 -0.4505  0.6202 -0.0023
  171MOL   C17531115   6.069   2.484   5.203 -0.2097 -0.6554  0.4596
  171MOL   H17631116   6.330   2.438   5.162  1.3695 -0.7026 -1.8320
  171MOL   H17731117   6.245   2.332   5.059 -0.5686  0.0796  0.4093
  171MOL   H17831118   6.194   2.394   5.354  1.9536 -0.6557 -0.4774
  171MOL   H17931119   6.029   2.459   5.104  2.7618  1.5547 -1.3875
  171MOL   H18031120   5.987   2.497   5.274 -1.2328 -0.4915 -0.7117
  171MOL   H18131121   6.115   2.582   5.194 -0.4682 -0.4508  1.3462
  171MOL   H18231122   6.095   2.288   5.243 -0.2188  0.3639  0.6716
  172MOL     C131123   7.656   3.129   2.437 -0.2694  0.2877 -0.3774
  172MOL     C231124   0.058   3.190   2.334  0.0709  0.4259 -0.1362
  172MOL     C331125   0.175   3.094   2.306  0.5957  0.3908  0.7200
  172MOL     H431126   0.021   3.095   2.520 -0.2070 -1.3103 -1.0548
  172MOL     H531127   7.609   3.036   2.405 -0.2578  0.1804 -0.0898
  172MOL     H631128   0.106   3.282   2.369  0.7006  0.1862 -0.3636
  172MOL     H731129   0.236   3.131   2.223  0.6115 -0.6618  0.2544
  172MOL     H831130   0.244   3.096   2.390  1.6072  2.3246 -0.1035
  172MOL     H931131   0.141   2.991   2.291  2.1614  0.0902 -1.1428
  172MOL    H1031132   7.580   3.199   2.472 -1.1692 -0.6693 -0.3690
  172MOL    C1131133   7.680   3.213   2.199 -0.3651  0.2683 -0.4931
  172MOL    C1231134   7.552   3.302   2.192 -0.3357  0.3731 -0.4722
  172MOL    C1331135   7.597   3.451   2.195 -0.1049  0.0655  0.3362
  172MOL    H1431136   0.061   3.246   2.131 -1.0511  2.7089 -0.1332
  172MOL    H1531137   7.642   3.115   2.170 -1.7194  1.0391 -1.3377
  172MOL    H1631138   7.495   3.283   2.284 -0.8839  0.5720 -0.7676
  172MOL    H1731139   7.508   3.513   2.204 -0.9784 -0.5784 -3.0080
  172MOL    H1831140   7.663   3.484   2.275 -0.4398 -0.2318  0.7350
  172MOL    H1931141   7.652   3.481   2.106 -1.5703  0.5815 -0.4055
  172MOL    C2031142   7.468   3.273   2.066  0.1976  0.0570 -0.2170
  172MOL    C2131143   7.323   3.330   2.072  0.0011  0.4988  0.3956
  172MOL    C2231144   7.290   3.431   1.962 -0.0372  0.0090  0.0313
  172MOL    H2331145   7.517   3.301   1.973  0.0573 -0.6301 -0.5060
  172MOL    H2431146   7.468   3.165   2.052  3.3865 -0.0998  0.5956
  172MOL    H2531147   7.321   3.384   2.167  2.2833  2.2606 -0.5046
  172MOL    H2631148   7.288   3.375   1.869  0.5321  1.3085 -0.7743
  172MOL    H2731149   7.200   3.488   1.983 -0.2477  0.7911 -2.8368
  172MOL    H2831150   7.383   3.486   1.950  1.2041 -1.8448  0.8732
  172MOL    C2931151   7.214   3.213   2.082  0.0839 -0.5285  0.7182
  172MOL    C3031152   7.228   3.117   2.201  0.2248 -0.5750 -0.2706
  172MOL    C3131153   7.218   3.189   2.337  0.1424  0.0071 -0.1390
  172MOL    H3231154   7.119   3.267   2.088  0.3491 -0.0380  0.5480
  172MOL    H3331155   7.214   3.149   1.994 -0.4882 -1.5399  1.4415
  172MOL    H3431156   7.329   3.075   2.197 -0.0863 -1.2647 -1.0106
  172MOL    H3531157   7.123   3.240   2.354  0.9441  1.7885 -0.9113
  172MOL    H3631158   7.237   3.116   2.415  0.2684  2.1035  1.8422
  172MOL    H3731159   7.286   3.273   2.352  2.1995 -1.6197 -0.1677
  172MOL    C3831160   7.121   3.002   2.204 -0.0352 -0.5528  0.1520
  172MOL    C3931161   7.118   2.892   2.096 -0.4677 -0.0332  0.4076
  172MOL    C4031162   7.245   2.810   2.089 -0.6158 -0.3489 -0.1853
  172MOL    H4131163   7.143   2.950   2.298  2.2986  0.3287  0.1320
  172MOL    H4231164   7.025   3.052   2.214 -1.0176 -2.1214 -1.1822
  172MOL    H4331165   7.121   2.947   2.002 -0.9954  1.9476  1.5159
  172MOL    H4431166   7.327   2.873   2.054  1.6480 -2.0222  1.9353
  172MOL    H4531167   7.273   2.756   2.179 -1.0071  0.0147  0.1520
  172MOL    H4631168   7.230   2.730   2.017  0.8414  0.2082 -1.1376
  172MOL    C4731169   6.999   2.801   2.096  0.3284  0.1622  0.4785
  172MOL    C4831170   6.844   2.853   2.097  0.2390 -0.4391  0.2803
  172MOL    C4931171   6.780   2.879   1.949 -0.4370  0.3064 -0.1922
  172MOL    H5031172   7.003   2.747   2.001 -2.8404 -1.4270  1.1764
  172MOL    H5131173   7.006   2.725   2.175 -1.0407  0.6332  1.0609
  172MOL    H5231174   6.846   2.952   2.143 -1.4577  0.0260 -0.6193
  172MOL    H5331175   6.781   2.789   1.888 -2.3831  0.3116 -0.2665
  172MOL    H5431176   6.679   2.918   1.962 -0.4294 -0.3589  1.8812
  172MOL    H5531177   6.838   2.955   1.897 -0.2823  0.0611 -0.3831
  172MOL    C5631178   6.752   2.757   2.179  0.0723  0.1547 -0.4553
  172MOL    C5731179   6.786   2.748   2.327  0.5093  0.0672  0.2449
  172MOL    C5831180   6.807   2.892   2.387  0.1587 -0.6777  0.0845
  172MOL    H5931181   6.649   2.782   2.153 -0.2652  0.8720  1.4989
  172MOL    H6031182   6.757   2.662   2.125 -2.1155 -0.6973  0.7662
  172MOL    H6131183   6.881   2.696   2.339  0.2105 -1.0088 -1.7860
  172MOL    H6231184   6.904   2.935   2.362  0.0673  0.0995  1.0399
  172MOL    H6331185   6.719   2.953   2.369  0.8285  0.7695  1.5853
  172MOL    H6431186   6.823   2.869   2.492  3.1402 -0.2317 -0.2155
  172MOL    C6531187   6.675   2.664   2.401  0.6822 -0.3507 -0.1521
  172MOL    C6631188   6.687   2.515   2.370 -0.0112  0.3672  0.8647
  172MOL    C6731189   6.826   2.460   2.371 -0.3314  0.4327 -0.1424
  172MOL    H6831190   6.675   2.686   2.507 -0.1851  0.9728 -0.4123
  172MOL    H6931191   6.574   2.696   2.375  0.9327  1.2836  0.8390
  172MOL    H7031192   6.646   2.496   2.270 -0.3172  1.6329  0.7414
  172MOL    H7131193   6.817   2.352   2.385  1.1461  0.3928  0.5584
  172MOL    H7231194   6.866   2.488   2.273 -0.4425  1.1607  0.0221
  172MOL    H7331195   6.882   2.501   2.454  0.0520 -2.9823  1.3891
  172MOL    C7431196   6.598   2.442   2.468 -0.3105 -0.3499  0.3308
  172MOL    C7531197   6.555   2.294   2.445  0.0433  0.1218 -0.3080
  172MOL    C7631198   6.499   2.234   2.575 -0.4982  0.7659 -0.0324
  172MOL    H7731199   6.655   2.449   2.560  0.7653 -0.2606 -0.3257
  172MOL    H7831200   6.506   2.498   2.483  0.3772  0.2634  2.2969
  172MOL    H7931201   6.644   2.241   2.411  1.1230  0.9556  1.1716
  172MOL    H8031202   6.581   2.208   2.643 -1.1069 -1.0842  0.0245
  172MOL    H8131203   6.426   2.306   2.612  0.0472  0.3051  2.0148
  172MOL    H8231204   6.462   2.135   2.549 -0.0883  0.1154  1.7410
  172MOL    C8331205   6.452   2.271   2.332  0.3402 -0.0025 -0.2795
  172MOL    C8431206   6.309   2.327   2.345 -0.1172 -0.2526 -0.2887
  172MOL    C8531207   6.294   2.469   2.290  0.6380 -0.1195 -0.2941
  172MOL    H8631208   6.490   2.308   2.237  0.0560 -2.1670 -1.2758
  172MOL    H8731209   6.437   2.163   2.329 -2.3961  0.3264  0.1764
  172MOL    H8831210   6.275   2.330   2.448 -0.1531 -1.6168 -0.2585
  172MOL    H8931211   6.286   2.482   2.182 -1.0529 -0.1589 -0.1756
  172MOL    H9031212   6.206   2.518   2.329  0.1131 -0.8381 -0.5746
  172MOL    H9131213   6.382   2.530   2.315  0.7359 -1.3320  2.4755
  172MOL    C9231214   6.213   2.237   2.262  0.2971  0.1109 -0.4823
  172MOL    C9331215   6.181   2.094   2.315 -0.5724 -0.2678 -0.3767
  172MOL    C9431216   6.145   2.093   2.464 -0.1756 -0.5893  0.5751
  172MOL    H9531217   6.122   2.297   2.268  0.6546  0.6319 -0.3112
  172MOL    H9631218   6.242   2.229   2.157 -2.3834 -1.4837 -1.1742
  172MOL    H9731219   6.278   2.045   2.306  0.1210  1.3028 -1.7309
  172MOL    H9831220   6.227   2.109   2.534  0.6095  0.7704 -0.6128
  172MOL    H9931221   6.066   2.169   2.468  0.1124 -0.2925  0.6616
  172MOL   H10031222   6.102   1.994   2.473  1.1079 -1.2199 -0.1370
  172MOL   C10131223   6.091   2.008   2.225  0.4377 -0.2335 -0.0732
  172MOL   C10231224   6.156   1.962   2.090  0.3341 -0.5847 -0.4874
  172MOL   C10331225   6.249   1.839   2.120  0.1488 -0.1833 -0.2073
  172MOL   H10431226   6.053   1.916   2.270  0.5052  0.6366  1.8266
  172MOL   H10531227   6.002   2.062   2.193  1.7420  1.5133 -0.7702
  172MOL   H10631228   6.212   2.040   2.039  1.8881 -1.0436  0.5156
  172MOL   H10731229   6.199   1.762   2.178  1.3595 -0.3422  0.6423
  172MOL   H10831230   6.293   1.805   2.026 -1.2095  1.6769 -1.5609
  172MOL   H10931231   6.335   1.873   2.177 -0.3360 -1.6993  1.4683
  172MOL   C11031232   6.051   1.915   1.996 -0.6548  1.1337 -1.0037
  172MOL   C11131233   6.004   2.021   1.890 -0.2962 -0.1633 -0.3617
  172MOL   C11231234   6.123   2.056   1.800 -0.0155 -0.0050 -0.8714
  172MOL   H11331235   6.080   1.824   1.943 -1.9077  1.2386 -1.8986
  172MOL   H11431236   5.964   1.887   2.056 -0.5557  2.1808 -0.3568
  172MOL   H11531237   5.984   2.111   1.948 -0.4314  1.0685 -2.3066
  172MOL   H11631238   6.190   2.111   1.867 -0.1042 -1.4690  0.4407
  172MOL   H11731239   6.177   1.968   1.766 -1.3933 -1.3957  0.4477
  172MOL   H11831240   6.099   2.122   1.717 -0.4413 -0.2389 -0.9356
  172MOL   C11931241   5.894   1.968   1.799  0.7201 -0.0627  0.4605
  172MOL   C12031242   5.750   1.969   1.869  0.1096 -0.2124 -0.4198
  172MOL   C12131243   5.686   2.106   1.846  0.1266 -0.1977  0.0259
  172MOL   H12231244   5.893   2.026   1.707  0.4341  0.9556  1.0933
  172MOL   H12331245   5.917   1.869   1.761  0.0260  0.1676 -0.5808
  172MOL   H12431246   5.762   1.960   1.977 -0.2430  0.6602 -0.3099
  172MOL   H12531247   5.595   2.116   1.905  0.8971  2.1763  0.8396
  172MOL   H12631248   5.744   2.185   1.893 -2.6649  1.5712  0.6253
  172MOL   H12731249   5.654   2.129   1.744  0.8934 -0.9049 -0.3874
  172MOL   C12831250   5.663   1.855   1.823  0.3092 -0.0870  0.1038
  172MOL   C12931251   5.688   1.714   1.880  0.0112  1.1152  1.1373
  172MOL   C13031252   5.642   1.698   2.019 -0.3260  0.1029 -0.2194
  172MOL   H13131253   5.558   1.874   1.844 -0.4969  0.1121 -3.7411
  172MOL   H13231254   5.674   1.847   1.715  0.7715  1.2263  0.0406
  172MOL   H13331255   5.797   1.704   1.879  0.0582  1.5906 -0.1976
  172MOL   H13431256   5.725   1.711   2.088  0.8622 -0.8178 -1.4168
  172MOL   H13531257   5.580   1.781   2.053  0.6522  0.5617  0.4472
  172MOL   H13631258   5.594   1.605   2.050 -0.9640  0.7067  0.6157
  172MOL   C13731259   5.615   1.599   1.809  0.7716 -0.3583 -0.5203
  172MOL   C13831260   5.684   1.470   1.833  0.0629 -0.5174  0.1276
  172MOL   C13931261   5.591   1.361   1.877  0.7194 -0.5241  0.2042
  172MOL   H14031262   5.512   1.609   1.843  1.1629  0.6978  0.3696
  172MOL   H14131263   5.603   1.624   1.703  0.4940 -0.9515 -0.6310
  172MOL   H14231264   5.753   1.477   1.917 -0.7332  1.6212  0.6077
  172MOL   H14331265   5.635   1.262   1.886 -0.1006 -0.8862  0.2721
  172MOL   H14431266   5.538   1.384   1.970  0.2312 -3.7757  0.7963
  172MOL   H14531267   5.508   1.348   1.807  3.2866  1.3844 -3.3401
  172MOL   C14631268   5.757   1.432   1.694  0.7225 -0.1368 -0.0328
  172MOL   C14731269   5.835   1.297   1.677 -1.0635 -0.1984 -0.5142
  172MOL   C14831270   5.935   1.283   1.793  0.7460 -0.1607 -0.1236
  172MOL   H14931271   5.692   1.440   1.606  1.3548  1.6761 -0.3366
  172MOL   H15031272   5.824   1.515   1.672 -0.8100  1.1802  0.2034
  172MOL   H15131273   5.899   1.304   1.589  1.4111 -1.1828  1.1522
  172MOL   H15231274   6.011   1.361   1.791 -0.3391  0.9260 -0.1480
  172MOL   H15331275   5.885   1.297   1.889  0.6103 -1.9812  0.0940
  172MOL   H15431276   5.982   1.186   1.780 -0.4793 -0.8609  0.5816
  172MOL   C15531277   5.748   1.169   1.657  0.0001 -0.4706 -0.4628
  172MOL   C15631278   5.642   1.177   1.550 -0.2821  0.0452  0.4777
  172MOL   C15731279   5.708   1.186   1.413 -0.2963  0.2690 -0.2350
  172MOL   H15831280   5.815   1.087   1.636 -0.5135 -0.7798 -0.9078
  172MOL   H15931281   5.715   1.134   1.754  1.0893  0.7761  0.3710
  172MOL   H16031282   5.574   1.260   1.572 -3.3982 -2.1850 -0.4610
  172MOL   H16131283   5.632   1.166   1.337 -1.2396  3.0730 -0.0912
  172MOL   H16231284   5.762   1.280   1.400  0.3585  0.3357  2.5956
  172MOL   H16331285   5.783   1.107   1.406 -1.9454 -1.4472  0.8145
  172MOL   C16431286   5.556   1.046   1.546  0.1532 -0.2079 -0.0542
  172MOL   C16531287   5.439   1.051   1.652 -0.0442 -0.1155 -0.0452
  172MOL   C16631288   5.335   1.159   1.611  0.0944  0.4225  0.5408
  172MOL   H16731289   5.523   1.012   1.448 -0.5634 -0.7581  0.3788
  172MOL   H16831290   5.626   0.971   1.584  0.1256  0.3270  1.0709
  172MOL   H16931291   5.469   1.092   1.748 -3.9464  0.5712  0.9352
  172MOL   H17031292   5.363   1.263   1.625  0.3165  0.5994 -1.0596
  172MOL   H17131293   5.303   1.142   1.508  0.4813 -1.1641  0.6624
  172MOL   H17231294   5.251   1.137   1.676  0.5638 -1.2553  0.6235
  172MOL   C17331295   5.380   0.907   1.675  0.7038  0.1538  0.1272
  172MOL   C17431296   5.290   0.901   1.809  0.1008  0.0038  0.4002
  172MOL   C17531297   5.283   0.767   1.868 -0.2173  0.4864  0.0582
  172MOL   H17631298   5.334   0.869   1.584  0.2464  1.5705 -0.2363
  172MOL   H17731299   5.471   0.849   1.693  0.6253  0.0661  0.2454
  172MOL   H17831300   5.195   0.950   1.787  0.2782 -0.0948 -0.6144
  172MOL   H17931301   5.214   0.759   1.952  0.9633 -2.0172  0.8034
  172MOL   H18031302   5.272   0.683   1.799 -0.2906  0.5494 -0.0080
  172MOL   H18131303   5.385   0.755   1.904 -0.0442 -0.0042 -0.5858
  172MOL   H18231304   5.319   0.978   1.880 -3.0452  2.4826 -0.8655
  173MOL     C131305   4.923   4.394   6.432 -0.3374  0.5380  0.3192
  173MOL     C231306   5.059   4.327   6.449  0.2298  0.4962  0.4903
  173MOL     C331307   5.051   4.214   6.543  0.3932 -0.2005  0.3282
  173MOL     H431308   4.935   4.490   6.383 -0.7199  0.2271 -0.3843
  173MOL     H531309   4.879   4.415   6.530 -0.3505  2.6778 -0.1325
  173MOL     H631310   5.123   4.407   6.486 -0.1269 -0.0756  2.4076
  173MOL     H731311   4.966   4.147   6.529  1.6429 -1.9193  0.7461
  173MOL     H831312   5.145   4.160   6.550  1.3449  1.5193  1.2163
  173MOL     H931313   5.035   4.252   6.644 -3.8777 -0.3000 -0.2127
  173MOL    H1031314   4.851   4.333   6.378  0.1605  1.4494 -1.4183
  173MOL    C1131315   5.116   4.288   6.304 -0.7439  0.2146  0.4485
  173MOL    C1231316   5.195   4.401   6.228  0.1189 -0.6513  0.1455
  173MOL    C1331317   5.337   4.427   6.288  0.0584 -0.1266 -0.3734
  173MOL    H1431318   5.170   4.194   6.316 -2.1375 -0.8220 -1.1164
  173MOL    H1531319   5.030   4.262   6.242 -0.5647  2.3892 -0.7270
  173MOL    H1631320   5.135   4.490   6.246 -0.3104 -0.9469  0.1829
  173MOL    H1731321   5.391   4.515   6.254 -0.6338  1.4953  2.5196
  173MOL    H1831322   5.344   4.428   6.397  2.4124 -0.4668 -0.4949
  173MOL    H1931323   5.403   4.348   6.253 -1.7536 -0.5043 -3.0521
  173MOL    C2031324   5.192   4.379   6.072 -0.0638  0.3760 -1.2467
  173MOL    C2131325   5.230   4.505   5.985 -0.7853  0.2805  0.1479
  173MOL    C2231326   5.258   4.460   5.842  0.0736  0.5836  0.1389
  173MOL    H2331327   5.261   4.297   6.054  0.3616 -0.0114  1.8022
  173MOL    H2431328   5.097   4.341   6.035  0.2924 -0.6538 -1.1108
  173MOL    H2531329   5.322   4.540   6.032 -0.2368 -0.5899 -0.2540
  173MOL    H2631330   5.271   4.551   5.783 -2.9791 -0.0181 -1.5477
  173MOL    H2731331   5.345   4.395   5.844  0.7353  1.4714  0.7081
  173MOL    H2831332   5.177   4.405   5.794 -0.1120  0.7726  0.2350
  173MOL    C2931333   5.114   4.614   5.991 -0.2642 -0.1491  0.0060
  173MOL    C3031334   5.141   4.751   5.941 -0.2054 -0.2736 -0.2025
  173MOL    C3131335   5.014   4.825   5.899  0.0306  0.3986 -0.1142
  173MOL    H3231336   5.026   4.588   5.932 -1.6009  1.7747  1.0903
  173MOL    H3331337   5.076   4.629   6.092 -3.3283  1.7235 -1.3701
  173MOL    H3431338   5.207   4.757   5.855  0.4797  0.5361  0.3638
  173MOL    H3531339   5.032   4.921   5.851 -2.0894  0.7715 -0.2015
  173MOL    H3631340   4.953   4.774   5.825  0.4457  1.8468 -1.4683
  173MOL    H3731341   4.946   4.831   5.985  0.5286 -0.5514  0.3594
  173MOL    C3831342   5.201   4.844   6.052  0.5783 -0.5454  0.1257
  173MOL    C3931343   5.333   4.804   6.123  0.9310  0.1673 -0.6873
  173MOL    C4031344   5.439   4.779   6.012  1.0621 -0.3049  0.2963
  173MOL    H4131345   5.214   4.941   6.004 -0.3507 -1.5676 -2.3059
  173MOL    H4231346   5.126   4.860   6.130 -0.0600  1.5818 -0.8887
  173MOL    H4331347   5.315   4.711   6.176 -2.0297  0.2147 -1.5302
  173MOL    H4431348   5.456   4.873   5.961 -0.5798  0.8770  1.8869
  173MOL    H4531349   5.529   4.736   6.056  2.8834  1.4466 -1.5973
  173MOL    H4631350   5.417   4.717   5.925  2.0421  0.1672 -0.3043
  173MOL    C4731351   5.379   4.915   6.225 -0.4133 -0.0526 -0.4044
  173MOL    C4831352   5.289   4.949   6.351 -0.3217  0.1879 -0.4214
  173MOL    C4931353   5.330   4.863   6.470 -0.0374  0.0307  0.3575
  173MOL    H5031354   5.476   4.879   6.257  0.4516  1.4136 -1.2990
  173MOL    H5131355   5.398   5.001   6.160 -4.0665  0.0677 -1.4120
  173MOL    H5231356   5.186   4.915   6.337 -0.3772  1.0340 -2.1329
  173MOL    H5331357   5.342   4.758   6.440 -1.3526  0.6579 -2.5287
  173MOL    H5431358   5.425   4.898   6.510  0.0153  0.4028 -0.0959
  173MOL    H5531359   5.263   4.873   6.556  0.8899  0.7112  1.0038
  173MOL    C5631360   5.287   5.104   6.386  0.3403 -0.1854 -0.3561
  173MOL    C5731361   5.186   5.179   6.299  0.5245 -0.7070 -0.0848
  173MOL    C5831362   5.041   5.129   6.334  0.2264  0.4864  0.3414
  173MOL    H5931363   5.269   5.122   6.492  1.1618 -0.2096 -0.2110
  173MOL    H6031364   5.391   5.132   6.368  0.7426 -0.8980  0.8110
  173MOL    H6131365   5.214   5.152   6.197 -0.1514  1.4799 -0.8933
  173MOL    H6231366   5.017   5.141   6.439 -1.5650 -0.5280  0.0633
  173MOL    H6331367   4.962   5.178   6.277  0.2416 -0.3363 -0.3978
  173MOL    H6431368   5.021   5.026   6.302  0.2987  0.1405  1.3935
  173MOL    C6531369   5.185   5.330   6.326 -0.6719 -0.9196 -0.1448
  173MOL    C6631370   5.298   5.420   6.285 -0.0576  0.5732  0.4766
  173MOL    C6731371   5.311   5.411   6.136 -0.8345  0.1437 -0.2351
  173MOL    H6831372   5.093   5.376   6.291  0.6065  2.1449  0.3831
  173MOL    H6931373   5.169   5.347   6.433 -2.3273 -1.3449 -0.2984
  173MOL    H7031374   5.391   5.389   6.334  0.0036 -0.5298 -0.3294
  173MOL    H7131375   5.374   5.481   6.082  1.1365  0.1960  2.0713
  173MOL    H7231376   5.350   5.313   6.109  0.3480  1.2093 -2.5405
  173MOL    H7331377   5.213   5.408   6.088 -1.6797 -2.3643  1.5373
  173MOL    C7431378   5.272   5.568   6.318 -0.1123 -0.0084 -0.1355
  173MOL    C7531379   5.291   5.609   6.468  0.0413 -0.8185  0.2998
  173MOL    C7631380   5.440   5.612   6.515 -0.1104 -0.5151 -0.5153
  173MOL    H7731381   5.335   5.628   6.253  2.1955 -1.9461  0.2319
  173MOL    H7831382   5.169   5.589   6.288  0.0906 -2.1212 -2.5351
  173MOL    H7931383   5.243   5.525   6.517  1.2013 -2.2077 -0.8886
  173MOL    H8031384   5.499   5.522   6.494  0.3099 -0.3666  0.0085
  173MOL    H8131385   5.493   5.685   6.453  0.4859 -1.3240 -0.9737
  173MOL    H8231386   5.455   5.647   6.617 -1.5360  1.7338 -1.0568
  173MOL    C8331387   5.214   5.738   6.502  0.1123  0.7630  0.5176
  173MOL    C8431388   5.191   5.746   6.650 -0.7330 -0.6486 -0.1164
  173MOL    C8531389   5.203   5.891   6.700  0.4611  0.1071  0.4491
  173MOL    H8631390   5.282   5.821   6.482  1.4907 -1.4957 -5.0190
  173MOL    H8731391   5.124   5.746   6.441  1.1287  1.3003 -0.9298
  173MOL    H8831392   5.265   5.693   6.710 -2.0258 -0.9524  1.2092
  173MOL    H8931393   5.117   5.947   6.664 -2.3526 -3.9321  0.5624
  173MOL    H9031394   5.198   5.906   6.808 -3.8852  1.7243  0.1408
  173MOL    H9131395   5.302   5.934   6.684  0.1954 -0.1088 -1.9764
  173MOL    C9231396   5.057   5.683   6.692 -0.9283 -0.7175 -0.0941
  173MOL    C9331397   5.041   5.531   6.713  0.7147 -0.8444  0.2082
  173MOL    C9431398   5.129   5.484   6.823 -0.4356  0.0384  0.2802
  173MOL    H9531399   5.029   5.728   6.787 -0.0608  1.0413 -0.6616
  173MOL    H9631400   4.988   5.728   6.621  0.1344  1.5832  0.3033
  173MOL    H9731401   5.055   5.475   6.620 -0.7043  0.8400 -1.0590
  173MOL    H9831402   5.117   5.548   6.910 -0.3589 -2.1174  1.9315
  173MOL    H9931403   5.107   5.380   6.846  0.4996 -0.4824 -1.0746
  173MOL   H10031404   5.236   5.479   6.799 -0.7885 -1.1843 -1.1137
  173MOL   C10131405   4.889   5.493   6.751  0.5195  0.8477  0.3511
  173MOL   C10231406   4.789   5.485   6.631  0.4155  0.0027 -0.0252
  173MOL   C10331407   4.815   5.389   6.518 -0.3988  0.0349 -0.3877
  173MOL   H10431408   4.888   5.408   6.819 -1.8822  1.7809  1.5198
  173MOL   H10531409   4.858   5.568   6.823  2.0406  0.8611  1.0081
  173MOL   H10631410   4.792   5.581   6.580  0.6437 -0.7632 -1.4616
  173MOL   H10731411   4.907   5.410   6.464  0.2569 -1.8063 -0.0382
  173MOL   H10831412   4.828   5.291   6.564  1.7350 -0.0899 -1.1916
  173MOL   H10931413   4.738   5.384   6.441 -1.9769  0.8401  1.1038
  173MOL   C11031414   4.648   5.446   6.694  0.7193  0.3370 -0.3934
  173MOL   C11131415   4.538   5.541   6.658 -0.3705  0.2445 -0.6971
  173MOL   C11231416   4.498   5.531   6.512  0.3821 -0.6140  0.1568
  173MOL   H11331417   4.631   5.342   6.667  0.1740  0.3265 -0.0274
  173MOL   H11431418   4.646   5.454   6.803 -1.6029  1.8195 -0.5101
  173MOL   H11531419   4.580   5.640   6.671 -0.3840 -0.0500  1.9570
  173MOL   H11631420   4.585   5.529   6.447  1.6664  2.3102  1.6585
  173MOL   H11731421   4.439   5.446   6.477  0.2004  0.4461 -2.1817
  173MOL   H11831422   4.450   5.625   6.484 -2.3582 -0.9040  3.5361
  173MOL   C11931423   4.403   5.528   6.751 -0.1582  0.3497 -0.9279
  173MOL   C12031424   4.390   5.643   6.853  0.3458  0.0238 -0.2506
  173MOL   C12131425   4.353   5.791   6.784 -0.1551 -0.0286 -0.1977
  173MOL   H12231426   4.312   5.529   6.691 -0.8512  0.1702  0.0935
  173MOL   H12331427   4.397   5.433   6.804  1.5231 -0.0823 -1.4891
  173MOL   H12431428   4.484   5.645   6.909 -0.5523 -0.8106  1.3352
  173MOL   H12531429   4.416   5.816   6.699  2.1164 -0.7758  1.2000
  173MOL   H12631430   4.254   5.799   6.740 -0.1342  1.6699  0.0379
  173MOL   H12731431   4.361   5.880   6.846  1.4310  0.9851 -1.8014
  173MOL   C12831432   4.289   5.602   6.965  0.2389 -0.0504  0.8019
  173MOL   C12931433   4.305   5.696   7.079 -0.3278  0.5316 -0.8032
  173MOL   C13031434   4.164   5.739   7.125  0.4445 -0.5946 -0.5642
  173MOL   H13131435   4.192   5.618   6.917  1.0327 -0.5694 -1.0144
  173MOL   H13231436   4.290   5.498   6.997  1.1595 -0.3758 -0.2647
  173MOL   H13331437   4.356   5.789   7.055  0.3579  1.2403  3.0895
  173MOL   H13431438   4.118   5.647   7.162  1.5809 -0.6035  0.8872
  173MOL   H13531439   4.161   5.817   7.201  1.6492 -0.7873 -0.3065
  173MOL   H13631440   4.106   5.781   7.043 -0.1207 -0.4120 -0.0642
  173MOL   C13731441   4.400   5.638   7.189 -0.3160 -0.1285 -0.0380
  173MOL   C13831442   4.483   5.745   7.254  0.0646  0.0435  0.2142
  173MOL   C13931443   4.401   5.822   7.360  0.3570 -0.1758 -0.1014
  173MOL   H14031444   4.344   5.573   7.257 -0.6657 -0.7546 -0.9172
  173MOL   H14131445   4.474   5.572   7.144  1.7679  0.7904  1.8891
  173MOL   H14231446   4.527   5.819   7.186  0.7832  2.2901  3.0067
  173MOL   H14331447   4.332   5.899   7.325  0.0713 -0.8272 -0.9785
  173MOL   H14431448   4.334   5.755   7.413  1.8236 -1.3518  0.2793
  173MOL   H14531449   4.467   5.870   7.433  3.6404 -1.9848 -1.7722
  173MOL   C14631450   4.606   5.671   7.314  0.1952  0.1008  0.5220
  173MOL   C14731451   4.715   5.613   7.219  0.2739 -0.1799  0.1727
  173MOL   C14831452   4.797   5.724   7.147 -0.0408 -0.5829  0.2409
  173MOL   H14931453   4.661   5.743   7.376 -2.4174  1.0776  1.7739
  173MOL   H15031454   4.573   5.604   7.394  0.0207 -2.4637 -1.6330
  173MOL   H15131455   4.680   5.555   7.134  0.0271  0.3242 -0.0736
  173MOL   H15231456   4.721   5.786   7.099 -0.1610 -0.4936  0.5527
  173MOL   H15331457   4.866   5.780   7.211 -1.0826  1.4974 -0.4132
  173MOL   H15431458   4.849   5.672   7.066  1.4735 -0.0986  0.8926
  173MOL   C15531459   4.814   5.528   7.308  0.5920  0.1479 -0.2581
  173MOL   C15631460   4.911   5.429   7.236  0.2082 -0.0337 -0.4358
  173MOL   C15731461   5.032   5.420   7.326 -0.2478  0.3188  0.0459
  173MOL   H15831462   4.866   5.600   7.372  2.0452 -0.4416 -0.7522
  173MOL   H15931463   4.743   5.477   7.373 -1.3936  1.2841 -1.4698
  173MOL   H16031464   4.933   5.470   7.137  2.4680 -2.6785 -1.1016
  173MOL   H16131465   5.117   5.367   7.283 -0.8194 -0.3254 -0.2960
  173MOL   H16231466   5.066   5.515   7.368  0.3936  0.1446 -0.0786
  173MOL   H16331467   5.009   5.357   7.412  1.2013 -2.4186 -1.4995
  173MOL   C16431468   4.852   5.286   7.232  0.6750 -0.0628 -0.0185
  173MOL   C16531469   4.716   5.270   7.163 -0.2380  0.4357  0.6831
  173MOL   C16631470   4.724   5.307   7.012  0.1150 -0.5263  0.4797
  173MOL   H16731471   4.918   5.218   7.179  0.9312 -0.1520  0.4193
  173MOL   H16831472   4.851   5.250   7.334 -1.4983 -1.6419 -0.5403
  173MOL   H16931473   4.650   5.339   7.216 -0.4822  0.1563  0.7407
  173MOL   H17031474   4.789   5.234   6.963 -0.4133 -0.5400 -0.2231
  173MOL   H17131475   4.624   5.304   6.968 -0.5483  3.8709  1.4787
  173MOL   H17231476   4.746   5.413   6.996 -0.0772 -0.5551  0.0232
  173MOL   C17331477   4.663   5.128   7.180  0.3636  0.4162 -0.0409
  173MOL   C17431478   4.519   5.113   7.136 -0.2383  0.1722 -0.0794
  173MOL   C17531479   4.416   5.158   7.240  0.8123  0.2520 -0.4842
  173MOL   H17631480   4.731   5.053   7.141  1.2002  0.6545  0.9275
  173MOL   H17731481   4.653   5.109   7.287  0.9191  0.5335  0.0318
  173MOL   H17831482   4.495   5.009   7.110 -0.8841  0.2144  0.3314
  173MOL   H17931483   4.441   5.126   7.342 -0.0562  0.3182 -0.2430
  173MOL   H18031484   4.396   5.263   7.261 -3.8991 -0.3583 -1.3626
  173MOL   H18131485   4.323   5.104   7.225  0.0018  1.4780  0.0312
  173MOL   H18231486   4.490   5.155   7.039  0.0668  0.5604 -0.0019
  174MOL     C131487   2.429   4.810   1.924 -0.3355  0.0891 -0.5506
  174MOL     C231488   2.432   4.933   2.013 -0.1915  0.4375  0.8256
  174MOL     C331489   2.566   4.928   2.077  0.4935  0.3870 -0.1705
  174MOL     H431490   2.344   4.817   1.856  1.2598  0.1211 -2.5644
  174MOL     H531491   2.435   4.709   1.965  2.1899  0.0310 -1.0002
  174MOL     H631492   2.366   4.925   2.100 -3.3090 -0.6027 -1.5828
  174MOL     H731493   2.633   4.931   1.992  1.0790  0.1220  0.2756
  174MOL     H831494   2.581   5.017   2.140  1.2258 -0.2682  0.6036
  174MOL     H931495   2.588   4.837   2.133  0.2948  0.6368  0.3236
  174MOL    H1031496   2.514   4.818   1.857  0.3987 -0.3341  0.3237
  174MOL    C1131497   2.402   5.068   1.952  0.1778  0.3081  0.1989
  174MOL    C1231498   2.267   5.077   1.880  1.4024  0.0262 -0.0606
  174MOL    C1331499   2.147   5.015   1.954 -0.0297 -0.3592 -0.1429
  174MOL    H1431500   2.405   5.146   2.028 -0.2339 -0.3043  0.8572
  174MOL    H1531501   2.482   5.088   1.881 -1.1342  1.3008 -1.0508
  174MOL    H1631502   2.285   5.018   1.789 -1.1998 -0.6072 -0.1891
  174MOL    H1731503   2.167   4.918   1.999 -1.2199 -0.1821  0.7989
  174MOL    H1831504   2.127   5.086   2.034  0.1580  0.6163 -0.9505
  174MOL    H1931505   2.061   5.003   1.888  0.2720  0.8188 -0.7704
  174MOL    C2031506   2.238   5.224   1.832  0.4639  0.1603  0.8028
  174MOL    C2131507   2.351   5.294   1.747 -0.2417  0.1641  0.6426
  174MOL    C2231508   2.374   5.223   1.617 -0.1408  0.3219 -0.1847
  174MOL    H2331509   2.144   5.221   1.777 -0.3537 -2.8758  2.2209
  174MOL    H2431510   2.222   5.279   1.924  1.3777  0.5563  0.7321
  174MOL    H2531511   2.445   5.298   1.802  0.6742  1.0301 -0.9739
  174MOL    H2631512   2.398   5.283   1.529  0.8546 -0.2197 -0.2911
  174MOL    H2731513   2.443   5.140   1.633 -1.5008 -0.5334  1.3814
  174MOL    H2831514   2.281   5.175   1.586  0.3298  0.5072 -1.9802
  174MOL    C2931515   2.308   5.441   1.722  0.2429 -0.3455  0.3273
  174MOL    C3031516   2.416   5.538   1.668  0.0649  0.6023 -0.8114
  174MOL    C3131517   2.354   5.620   1.552 -0.3528  0.1561 -0.0831
  174MOL    H3231518   2.225   5.451   1.653 -0.5846  0.2361  1.3952
  174MOL    H3331519   2.251   5.490   1.801 -0.4194 -3.7179  2.0492
  174MOL    H3431520   2.497   5.483   1.620  0.7006  1.8664 -1.2393
  174MOL    H3531521   2.260   5.652   1.597  0.1834  1.3519  0.2011
  174MOL    H3631522   2.404   5.709   1.514 -1.0511  0.1597 -0.9985
  174MOL    H3731523   2.334   5.559   1.464 -1.4973 -0.8434  0.8481
  174MOL    C3831524   2.486   5.636   1.763  0.5737 -0.4734 -0.1563
  174MOL    C3931525   2.591   5.592   1.870 -0.1636 -0.1872 -0.0878
  174MOL    C4031526   2.732   5.563   1.822 -0.0957  0.7032 -0.0060
  174MOL    H4131527   2.542   5.707   1.702  1.0018  0.6025  1.4460
  174MOL    H4231528   2.408   5.694   1.812 -1.1130 -3.4396  0.7709
  174MOL    H4331529   2.547   5.498   1.905  1.4249 -1.1137 -0.5256
  174MOL    H4431530   2.717   5.489   1.744 -2.3004 -0.0562  1.0993
  174MOL    H4531531   2.776   5.648   1.769  1.6631 -0.8703 -1.0876
  174MOL    H4631532   2.790   5.536   1.910 -0.2206  0.7423  0.0881
  174MOL    C4731533   2.594   5.681   1.998 -0.0740 -0.2293  0.6863
  174MOL    C4831534   2.458   5.697   2.080 -0.0607  0.1719 -0.1884
  174MOL    C4931535   2.409   5.569   2.139  0.0970  0.1357  0.0657
  174MOL    H5031536   2.661   5.637   2.071 -0.4966 -1.5101  0.3203
  174MOL    H5131537   2.631   5.779   1.968  0.5697 -0.7544 -0.2740
  174MOL    H5231538   2.376   5.723   2.013 -1.5763 -4.1523 -0.1937
  174MOL    H5331539   2.395   5.499   2.057 -3.5645 -1.1358  1.7071
  174MOL    H5431540   2.460   5.523   2.224  1.3841 -0.4310 -0.9852
  174MOL    H5531541   2.303   5.570   2.162  0.0953 -3.0915  0.4495
  174MOL    C5631542   2.467   5.794   2.204  0.1292  0.3693 -0.3503
  174MOL    C5731543   2.512   5.939   2.174  0.6220 -0.9196 -0.3986
  174MOL    C5831544   2.419   6.005   2.075  0.1650 -0.8631  0.5137
  174MOL    H5931545   2.363   5.795   2.237 -0.4807  0.6420 -2.2100
  174MOL    H6031546   2.525   5.746   2.283  0.8736 -0.6269 -1.4894
  174MOL    H6131547   2.612   5.930   2.133  0.8056  1.9362 -0.7083
  174MOL    H6231548   2.464   6.094   2.029  0.3493 -0.9530  0.5177
  174MOL    H6331549   2.393   5.949   1.986 -1.4280  1.7358 -0.7262
  174MOL    H6431550   2.321   6.024   2.116  0.6902  4.0401 -0.1413
  174MOL    C6531551   2.515   6.025   2.304  0.5355 -0.6141 -0.6432
  174MOL    C6631552   2.609   6.151   2.312 -0.1565  0.0437  0.1286
  174MOL    C6731553   2.572   6.240   2.435  0.2638  0.0636 -0.5478
  174MOL    H6831554   2.415   6.062   2.326  0.7010 -1.2310  1.1918
  174MOL    H6931555   2.545   5.963   2.388  1.1358  1.5256  0.7600
  174MOL    H7031556   2.585   6.214   2.227  1.6512  0.6488  0.0417
  174MOL    H7131557   2.621   6.338   2.434  0.6637 -0.1362 -0.7516
  174MOL    H7231558   2.467   6.267   2.430  0.1766 -0.0337  0.6349
  174MOL    H7331559   2.584   6.186   2.529 -0.8616  0.6262 -0.0724
  174MOL    C7431560   2.764   6.123   2.301  0.3498 -0.8204 -0.1650
  174MOL    C7531561   2.862   6.241   2.275 -0.3812  0.7831 -0.3422
  174MOL    C7631562   2.995   6.208   2.340 -0.1177 -0.6119  0.3438
  174MOL    H7731563   2.790   6.071   2.393 -0.8868 -0.4549  0.4037
  174MOL    H7831564   2.770   6.054   2.216  0.0309 -0.6523 -0.3286
  174MOL    H7931565   2.821   6.329   2.325 -1.6194  1.6640 -2.8172
  174MOL    H8031566   2.995   6.175   2.444  1.5164 -0.1330  0.5152
  174MOL    H8131567   3.018   6.119   2.282 -0.5711 -1.2137  1.0856
  174MOL    H8231568   3.075   6.281   2.329 -0.2668 -0.2271  1.7397
  174MOL    C8331569   2.872   6.260   2.117  0.1557 -0.0298 -0.5573
  174MOL    C8431570   2.905   6.404   2.060 -0.0227  0.2567 -0.2389
  174MOL    C8531571   2.792   6.507   2.092  0.3622  0.3082  0.2644
  174MOL    H8631572   2.950   6.194   2.079  0.8728  0.5563 -0.1392
  174MOL    H8731573   2.781   6.232   2.064  0.2188  0.9409 -1.2094
  174MOL    H8831574   2.905   6.388   1.952  5.0050  3.2240 -0.8161
  174MOL    H8931575   2.704   6.482   2.033 -1.1084 -0.3975  2.7028
  174MOL    H9031576   2.780   6.521   2.199 -2.4197  1.8370 -0.2017
  174MOL    H9131577   2.827   6.604   2.054 -0.2727  0.7878  0.8910
  174MOL    C9231578   3.040   6.462   2.113 -0.0086 -0.4732 -0.3613
  174MOL    C9331579   3.172   6.390   2.070  0.1707  0.3839 -0.9972
  174MOL    C9431580   3.173   6.380   1.917 -0.6671 -0.0754 -0.9821
  174MOL    H9531581   3.041   6.556   2.057 -1.8827 -0.8892 -1.1266
  174MOL    H9631582   3.041   6.489   2.219  1.5522 -0.3027 -0.4017
  174MOL    H9731583   3.180   6.293   2.119  0.3158  1.9811  2.3653
  174MOL    H9831584   3.166   6.480   1.876 -1.4588  0.0218 -0.6101
  174MOL    H9931585   3.270   6.336   1.893 -0.5391 -0.2953 -0.0878
  174MOL   H10031586   3.108   6.314   1.860  0.4307 -1.1656 -1.0009
  174MOL   C10131587   3.299   6.471   2.115  0.2210 -0.1896  0.0310
  174MOL   C10231588   3.343   6.461   2.264  0.4460 -0.1549 -0.1208
  174MOL   C10331589   3.408   6.324   2.300  0.3588 -0.5376  0.6048
  174MOL   H10431590   3.382   6.445   2.049 -0.2334 -1.0960 -0.1926
  174MOL   H10531591   3.275   6.572   2.082  1.0160 -0.0755 -0.2139
  174MOL   H10631592   3.250   6.461   2.320  0.6522 -1.4985  0.2482
  174MOL   H10731593   3.478   6.306   2.218 -0.2262 -0.0644 -0.0012
  174MOL   H10831594   3.453   6.328   2.399  0.2070  5.0594  0.6118
  174MOL   H10931595   3.342   6.238   2.295 -0.5188  0.2432 -2.6742
  174MOL   C11031596   3.431   6.583   2.303  0.3811  0.2722  0.6548
  174MOL   C11131597   3.492   6.588   2.447  0.2185  0.3686 -0.3960
  174MOL   C11231598   3.596   6.706   2.437 -0.1412  0.5533 -0.3347
  174MOL   H11331599   3.510   6.589   2.228 -0.3695  0.6506 -0.1149
  174MOL   H11431600   3.385   6.679   2.280 -1.0920 -0.0772  2.0849
  174MOL   H11531601   3.559   6.503   2.460  1.7848  1.7178  0.5834
  174MOL   H11631602   3.670   6.685   2.359 -0.3605  1.0188 -0.6705
  174MOL   H11731603   3.551   6.801   2.410 -1.7242  1.1457  4.0338
  174MOL   H11831604   3.647   6.721   2.532  1.4483 -1.6854 -0.7773
  174MOL   C11931605   3.387   6.591   2.553 -0.0821 -0.4415 -0.1038
  174MOL   C12031606   3.426   6.651   2.689  0.0022  1.0317  0.0469
  174MOL   C12131607   3.305   6.662   2.777 -0.4459  0.0388 -0.3378
  174MOL   H12231608   3.296   6.642   2.521  1.0016  1.3653 -0.3595
  174MOL   H12331609   3.350   6.489   2.568 -1.7088  0.0594 -0.5838
  174MOL   H12431610   3.461   6.751   2.667 -0.2328  1.3101  0.9251
  174MOL   H12531611   3.322   6.700   2.878  0.2068 -0.5770 -0.2101
  174MOL   H12631612   3.231   6.728   2.732 -0.9381 -0.9496 -0.9956
  174MOL   H12731613   3.263   6.562   2.791  1.5336 -0.7017  0.5723
  174MOL   C12831614   3.544   6.581   2.763  0.5800  0.6729 -0.2916
  174MOL   C12931615   3.647   6.684   2.822 -0.2814  0.3783  0.0927
  174MOL   C13031616   3.594   6.780   2.925 -0.0048 -0.1982 -0.3299
  174MOL   H13131617   3.503   6.529   2.849 -2.3270  3.5847  0.1628
  174MOL   H13231618   3.601   6.505   2.709 -0.3861 -0.0485 -0.3034
  174MOL   H13331619   3.684   6.741   2.737  0.5201 -0.4852 -0.1415
  174MOL   H13431620   3.555   6.721   3.008  1.8655  0.3216  0.9667
  174MOL   H13531621   3.664   6.852   2.969 -1.4355  1.3036 -0.4716
  174MOL   H13631622   3.515   6.839   2.879  0.2226 -0.2475 -0.7822
  174MOL   C13731623   3.772   6.617   2.879 -0.1628  0.1221  0.1035
  174MOL   C13831624   3.868   6.549   2.784 -0.3124 -0.5793  0.7009
  174MOL   C13931625   3.958   6.661   2.714  0.1734  0.0442 -0.3641
  174MOL   H14031626   3.837   6.694   2.920  0.6985 -0.0169 -0.9861
  174MOL   H14131627   3.734   6.551   2.958 -0.2557 -0.2574 -0.2510
  174MOL   H14231628   3.812   6.490   2.711  0.4294 -0.4070 -0.0245
  174MOL   H14331629   3.900   6.727   2.649  0.1839  1.0074  0.5905
  174MOL   H14431630   4.009   6.719   2.791  2.2851 -0.5419 -1.2796
  174MOL   H14531631   4.036   6.617   2.651  1.8912 -1.1319  2.4953
  174MOL   C14631632   3.962   6.453   2.860 -0.4814  0.3724 -0.6461
  174MOL   C14731633   4.063   6.367   2.783 -0.3288 -0.5918 -0.0924
  174MOL   C14831634   4.145   6.286   2.874  0.2949 -0.1462  0.8392
  174MOL   H14931635   4.033   6.502   2.926 -1.3448 -0.1772  0.7237
  174MOL   H15031636   3.906   6.390   2.930 -1.9179 -0.3639 -2.3954
  174MOL   H15131637   4.136   6.426   2.728  1.4679 -0.8412  1.9747
  174MOL   H15231638   4.185   6.344   2.958 -1.8182 -1.7142  2.9595
  174MOL   H15331639   4.085   6.202   2.908 -1.8219  1.1096  0.3201
  174MOL   H15431640   4.227   6.225   2.836 -2.4308 -2.1323 -2.1328
  174MOL   C15531641   3.982   6.281   2.690  0.1689 -0.7798 -0.0270
  174MOL   C15631642   4.065   6.177   2.604  0.1407  0.0914  0.1291
  174MOL   C15731643   3.979   6.064   2.548 -0.7323  0.2052  0.5477
  174MOL   H15831644   3.910   6.219   2.745 -0.7115 -0.6562 -1.0291
  174MOL   H15931645   3.925   6.343   2.620 -0.7295 -1.8975 -0.3035
  174MOL   H16031646   4.125   6.120   2.675 -1.3436 -1.9297 -0.2087
  174MOL   H16131647   3.893   6.090   2.487 -0.1984  2.8544  0.8693
  174MOL   H16231648   4.044   5.998   2.491 -2.6827 -0.7354 -0.6040
  174MOL   H16331649   3.945   5.999   2.629  2.1185 -1.7393  0.2784
  174MOL   C16431650   4.149   6.252   2.505 -0.3611 -0.0356 -0.1965
  174MOL   C16531651   4.249   6.160   2.432  0.2933 -0.3641  0.0868
  174MOL   C16631652   4.340   6.232   2.334 -0.7627  0.7371 -0.0974
  174MOL   H16731653   4.099   6.317   2.433  2.0150  2.9433  0.7456
  174MOL   H16831654   4.208   6.325   2.561 -1.1318  0.8643 -0.5534
  174MOL   H16931655   4.184   6.099   2.369 -0.1383 -2.9748  2.9433
  174MOL   H17031656   4.404   6.165   2.276 -0.1478  0.7314  0.5759
  174MOL   H17131657   4.288   6.304   2.271 -2.2736 -0.0771  0.1899
  174MOL   H17231658   4.412   6.294   2.387  1.4909 -0.3015 -1.8496
  174MOL   C17331659   4.332   6.062   2.522 -0.6695 -0.5251  0.0341
  174MOL   C17431660   4.449   6.129   2.600  0.0282 -0.1441 -0.0197
  174MOL   C17531661   4.528   6.050   2.700 -0.5072 -0.3846  0.4003
  174MOL   H17631662   4.277   6.000   2.592  1.5287 -2.4123  0.1370
  174MOL   H17731663   4.384   5.991   2.457  1.1436  0.7795  0.0179
  174MOL   H17831664   4.417   6.213   2.662 -0.2073 -1.1151  1.1969
  174MOL   H17931665   4.569   5.957   2.658 -0.4260 -0.3660  0.4390
  174MOL   H18031666   4.606   6.120   2.731 -1.6350  0.7132  0.7876
  174MOL   H18131667   4.463   6.023   2.783 -0.1083 -1.8706  0.2502
  174MOL   H18231668   4.524   6.160   2.527  0.3931  0.2329  0.5170
  175MOL     C131669   2.051   3.838   0.547  0.0399 -0.5132 -0.7881
  175MOL     C231670   2.022   3.757   0.422  0.3860  0.1308  0.5068
  175MOL     C331671   2.036   3.607   0.451 -0.3222 -0.2695  0.3046
  175MOL     H431672   2.142   3.819   0.604 -0.4513 -0.4806  0.0192
  175MOL     H531673   1.964   3.831   0.612  1.0360 -2.3041  0.3830
  175MOL     H631674   2.102   3.786   0.355  1.4311  2.4765  2.6739
  175MOL     H731675   2.021   3.545   0.362  1.2525 -3.2588  2.0407
  175MOL     H831676   2.136   3.587   0.490  0.9432  1.1981 -2.0386
  175MOL     H931677   1.963   3.570   0.522 -1.8605 -1.0287 -1.6293
  175MOL    H1031678   2.049   3.944   0.520  0.4941  0.0575  1.2958
  175MOL    C1131679   1.879   3.796   0.361 -0.4500  0.5168 -0.3651
  175MOL    C1231680   1.831   3.724   0.231 -0.1514 -0.0815  0.1052
  175MOL    C1331681   1.684   3.775   0.195  0.1365 -0.2208  0.2092
  175MOL    H1431682   1.812   3.780   0.445  0.3156  2.4517  0.6368
  175MOL    H1531683   1.882   3.903   0.340 -0.5958  0.7393  0.7209
  175MOL    H1631684   1.818   3.616   0.241 -0.8975 -0.1480 -1.5304
  175MOL    H1731685   1.649   3.723   0.105 -0.5621 -1.3199  1.1013
  175MOL    H1831686   1.613   3.745   0.272 -0.4631 -0.1267 -0.2930
  175MOL    H1931687   1.669   3.883   0.195  0.8331 -0.1263  1.5115
  175MOL    C2031688   1.923   3.763   0.112 -0.1440 -0.3614  0.9624
  175MOL    C2131689   1.901   3.696   7.668  0.5235 -0.1325 -0.0688
  175MOL    C2231690   1.968   3.774   7.559  0.4821  0.3596  0.7364
  175MOL    H2331691   1.916   3.872   0.106  0.4621 -0.2686  1.7639
  175MOL    H2431692   2.025   3.748   0.147  0.1930 -0.4384 -0.0203
  175MOL    H2531693   1.794   3.710   7.657  0.7183  0.3962 -1.3899
  175MOL    H2631694   1.969   3.881   7.582  0.1812  0.8650 -1.4579
  175MOL    H2731695   2.062   3.732   7.524  0.1242  1.6669 -1.9182
  175MOL    H2831696   1.903   3.763   7.472  0.5239  1.5926  0.5352
  175MOL    C2931697   1.938   3.545   7.661 -0.2710  1.0490  0.0069
  175MOL    C3031698   1.820   3.457   7.632 -0.6912  0.5630  0.1761
  175MOL    C3131699   1.762   3.467   7.488  0.0296 -0.2546  0.7396
  175MOL    H3231700   2.018   3.527   7.589  0.1366  0.4102  0.6071
  175MOL    H3331701   1.977   3.519   0.063  2.3806  0.6493 -1.0916
  175MOL    H3431702   1.739   3.496   7.693 -0.6847  1.0993 -0.1459
  175MOL    H3531703   1.680   3.396   7.478  0.2027 -0.3820  0.2026
  175MOL    H3631704   1.714   3.563   7.472 -0.2964 -0.0816  2.5963
  175MOL    H3731705   1.833   3.443   7.409 -0.0205  1.3896  0.1811
  175MOL    C3831706   1.857   3.311   7.664 -0.6053  0.4220  0.2008
  175MOL    C3931707   1.866   3.274   0.122  0.3954 -0.7567  0.0319
  175MOL    C4031708   1.738   3.304   0.212 -0.3125  0.5361  0.4262
  175MOL    H4131709   1.783   3.246   7.618  1.6034 -3.6231  2.0495
  175MOL    H4231710   1.953   3.290   7.618 -0.2197 -2.0953  2.0709
  175MOL    H4331711   1.948   3.333   0.165  0.6346  0.1898 -1.6724
  175MOL    H4431712   1.762   3.263   0.310 -0.3509 -0.6748 -0.0620
  175MOL    H4531713   1.715   3.411   0.220 -1.0194  0.5492 -1.4585
  175MOL    H4631714   1.656   3.258   0.157  0.9826  0.3342 -1.3955
  175MOL    C4731715   1.923   3.139   0.156 -0.3628 -0.1752 -0.1914
  175MOL    C4831716   2.059   3.098   0.113  0.0021  0.0347 -0.0169
  175MOL    C4931717   2.153   3.090   0.235 -0.0100  0.4567 -0.1077
  175MOL    H5031718   1.919   3.121   0.263  1.7271 -1.7009 -0.3489
  175MOL    H5131719   1.855   3.062   0.120  0.2869 -0.8194 -0.0445
  175MOL    H5231720   2.091   3.177   0.044 -1.3325  0.0349 -0.6423
  175MOL    H5331721   2.131   3.006   0.301  1.6078  0.6014  0.6344
  175MOL    H5431722   2.256   3.089   0.200 -0.1652  1.3088 -0.5997
  175MOL    H5531723   2.153   3.183   0.292  2.0492 -0.0807  0.8051
  175MOL    C5631724   2.065   2.972   0.030  0.3273  0.0104 -0.0147
  175MOL    C5731725   1.996   2.993   7.588  0.2472 -0.0261  0.1905
  175MOL    C5831726   2.088   3.055   7.483  0.6601 -0.2634  0.4849
  175MOL    H5931727   2.169   2.944   0.009  1.1038  2.7874 -0.0930
  175MOL    H6031728   2.020   2.888   0.083 -0.2005 -0.1901 -0.7779
  175MOL    H6131729   1.900   3.044   7.590  0.6124  0.7868 -1.5328
  175MOL    H6231730   2.045   3.077   7.385 -0.4365  1.4916  1.3440
  175MOL    H6331731   2.120   3.156   7.506  0.1157 -0.0763  0.4122
  175MOL    H6431732   2.171   2.992   7.451 -0.8852 -1.6477 -0.8828
  175MOL    C6531733   1.936   2.861   7.531 -0.1100  0.4965 -0.4790
  175MOL    C6631734   1.843   2.864   7.405  0.3714 -0.1419  0.0416
  175MOL    C6731735   1.882   2.762   7.302  0.0068  0.4780 -0.1624
  175MOL    H6831736   2.030   2.808   7.515  0.2209 -0.4917  3.9360
  175MOL    H6931737   1.877   2.816   7.611  0.5272  0.7009  0.1069
  175MOL    H7031738   1.844   2.961   7.355  0.4904  0.1290  0.5650
  175MOL    H7131739   1.988   2.754   7.278 -0.5340 -5.1986 -1.4019
  175MOL    H7231740   1.859   2.656   7.317 -0.7666  0.4828 -1.2090
  175MOL    H7331741   1.824   2.784   7.212 -0.4963 -0.6318 -0.1227
  175MOL    C7431742   1.698   2.838   7.449  0.2791 -0.3542 -0.1744
  175MOL    C7531743   1.640   2.948   7.541 -0.7800 -0.0688  0.6215
  175MOL    C7631744   1.632   3.089   7.469  0.1204  0.2748  0.4865
  175MOL    H7731745   1.635   2.823   7.362  0.3599 -0.3895 -0.2270
  175MOL    H7831746   1.699   2.742   7.501 -1.1361 -0.2685  0.0385
  175MOL    H7931747   1.693   2.959   7.636  1.3646  0.9195 -0.6478
  175MOL    H8031748   1.583   3.071   7.374 -1.2962  0.3877  1.1795
  175MOL    H8131749   1.584   3.170   7.524  2.6262  1.7872  0.5301
  175MOL    H8231750   1.732   3.114   7.434 -0.4310  1.1961 -0.4310
  175MOL    C8331751   1.499   2.910   7.575  0.1088 -0.6649  0.5209
  175MOL    C8431752   1.425   2.972   7.695  0.4719  0.3206 -0.0649
  175MOL    C8531753   1.486   2.917   0.133  0.2435 -0.4084  0.1477
  175MOL    H8631754   1.438   2.928   7.487  0.3109  0.6488  0.6338
  175MOL    H8731755   1.503   2.806   7.607  0.3881 -0.6511  0.5330
  175MOL    H8831756   1.331   2.917   7.688 -0.4257  2.0662 -2.3588
  175MOL    H8931757   1.482   2.809   0.137 -1.4101 -0.2881  3.7774
  175MOL    H9031758   1.591   2.942   0.150 -0.1657  1.0586  0.6111
  175MOL    H9131759   1.434   2.954   0.221  2.0723 -0.9877  1.5100
  175MOL    C9231760   1.394   3.130   0.002  0.2115  0.7725 -0.3433
  175MOL    C9331761   1.295   3.182   7.593  0.4397 -0.2538 -0.6280
  175MOL    C9431762   1.152   3.126   7.612 -0.0154 -0.5288  0.0046
  175MOL    H9531763   1.337   3.142   0.095 -1.2080 -0.0679 -1.0824
  175MOL    H9631764   1.487   3.186   0.007 -0.1002  1.4769 -2.0863
  175MOL    H9731765   1.334   3.165   7.493 -0.8786 -1.3491 -0.9696
  175MOL    H9831766   1.080   3.163   7.539 -1.3380 -0.6484  1.2171
  175MOL    H9931767   1.144   3.018   7.608  0.8740 -0.6257  0.6384
  175MOL   H10031768   1.105   3.159   0.008  2.0942  0.6993  0.6549
  175MOL   C10131769   1.287   3.338   7.616  0.3864 -0.5301  0.6641
  175MOL   C10231770   1.404   3.425   7.568  0.2096 -0.0917 -0.2548
  175MOL   C10331771   1.406   3.437   7.416  0.3201  0.3183  0.0665
  175MOL   H10431772   1.199   3.372   7.561  0.1401 -0.9050  0.8273
  175MOL   H10531773   1.265   3.357   0.023 -2.1041  0.9880 -0.0908
  175MOL   H10631774   1.498   3.376   7.593 -1.2074 -1.5133  2.4003
  175MOL   H10731775   1.327   3.497   7.372  0.3966 -0.2946 -0.9211
  175MOL   H10831776   1.495   3.495   7.392 -0.2522  1.2410  0.1629
  175MOL   H10931777   1.418   3.339   7.368 -0.8863 -0.2163  0.8260
  175MOL   C11031778   1.415   3.572   7.639  0.9780 -0.0801 -0.3039
  175MOL   C11131779   1.284   3.658   7.636  0.2935  0.1913 -0.0387
  175MOL   C11231780   1.177   3.623   0.044 -0.3007 -0.5050 -0.0035
  175MOL   H11331781   1.447   3.551   0.044 -0.5535  0.0550  0.2008
  175MOL   H11431782   1.502   3.627   7.602  0.1018 -0.5163 -3.0677
  175MOL   H11531783   1.238   3.631   7.541 -0.9647  2.0162  0.0229
  175MOL   H11631784   1.219   3.617   0.145  0.3931 -1.0384 -0.3192
  175MOL   H11731785   1.093   3.693   0.042 -1.4346 -1.8434 -0.1317
  175MOL   H11831786   1.132   3.526   0.023  0.6360 -1.4405  2.1092
  175MOL   C11931787   1.321   3.806   7.646  0.2007 -0.5888 -0.1197
  175MOL   C12031788   1.408   3.869   7.534  0.5047  0.1486 -0.2044
  175MOL   C12131789   1.343   3.841   7.391 -0.0183  0.5415  0.4829
  175MOL   H12231790   1.227   3.862   7.640  1.4963  1.6534 -0.1522
  175MOL   H12331791   1.370   3.833   0.042 -0.6774  0.4291  0.0609
  175MOL   H12431792   1.509   3.828   7.528  0.0532 -1.2187  1.1015
  175MOL   H12531793   1.403   3.897   7.320 -0.3716  2.0337  1.3381
  175MOL   H12631794   1.360   3.736   7.367  2.5953  1.1024 -0.2578
  175MOL   H12731795   1.236   3.864   7.386 -0.6822 -2.2658  0.9994
  175MOL   C12831796   1.408   4.026   7.544 -1.0624 -0.1318 -0.5559
  175MOL   C12931797   1.492   4.084   7.658 -0.2645  0.0046  0.2868
  175MOL   C13031798   1.643   4.059   7.636  0.7187  0.2028 -0.3464
  175MOL   H13131799   1.451   4.064   7.451 -2.2693 -0.0519 -1.0973
  175MOL   H13231800   1.302   4.052   7.537 -0.8348  0.9566  0.0027
  175MOL   H13331801   1.464   4.031   0.052 -1.4052  0.7651  0.3952
  175MOL   H13431802   1.676   3.961   7.669  4.2356  1.3884 -0.2036
  175MOL   H13531803   1.673   4.071   7.531 -0.3576  0.2343 -0.6588
  175MOL   H13631804   1.689   4.139   7.695  0.4133 -0.6245  1.0265
  175MOL   C13731805   1.466   4.240   7.670  0.1670 -0.4363 -0.0648
  175MOL   C13831806   1.330   4.302   0.022 -0.6179  0.3825  0.1307
  175MOL   C13931807   1.270   4.237   0.144  0.5712  0.4686 -0.5486
  175MOL   H14031808   1.547   4.285   0.031 -1.0574  0.1068  1.2361
  175MOL   H14131809   1.479   4.279   7.569 -1.6975  0.4103  0.0090
  175MOL   H14231810   1.264   4.299   7.633  1.1714 -1.1687 -1.2521
  175MOL   H14331811   1.251   4.131   0.127 -0.4934  0.6651 -0.6770
  175MOL   H14431812   1.338   4.241   0.229 -1.3818 -0.5522  1.1016
  175MOL   H14531813   1.169   4.278   0.159  0.9997  1.0259  0.8170
  175MOL   C14631814   1.363   4.456   0.034  0.9204  0.3822 -0.2792
  175MOL   C14731815   1.239   4.545   0.055  0.0415  0.1558  0.1366
  175MOL   C14831816   1.296   4.684   0.108  0.4027  0.4575  0.4803
  175MOL   H14931817   1.437   4.468   0.113 -0.4892  1.9802  0.8119
  175MOL   H15031818   1.420   4.482   7.641 -2.1902 -0.7959 -2.6479
  175MOL   H15131819   1.176   4.492   0.126  1.3555 -0.6850  0.6823
  175MOL   H15231820   1.396   4.672   0.149  0.6684  0.3479 -0.1861
  175MOL   H15331821   1.303   4.754   0.025 -0.5079 -0.1803 -0.1551
  175MOL   H15431822   1.236   4.729   0.187 -2.1585 -2.3431  0.2489
  175MOL   C15531823   1.147   4.572   7.632  0.5397 -1.1492 -0.3266
  175MOL   C15631824   1.021   4.647   7.659 -0.0719 -0.6341  0.1495
  175MOL   C15731825   0.957   4.689   7.523  0.2612 -0.4516 -1.3843
  175MOL   H15831826   1.207   4.625   7.558  0.8549  0.1458  0.8392
  175MOL   H15931827   1.121   4.476   7.587  1.4306 -1.1215 -0.9247
  175MOL   H16031828   1.060   4.739   0.004 -0.2835 -0.1021 -0.7853
  175MOL   H16131829   1.028   4.706   7.443 -0.0798  0.7507 -1.4332
  175MOL   H16231830   0.888   4.614   7.486 -1.4067 -0.0349  0.7616
  175MOL   H16331831   0.909   4.786   7.523 -0.3231 -0.7271 -2.9618
  175MOL   C16431832   0.912   4.581   0.051 -0.3524  0.5427 -0.2159
  175MOL   C16531833   0.792   4.679   0.095  0.4596  0.1302 -0.3601
  175MOL   C16631834   0.670   4.595   0.141 -0.6814 -0.6590 -0.2633
  175MOL   H16731835   0.866   4.500   7.692  1.0229  0.1220 -0.7455
  175MOL   H16831836   0.964   4.552   0.142  3.3112  0.7410 -2.1602
  175MOL   H16931837   0.755   4.731   0.006 -1.9161  1.2679  1.2217
  175MOL   H17031838   0.586   4.656   0.171 -0.9977  0.0843 -2.5672
  175MOL   H17131839   0.630   4.544   0.053  0.6695 -3.0227  0.4504
  175MOL   H17231840   0.699   4.520   0.214 -0.3224  2.3158  2.7476
  175MOL   C17331841   0.835   4.788   0.199 -0.6029  0.2513 -0.6812
  175MOL   C17431842   0.895   4.723   0.328  0.3626 -0.6168  0.7313
  175MOL   C17531843   0.958   4.828   0.417  0.4591  0.1279  0.9045
  175MOL   H17631844   0.915   4.843   0.151 -0.4171  1.6454  1.1553
  175MOL   H17731845   0.759   4.864   0.220  1.2312  1.9479 -0.0816
  175MOL   H17831846   0.966   4.641   0.318  1.2916  0.3472 -0.9077
  175MOL   H17931847   0.885   4.897   0.460 -0.9097 -0.1116 -0.9786
  175MOL   H18031848   1.014   4.775   0.493  0.6671  0.4523  0.9770
  175MOL   H18131849   1.031   4.886   0.361  1.2417  0.0192  1.8016
  175MOL   H18231850   0.813   4.673   0.379 -0.2225 -1.5119 -1.0405
  176MOL     C131851   2.105   1.723   4.207 -0.3843  0.2995 -0.4365
  176MOL     C231852   2.170   1.792   4.085  0.0289  0.1769 -0.4015
  176MOL     C331853   2.323   1.795   4.093  0.3079  0.3271 -0.3598
  176MOL     H431854   2.123   1.615   4.216 -0.4912  0.1662 -1.7557
  176MOL     H531855   1.998   1.744   4.201 -0.9475 -2.2127 -0.0328
  176MOL     H631856   2.141   1.896   4.100 -3.0247 -0.5290 -1.0298
  176MOL     H731857   2.367   1.861   4.018 -1.1157  0.9890 -0.6393
  176MOL     H831858   2.359   1.829   4.190  0.8096  1.7937 -1.0292
  176MOL     H931859   2.357   1.693   4.075 -0.7071 -0.1577  0.4140
  176MOL    H1031860   2.164   1.757   4.292  0.9633  0.3736 -1.3793
  176MOL    C1131861   2.120   1.748   3.951 -0.4870  0.3879  0.4384
  176MOL    C1231862   1.975   1.778   3.920  0.4130 -0.0709 -0.7633
  176MOL    C1331863   1.942   1.920   3.887 -0.0383  0.4538  0.5586
  176MOL    H1431864   2.176   1.803   3.875 -0.4655  0.9486  0.8557
  176MOL    H1531865   2.142   1.642   3.939  0.2873  0.4596  1.2062
  176MOL    H1631866   1.916   1.755   4.010  0.6619  1.5983 -0.1597
  176MOL    H1731867   1.903   1.932   3.786 -0.3243  1.0015  0.7335
  176MOL    H1831868   1.865   1.949   3.959 -0.0676 -2.0785  1.6134
  176MOL    H1931869   2.022   1.993   3.900  1.0514 -0.8320  1.3020
  176MOL    C2031870   1.911   1.688   3.805 -0.0666  0.4909 -0.3589
  176MOL    C2131871   1.913   1.531   3.838  0.1446  0.1172  0.7609
  176MOL    C2231872   1.837   1.503   3.961 -0.0693  0.2088 -0.0795
  176MOL    H2331873   1.809   1.725   3.800 -0.4844 -0.8357 -1.9054
  176MOL    H2431874   1.956   1.711   3.708  0.3868  2.8025  0.3625
  176MOL    H2531875   2.008   1.480   3.854  1.0317  1.2652 -0.7242
  176MOL    H2631876   1.899   1.531   4.046 -0.7802  0.0605  0.4984
  176MOL    H2731877   1.748   1.564   3.978  0.2514  0.5126  0.4937
  176MOL    H2831878   1.817   1.396   3.973 -1.7580  0.7806  2.4940
  176MOL    C2931879   1.839   1.455   3.728  0.3327 -0.6114  0.1246
  176MOL    C3031880   1.916   1.462   3.593 -0.2744  0.2718  0.3502
  176MOL    C3131881   2.049   1.384   3.609 -0.1020 -0.6260 -0.5577
  176MOL    H3231882   1.831   1.348   3.749 -1.0313 -0.6988 -0.7312
  176MOL    H3331883   1.737   1.492   3.716  0.1391 -1.3955 -0.7509
  176MOL    H3431884   1.933   1.564   3.560  0.9734 -0.3587 -1.0396
  176MOL    H3531885   2.113   1.392   3.521 -0.4992  0.6620 -0.7404
  176MOL    H3631886   2.115   1.424   3.686  2.2638 -1.2551 -2.2152
  176MOL    H3731887   2.042   1.277   3.628  2.4867 -0.6424  0.5342
  176MOL    C3831888   1.846   1.391   3.476 -0.2576  0.2695 -0.1547
  176MOL    C3931889   1.731   1.474   3.415  0.1103 -0.0859  0.6776
  176MOL    C4031890   1.789   1.557   3.302  0.3247 -0.0806  0.8078
  176MOL    H4131891   1.917   1.367   3.397 -1.0361 -0.8155 -0.5383
  176MOL    H4231892   1.817   1.293   3.516  0.4082  0.3638  0.5495
  176MOL    H4331893   1.706   1.550   3.489 -1.3217  0.1031  0.0182
  176MOL    H4431894   1.718   1.622   3.250  0.5987 -0.9500 -0.6810
  176MOL    H4531895   1.873   1.619   3.332  0.5605 -0.9601  1.9960
  176MOL    H4631896   1.805   1.490   3.218 -2.2570  0.2269  0.0098
  176MOL    C4731897   1.609   1.386   3.368  0.0975  0.6713  0.1238
  176MOL    C4831898   1.492   1.341   3.464 -0.7178 -0.4183  0.7347
  176MOL    C4931899   1.421   1.460   3.544  0.1529 -0.0637 -0.3156
  176MOL    H5031900   1.551   1.433   3.288 -1.7564  0.5193  1.3366
  176MOL    H5131901   1.652   1.301   3.316 -1.8147 -2.2362  3.1226
  176MOL    H5231902   1.542   1.273   3.532  0.3468 -0.0532  0.3256
  176MOL    H5331903   1.492   1.507   3.612  0.6927 -3.0323  1.2556
  176MOL    H5431904   1.393   1.539   3.475 -0.6728  0.4178  0.5538
  176MOL    H5531905   1.341   1.425   3.610  1.9502 -3.2236  0.3138
  176MOL    C5631906   1.388   1.259   3.395 -0.1615 -0.0240  0.0312
  176MOL    C5731907   1.429   1.139   3.303  0.1867  0.3367  0.0700
  176MOL    C5831908   1.510   1.033   3.380 -0.7298 -0.0841  0.1727
  176MOL    H5931909   1.332   1.221   3.481  1.5656  0.0624  1.2178
  176MOL    H6031910   1.318   1.319   3.338  2.0161 -0.1597 -2.8647
  176MOL    H6131911   1.497   1.169   3.224  1.3212 -1.0205  0.5169
  176MOL    H6231912   1.570   0.982   3.305  0.4102  2.3389 -0.5914
  176MOL    H6331913   1.580   1.076   3.451  0.4987 -0.4764 -0.7879
  176MOL    H6431914   1.450   0.964   3.440  0.2607  0.1628  1.4641
  176MOL    C6531915   1.296   1.080   3.242 -0.4592  0.1633  0.0065
  176MOL    C6631916   1.320   0.961   3.151  0.2854  0.0431  0.2533
  176MOL    C6731917   1.195   0.884   3.127 -0.1463 -0.1205  0.3020
  176MOL    H6831918   1.236   1.061   3.331 -1.6853  2.5991 -0.2714
  176MOL    H6931919   1.244   1.159   3.189 -1.0283 -0.1921  0.0296
  176MOL    H7031920   1.396   0.902   3.203  0.5292 -2.7033 -3.1168
  176MOL    H7131921   1.132   0.880   3.216 -1.7455 -0.5726 -0.8499
  176MOL    H7231922   1.138   0.941   3.054 -0.1952  0.3074  0.6691
  176MOL    H7331923   1.222   0.782   3.102 -4.2703 -1.1340 -0.3532
  176MOL    C7431924   1.386   1.009   3.021  0.2595 -0.4355  0.3939
  176MOL    C7531925   1.449   0.890   2.937  0.2514 -0.0324 -0.3681
  176MOL    C7631926   1.463   0.931   2.789 -0.1419 -0.4545 -0.1972
  176MOL    H7731927   1.309   1.051   2.956  0.1051 -0.8307  0.3185
  176MOL    H7831928   1.456   1.088   3.047  0.1620 -0.6293  1.2719
  176MOL    H7931929   1.385   0.803   2.945  0.3893 -0.2734 -1.7188
  176MOL    H8031930   1.519   1.024   2.782 -1.6442  0.3702 -1.7189
  176MOL    H8131931   1.529   0.862   2.738 -2.6385 -2.3714 -0.9589
  176MOL    H8231932   1.369   0.953   2.737  0.0744  0.1824 -0.3243
  176MOL    C8331933   1.591   0.854   2.987  0.0677  0.1881 -0.5417
  176MOL    C8431934   1.605   0.700   3.012 -0.0821 -0.5852 -0.1163
  176MOL    C8531935   1.601   0.624   2.874  0.0509 -0.6339 -0.9587
  176MOL    H8631936   1.680   0.875   2.928 -0.3226 -0.1838 -1.2740
  176MOL    H8731937   1.611   0.905   3.081 -1.5638 -0.0956 -0.0290
  176MOL    H8831938   1.521   0.670   3.075  0.5114 -0.9677  0.5040
  176MOL    H8931939   1.629   0.524   2.905 -1.2212 -1.0048 -1.0163
  176MOL    H9031940   1.499   0.638   2.837 -0.2939 -1.0807 -0.1632
  176MOL    H9131941   1.685   0.652   2.810 -0.0807 -0.7011 -1.1614
  176MOL    C9231942   1.737   0.667   3.088 -0.1464 -0.2053  0.1000
  176MOL    C9331943   1.743   0.714   3.241  0.0810  0.4061 -0.3087
  176MOL    C9431944   1.644   0.634   3.324 -0.2944 -0.0703 -0.2660
  176MOL    H9531945   1.761   0.561   3.097 -1.8970 -0.6261 -0.0020
  176MOL    H9631946   1.819   0.705   3.028 -0.9631  3.4655  1.1483
  176MOL    H9731947   1.721   0.821   3.240  0.5992  0.5135 -0.8255
  176MOL    H9831948   1.658   0.650   3.431 -0.9275 -0.3102 -0.1427
  176MOL    H9931949   1.541   0.657   3.296  0.1397  0.2388 -1.6457
  176MOL   H10031950   1.653   0.527   3.309  1.2512  0.2588 -1.7262
  176MOL   C10131951   1.886   0.706   3.302 -0.8708 -0.1005  0.3967
  176MOL   C10231952   1.969   0.838   3.269  0.6881 -0.9291  0.3446
  176MOL   C10331953   1.915   0.949   3.362  0.1271 -0.2617 -0.4391
  176MOL   H10431954   1.882   0.686   3.409  1.6076 -2.8377  0.0353
  176MOL   H10531955   1.940   0.621   3.262  1.4611  0.4172  2.2843
  176MOL   H10631956   1.954   0.872   3.167  1.8898 -2.0764 -0.2457
  176MOL   H10731957   1.936   0.921   3.466  1.3975 -0.0828 -0.6412
  176MOL   H10831958   1.969   1.040   3.338  0.0537 -0.3855 -1.0679
  176MOL   H10931959   1.808   0.964   3.355 -0.1052 -1.6561 -0.1352
  176MOL   C11031960   2.124   0.820   3.301 -0.6721 -0.8369  0.3408
  176MOL   C11131961   2.205   0.725   3.208 -0.0820  0.4258 -1.2728
  176MOL   C11231962   2.201   0.787   3.070  0.7771  0.8271  0.1930
  176MOL   H11331963   2.168   0.919   3.286 -3.0279  0.2184  0.2037
  176MOL   H11431964   2.138   0.792   3.405  1.7996  0.2391  0.3328
  176MOL   H11531965   2.167   0.623   3.197  1.2578  0.0641 -2.5857
  176MOL   H11631966   2.237   0.890   3.070 -2.1564  1.9178 -1.2164
  176MOL   H11731967   2.274   0.732   3.012  0.4466 -0.6545  1.1524
  176MOL   H11831968   2.100   0.781   3.029  0.1777 -0.2308  1.7439
  176MOL   C11931969   2.355   0.716   3.270 -0.1446 -0.5339  0.0757
  176MOL   C12031970   2.384   0.585   3.344  0.1771  1.1341  0.2464
  176MOL   C12131971   2.530   0.531   3.315  0.8563 -0.1107  0.0052
  176MOL   H12231972   2.413   0.710   3.179 -1.1783 -2.0360 -0.5081
  176MOL   H12331973   2.402   0.797   3.327 -1.7098 -0.7042  1.6724
  176MOL   H12431974   2.328   0.508   3.291  0.0251  2.3545 -1.4099
  176MOL   H12531975   2.541   0.431   3.357 -0.6531 -0.4803 -0.4508
  176MOL   H12631976   2.553   0.540   3.209 -0.5138  2.3195 -0.1261
  176MOL   H12731977   2.605   0.595   3.362 -0.3930  0.9725  0.5467
  176MOL   C12831978   2.341   0.587   3.495  1.0143 -0.0828 -0.4097
  176MOL   C12931979   2.359   0.465   3.587  0.0725  0.7762 -0.0074
  176MOL   C13031980   2.319   0.502   3.731  0.4296  0.0173  0.1198
  176MOL   H13131981   2.399   0.660   3.551  0.8477 -1.0924  1.1056
  176MOL   H13231982   2.234   0.605   3.502  0.6026 -2.8969  1.3651
  176MOL   H13331983   2.467   0.452   3.584  0.1760  1.8440 -3.2350
  176MOL   H13431984   2.369   0.588   3.774  0.4849  0.0909 -0.0945
  176MOL   H13531985   2.210   0.512   3.729  0.4963  0.6714 -0.4205
  176MOL   H13631986   2.353   0.420   3.794 -1.9583 -0.7065  0.5196
  176MOL   C13731987   2.286   0.335   3.530  0.2659 -0.8585 -0.3288
  176MOL   C13831988   2.308   0.216   3.628  0.2114  0.0536 -0.1152
  176MOL   C13931989   2.185   0.203   3.717 -0.1190 -0.0836  0.2128
  176MOL   H14031990   2.179   0.356   3.528  0.2424 -0.7728  1.0098
  176MOL   H14131991   2.323   0.316   3.429  2.2359  0.1855  0.1572
  176MOL   H14231992   2.391   0.236   3.696  0.6499  1.2957 -0.9996
  176MOL   H14331993   2.212   0.126   3.790  1.5117 -1.5594 -1.8717
  176MOL   H14431994   2.167   0.295   3.773 -1.6005  0.7222 -1.5243
  176MOL   H14531995   2.090   0.183   3.668 -0.5653  2.0414  0.1425
  176MOL   C14631996   2.343   0.095   3.535  0.2964 -0.1302 -0.0880
  176MOL   C14731997   2.382   7.656   3.603  0.0651 -0.1162 -0.1714
  176MOL   C14831998   2.402   7.549   3.494  0.6349  0.3573 -0.5875
  176MOL   H14931999   2.257   0.086   3.469  1.1430  0.2988 -1.2803
  176MOL   H15032000   2.416   0.118   3.457 -0.2861 -2.6147 -1.4484
  176MOL   H15132001   2.292   7.638   3.663  1.0110  0.9831  1.6388
  176MOL   H15232002   2.407   7.449   3.537 -0.3927 -0.5014 -2.3963
  176MOL   H15332003   2.308   7.535   3.441  0.4257 -1.9856  0.3542
  176MOL   H15432004   2.488   7.566   3.429  0.8664 -1.4976 -0.7936
  176MOL   C15532005   2.509   7.652   3.706  0.0575  0.2020 -0.6899
  176MOL   C15632006   2.656   7.661   3.654 -0.3721 -0.2180  0.4700
  176MOL   C15732007   2.698   0.110   3.639  0.3843  0.1186 -0.1279
  176MOL   H15832008   2.499   0.025   3.789 -1.8094 -1.1226  0.2160
  176MOL   H15932009   2.494   7.554   3.751 -0.5256  0.1564 -0.9755
  176MOL   H16032010   2.672   7.617   3.555  0.9939  0.2427  0.4720
  176MOL   H16132011   2.697   0.168   3.731 -3.1453  0.8409 -0.5295
  176MOL   H16232012   2.791   0.121   3.584 -0.5977 -2.3649 -2.4224
  176MOL   H16332013   2.627   0.161   3.574 -0.4163  1.9429  2.1118
  176MOL   C16432014   2.741   7.590   3.768 -0.2895 -0.1892  0.4270
  176MOL   C16532015   2.753   7.441   3.748 -0.7870  0.7376  0.2025
  176MOL   C16632016   2.854   7.402   3.645 -0.0675  0.0242  0.7069
  176MOL   H16732017   2.839   7.637   3.773 -0.3617 -0.0722  0.7182
  176MOL   H16832018   2.691   7.611   3.862  0.6288  1.2840  0.6001
  176MOL   H16932019   2.665   7.395   3.701  0.0232  1.9891 -2.6680
  176MOL   H17032020   2.854   7.466   3.556  0.5382 -2.1727 -0.9165
  176MOL   H17132021   2.952   7.407   3.692 -1.0002  2.0838  2.4963
  176MOL   H17232022   2.833   7.301   3.608 -1.8527  0.4570  0.4589
  176MOL   C17332023   2.775   7.358   3.876  0.1584 -0.0523 -0.2171
  176MOL   C17432024   2.897   7.411   3.957  0.4498 -0.2900 -0.9615
  176MOL   C17532025   2.901   7.352   4.104  0.4234 -0.8873 -0.1714
  176MOL   H17632026   2.685   7.360   3.938  0.7060  0.0245  0.5803
  176MOL   H17732027   2.790   7.251   3.867 -2.7034 -0.5313  0.1769
  176MOL   H17832028   2.890   7.519   3.963 -0.8570 -0.3275 -1.5660
  176MOL   H17932029   2.932   7.248   4.103 -1.7317 -1.5538 -1.4808
  176MOL   H18032030   2.960   7.410   4.176  0.4308 -1.7796  0.5522
  176MOL   H18132031   2.798   7.355   4.141  0.2465 -0.6801 -0.6720
  176MOL   H18232032   2.995   7.389   3.916 -0.3479 -2.2383 -1.9236
  177MOL     C132033   2.321   2.629   4.356 -0.1136  0.0620  0.0708
  177MOL     C232034   2.422   2.737   4.387 -0.3246 -0.8471  0.4226
  177MOL     C332035   2.392   2.860   4.302 -0.4415 -0.2970  0.1985
  177MOL     H432036   2.279   2.630   4.256  0.5293  1.0153 -0.1982
  177MOL     H532037   2.248   2.646   4.435  0.9584 -0.4202  1.1745
  177MOL     H632038   2.522   2.702   4.361  0.3983  1.7956 -0.5430
  177MOL     H732039   2.380   2.845   4.194  0.6598 -1.5785  0.2409
  177MOL     H832040   2.302   2.901   4.349 -0.6497  0.2879 -0.6843
  177MOL     H932041   2.468   2.937   4.299  1.1651 -1.8918 -1.4775
  177MOL    H1032042   2.364   2.531   4.374 -0.5075  0.2844  2.4468
  177MOL    C1132043   2.431   2.771   4.535  0.2672 -0.1251 -0.2896
  177MOL    C1232044   2.451   2.657   4.635 -0.2602  0.1586  0.1914
  177MOL    C1332045   2.571   2.566   4.576 -0.0213 -0.1147 -0.2214
  177MOL    H1432046   2.530   2.816   4.543  0.4131 -0.4908 -0.0121
  177MOL    H1532047   2.355   2.842   4.567 -1.4804 -2.0205 -0.0835
  177MOL    H1632048   2.370   2.584   4.640  0.8453 -1.1758 -0.7392
  177MOL    H1732049   2.611   2.497   4.650 -2.7602  0.4408  1.8487
  177MOL    H1832050   2.537   2.497   4.499 -0.2236 -1.2380  0.8473
  177MOL    H1932051   2.657   2.625   4.543  0.6112 -1.2048 -0.5404
  177MOL    C2032052   2.472   2.714   4.774  0.4980  0.4559 -0.9088
  177MOL    C2132053   2.524   2.614   4.875  0.8211  0.4964 -0.2750
  177MOL    C2232054   2.562   2.686   5.000 -0.2560 -0.5497 -0.0346
  177MOL    H2332055   2.549   2.792   4.771  1.2543 -0.2411  0.1233
  177MOL    H2432056   2.382   2.763   4.810  0.9874  1.2029 -0.6981
  177MOL    H2532057   2.616   2.566   4.841  0.5468 -1.7008  1.9204
  177MOL    H2632058   2.603   2.620   5.077 -0.7294 -0.9191 -0.0931
  177MOL    H2732059   2.629   2.765   4.968 -0.7317  0.2024  0.7966
  177MOL    H2832060   2.476   2.736   5.045  0.8902  1.2114  0.2487
  177MOL    C2932061   2.426   2.496   4.911  0.3052  0.3082 -0.5428
  177MOL    C3032062   2.496   2.359   4.914 -0.1419 -0.1047 -0.7244
  177MOL    C3132063   2.595   2.335   5.027  0.3022 -0.2608  0.4497
  177MOL    H3232064   2.380   2.509   5.009  0.1677 -0.2989 -0.5237
  177MOL    H3332065   2.343   2.495   4.841 -0.1469 -0.2699 -0.0030
  177MOL    H3432066   2.557   2.364   4.823 -1.1768  0.5372 -1.3900
  177MOL    H3532067   2.678   2.406   5.020 -1.0139  1.3199  0.5212
  177MOL    H3632068   2.544   2.337   5.124 -1.4777  0.2971 -0.4887
  177MOL    H3732069   2.647   2.240   5.015 -1.0040 -0.9470  0.1701
  177MOL    C3832070   2.409   2.237   4.903  0.2804 -0.1175  0.0352
  177MOL    C3932071   2.322   2.225   4.777 -0.0140 -0.0871  0.5155
  177MOL    C4032072   2.396   2.225   4.639 -0.4867 -0.1779 -0.1341
  177MOL    H4132073   2.467   2.145   4.910  0.8963  0.2401 -0.2331
  177MOL    H4232074   2.351   2.243   4.994  1.0381  1.0447  0.4625
  177MOL    H4332075   2.256   2.311   4.777 -1.1440 -0.9216  1.8193
  177MOL    H4432076   2.471   2.148   4.652  1.3122  1.6993  0.7984
  177MOL    H4532077   2.344   2.196   4.548 -0.1416  0.6944 -0.6117
  177MOL    H4632078   2.460   2.312   4.620  3.0371 -2.7487 -0.4128
  177MOL    C4732079   2.232   2.098   4.774  0.2731  0.2601 -0.2061
  177MOL    C4832080   2.129   2.079   4.883  0.7155 -0.0598 -0.1500
  177MOL    C4932081   2.025   2.191   4.881 -0.5538  0.2741  0.4401
  177MOL    H5032082   2.182   2.099   4.676 -0.3215  2.1402  0.0877
  177MOL    H5132083   2.287   2.004   4.772 -2.7388 -1.5357 -1.9756
  177MOL    H5232084   2.180   2.083   4.979  2.8499 -0.4825 -1.2462
  177MOL    H5332085   1.953   2.190   4.800 -1.2844  0.1729  1.0842
  177MOL    H5432086   1.964   2.194   4.971 -0.2854  0.2344  0.6237
  177MOL    H5532087   2.064   2.293   4.879  0.1190  0.0007 -1.5919
  177MOL    C5632088   2.056   1.943   4.875  0.6640 -0.2875  0.2418
  177MOL    C5732089   1.981   1.894   4.999  0.2209 -0.3485 -1.0117
  177MOL    C5832090   1.885   1.778   4.953 -0.7937  0.4399  0.1168
  177MOL    H5932091   1.984   1.959   4.794  0.5279 -0.9190  0.2413
  177MOL    H6032092   2.124   1.861   4.852 -1.5367 -2.4098  1.1175
  177MOL    H6132093   1.906   1.968   5.027 -0.2302 -1.3644  0.5466
  177MOL    H6232094   1.932   1.689   4.910 -0.5878 -0.4883  2.1966
  177MOL    H6332095   1.811   1.745   5.026 -3.3358  2.4188 -1.4840
  177MOL    H6432096   1.821   1.809   4.871 -1.8293 -2.1905 -0.1297
  177MOL    C6532097   2.078   1.844   5.114  0.0602 -0.3671  0.4245
  177MOL    C6632098   1.998   1.830   5.250 -0.5063  0.0396 -0.1097
  177MOL    C6732099   2.039   1.706   5.339  1.5668 -0.2639 -0.5196
  177MOL    H6832100   2.133   1.751   5.095  1.6164  0.6977 -0.4242
  177MOL    H6932101   2.158   1.918   5.125  0.2035 -0.5444  0.5917
  177MOL    H7032102   1.893   1.827   5.220 -0.9352  4.2894  0.6709
  177MOL    H7132103   1.973   1.695   5.425  2.0341 -0.5510 -0.2003
  177MOL    H7232104   2.030   1.607   5.293  0.6636  0.1939 -1.3502
  177MOL    H7332105   2.142   1.723   5.369  1.5054 -0.1287 -0.3863
  177MOL    C7432106   1.992   1.956   5.343  0.0586 -0.3445  0.0763
  177MOL    C7532107   1.855   2.003   5.398 -0.6288 -0.1254  0.3815
  177MOL    C7632108   1.833   1.953   5.537  0.4958 -0.2313 -0.6760
  177MOL    H7732109   2.056   1.932   5.427 -0.9273  0.1094  0.9607
  177MOL    H7832110   2.042   2.038   5.292  1.1471  0.5415  2.5239
  177MOL    H7932111   1.781   1.952   5.337 -1.5386  1.8560 -0.2259
  177MOL    H8032112   1.893   2.003   5.613 -2.6342  1.5180  0.7795
  177MOL    H8132113   1.732   1.978   5.572  0.9539 -0.2670  0.7028
  177MOL    H8232114   1.840   1.845   5.547  0.6291 -0.0298  1.7535
  177MOL    C8332115   1.842   2.157   5.391 -0.7310 -0.6299 -0.2098
  177MOL    C8432116   1.829   2.227   5.247  0.7336  0.6863 -0.2972
  177MOL    C8532117   1.720   2.165   5.163  0.0144 -0.2056 -0.1170
  177MOL    H8632118   1.744   2.169   5.438  0.2157  1.8045  1.2832
  177MOL    H8732119   1.923   2.202   5.449  1.7803 -0.6611 -3.5577
  177MOL    H8832120   1.915   2.222   5.180  0.9019  1.5540 -0.1583
  177MOL    H8932121   1.734   2.057   5.149 -0.5383 -0.2040 -0.7728
  177MOL    H9032122   1.622   2.193   5.202  0.5866  1.5997  0.0293
  177MOL    H9132123   1.719   2.198   5.059 -2.7218  1.6598  0.4569
  177MOL    C9232124   1.809   2.385   5.248 -0.4576  0.8557 -0.0537
  177MOL    C9332125   1.924   2.467   5.314 -0.0466  0.1892 -0.1388
  177MOL    C9432126   2.051   2.477   5.224  0.6299 -0.0583 -0.5334
  177MOL    H9532127   1.794   2.427   5.149 -1.5321  0.8959  0.1204
  177MOL    H9632128   1.718   2.423   5.295 -0.3826  0.7914  0.1470
  177MOL    H9732129   1.960   2.412   5.400 -0.6925 -2.0787 -1.2593
  177MOL    H9832130   2.106   2.567   5.250 -2.6738  1.2198  2.4667
  177MOL    H9932131   2.103   2.382   5.238  0.3371 -0.2320 -0.6227
  177MOL   H10032132   2.016   2.484   5.121 -2.2519 -0.8926  0.3303
  177MOL   C10132133   1.886   2.605   5.368  0.2770 -0.1177 -0.0247
  177MOL   C10232134   1.762   2.603   5.469 -0.2245 -0.2634 -0.1189
  177MOL   C10332135   1.810   2.517   5.591 -0.1945 -0.2716  0.5913
  177MOL   H10432136   1.972   2.663   5.401 -0.5506 -0.0974  2.1248
  177MOL   H10532137   1.844   2.644   5.275  2.2511  0.3259 -0.7511
  177MOL   H10632138   1.665   2.563   5.442 -0.8562  1.8022 -0.9889
  177MOL   H10732139   1.753   2.528   5.683 -0.0182 -1.0802  0.8048
  177MOL   H10832140   1.815   2.413   5.557 -0.1890  0.3550 -1.3913
  177MOL   H10932141   1.913   2.547   5.610  0.1221 -2.1975  2.0537
  177MOL   C11032142   1.727   2.746   5.514  0.4419  0.4467 -0.8457
  177MOL   C11132143   1.681   2.840   5.401 -0.8916  0.3835  0.1140
  177MOL   C11232144   1.532   2.819   5.398  0.0559  0.9061 -0.5729
  177MOL   H11332145   1.667   2.749   5.605  0.7332  0.3451 -0.6458
  177MOL   H11432146   1.821   2.784   5.555 -1.1434  0.3959  3.1405
  177MOL   H11532147   1.719   2.809   5.303 -0.0265  1.4217  0.1138
  177MOL   H11632148   1.520   2.711   5.391 -0.3048  0.7648  1.9768
  177MOL   H11732149   1.477   2.865   5.480  1.5642  0.9270  0.4562
  177MOL   H11832150   1.498   2.871   5.308  0.3177 -0.8005 -1.6883
  177MOL   C11932151   1.723   2.990   5.428  0.4973  0.4756  0.0424
  177MOL   C12032152   1.695   3.098   5.313  0.4297 -0.4109  0.5412
  177MOL   C12132153   1.677   3.235   5.372 -0.7359  0.0422  0.3314
  177MOL   H12232154   1.653   3.027   5.503  1.7188  0.9925  0.9456
  177MOL   H12332155   1.818   2.995   5.480 -1.0913 -0.7733  3.2705
  177MOL   H12432156   1.604   3.069   5.261  0.4091  0.1401  0.2705
  177MOL   H12532157   1.655   3.304   5.291 -3.1020 -1.1255 -0.0330
  177MOL   H12632158   1.596   3.238   5.445 -0.7714  1.3281  0.2570
  177MOL   H12732159   1.756   3.278   5.435  0.0694 -2.9020  1.4018
  177MOL   C12832160   1.809   3.072   5.204  0.0746 -0.0232  0.7551
  177MOL   C12932161   1.803   3.153   5.072  0.3993 -0.1154 -0.5107
  177MOL   C13032162   1.928   3.137   4.980 -0.2102  0.2783 -0.0361
  177MOL   H13132163   1.907   3.097   5.244  0.2696 -0.2144  0.4000
  177MOL   H13232164   1.821   2.966   5.181 -1.0618  0.0154 -0.0536
  177MOL   H13332165   1.800   3.258   5.101 -0.8642  0.0584 -1.2323
  177MOL   H13432166   2.018   3.160   5.037 -1.2759  0.3246  1.6971
  177MOL   H13532167   1.939   3.030   4.959 -0.1540  0.1987  0.3897
  177MOL   H13632168   1.925   3.200   4.892 -0.4612  1.1023  0.5517
  177MOL   C13732169   1.676   3.131   4.985  1.0420 -0.5180  0.1876
  177MOL   C13832170   1.555   3.222   5.003 -0.8187 -0.1918 -0.1779
  177MOL   C13932171   1.575   3.368   4.952 -0.1873  0.2798  0.6328
  177MOL   H14032172   1.711   3.164   4.887  0.7108 -0.4892  0.0790
  177MOL   H14132173   1.648   3.026   4.980  0.8219 -0.4564  0.1228
  177MOL   H14232174   1.545   3.226   5.112 -2.0134 -0.7785 -0.2475
  177MOL   H14332175   1.656   3.421   5.002 -1.4807  0.4389  2.6398
  177MOL   H14432176   1.592   3.369   4.845 -0.3759 -2.2421  0.5489
  177MOL   H14532177   1.484   3.428   4.961  0.7597  2.3879 -2.8691
  177MOL   C14632178   1.433   3.158   4.939 -0.1705  0.5548  0.7353
  177MOL   C14732179   1.346   3.057   5.019  0.2268  0.3531 -0.8537
  177MOL   C14832180   1.251   3.142   5.100 -0.3478 -0.4399 -0.4573
  177MOL   H14932181   1.369   3.231   4.890  0.8485  0.7455 -0.3141
  177MOL   H15032182   1.460   3.103   4.849 -2.2664  1.1878 -0.3163
  177MOL   H15132183   1.410   2.990   5.076 -2.7969 -2.3387 -0.4560
  177MOL   H15232184   1.201   3.216   5.038  0.0516 -0.0834 -0.3534
  177MOL   H15332185   1.171   3.081   5.143  0.2650  0.0715  1.4750
  177MOL   H15432186   1.309   3.194   5.177 -1.6011 -0.9668  0.8691
  177MOL   C15532187   1.274   2.952   4.935 -1.3595  0.1659  0.2909
  177MOL   C15632188   1.177   2.852   5.005 -1.0361  0.0232 -0.7009
  177MOL   C15732189   1.126   2.749   4.896 -0.7395 -0.4910  0.5270
  177MOL   H15832190   1.222   2.997   4.850 -0.9944 -1.7553 -0.9797
  177MOL   H15932191   1.364   2.904   4.895  0.7670  2.4718  2.1305
  177MOL   H16032192   1.101   2.911   5.055 -0.7405 -1.2440  1.3209
  177MOL   H16132193   1.045   2.680   4.916 -0.7798 -0.1975  1.4422
  177MOL   H16232194   1.075   2.801   4.815  1.7073  1.3425  0.1033
  177MOL   H16332195   1.215   2.701   4.856 -0.5523 -0.4855  0.9318
  177MOL   C16432196   1.249   2.772   5.124  0.1222  0.4479  0.0826
  177MOL   C16532197   1.161   2.689   5.223  0.9283  0.2987 -0.7868
  177MOL   C16632198   1.241   2.590   5.308  0.3277  0.4419  0.2040
  177MOL   H16732199   1.324   2.697   5.096 -1.0646 -1.0762  0.9119
  177MOL   H16832200   1.296   2.847   5.188 -0.1467  0.4094  0.3237
  177MOL   H16932201   1.094   2.625   5.165  1.3554 -0.0104 -0.9452
  177MOL   H17032202   1.298   2.640   5.386 -0.9234 -0.5839  1.8054
  177MOL   H17132203   1.182   2.508   5.349 -0.6107 -0.4497 -2.8048
  177MOL   H17232204   1.322   2.534   5.259  0.1693 -0.8252  1.3591
  177MOL   C17332205   1.071   2.774   5.321  0.0438  0.6634 -0.1787
  177MOL   C17432206   1.138   2.860   5.432 -0.0160 -0.3150 -0.4034
  177MOL   C17532207   1.018   2.945   5.484 -0.0191  0.2669  0.8487
  177MOL   H17632208   1.016   2.846   5.261  0.1724  1.2895  0.4429
  177MOL   H17732209   0.999   2.707   5.368 -1.3302  1.9875 -0.3511
  177MOL   H17832210   1.218   2.928   5.402  0.1225  0.2069  1.0919
  177MOL   H17932211   0.931   2.886   5.515 -1.6389  1.7342 -0.8182
  177MOL   H18032212   1.055   2.997   5.572  1.1029  1.6953 -0.4403
  177MOL   H18132213   0.986   3.016   5.408  0.9765 -0.3110 -0.1281
  177MOL   H18232214   1.176   2.799   5.514 -0.2787 -0.2051 -0.1983
  178MOL     C132215   5.206   5.430   0.332 -0.3208 -0.5636  0.4791
  178MOL     C232216   5.348   5.383   0.301  0.1677 -0.1019 -0.2257
  178MOL     C332217   5.363   5.417   0.153 -0.4722 -0.2235 -0.5344
  178MOL     H432218   5.173   5.384   0.425 -2.8624  1.0145  0.3841
  178MOL     H532219   5.144   5.398   0.249  1.1303 -1.1079 -0.4154
  178MOL     H632220   5.339   5.275   0.310 -1.2314 -0.0492 -0.8840
  178MOL     H732221   5.347   5.523   0.132  0.2811  0.1212  0.6364
  178MOL     H832222   5.463   5.383   0.127  0.1367  1.9238 -1.0905
  178MOL     H932223   5.291   5.352   0.102 -1.9119  0.4221  0.6198
  178MOL    H1032224   5.190   5.537   0.335  2.5803  0.0042 -1.5864
  178MOL    C1132225   5.455   5.452   0.385 -0.0952  0.4848  0.4006
  178MOL    C1232226   5.455   5.406   0.537  0.8097  0.3614 -0.1479
  178MOL    C1332227   5.493   5.258   0.554 -0.8715  0.6741 -0.6584
  178MOL    H1432228   5.549   5.448   0.331 -0.3223 -0.9573  0.0932
  178MOL    H1532229   5.434   5.559   0.386 -0.1048  0.4890  2.5510
  178MOL    H1632230   5.353   5.401   0.574  0.3206  2.0798 -1.2126
  178MOL    H1732231   5.592   5.233   0.514 -1.2122  2.6907 -2.8283
  178MOL    H1832232   5.495   5.230   0.660  0.5581 -0.9578 -1.0791
  178MOL    H1932233   5.428   5.183   0.509  1.8365 -1.9323 -0.3993
  178MOL    C2032234   5.545   5.508   0.622 -0.7017  0.4947  0.9047
  178MOL    C2132235   5.498   5.655   0.623  0.1539 -0.2075 -1.1486
  178MOL    C2232236   5.353   5.669   0.668 -0.0613  0.4015 -0.6399
  178MOL    H2332237   5.535   5.476   0.726  3.3167  1.7946  1.7980
  178MOL    H2432238   5.652   5.501   0.603 -0.4059  1.1679  2.2285
  178MOL    H2532239   5.513   5.692   0.522  0.0721  1.0253 -0.7168
  178MOL    H2632240   5.331   5.614   0.759  0.6539 -1.3500 -1.5052
  178MOL    H2732241   5.322   5.773   0.675 -1.3315 -0.0422  0.5358
  178MOL    H2832242   5.288   5.625   0.592  1.1228 -3.0689  0.2785
  178MOL    C2932243   5.594   5.749   0.706 -0.2361 -0.7245 -0.3279
  178MOL    C3032244   5.626   5.893   0.652  0.5897 -0.2022  0.1650
  178MOL    C3132245   5.691   5.982   0.761 -0.2276  0.1724 -0.8697
  178MOL    H3232246   5.549   5.761   0.805 -0.7233 -0.5268 -0.5764
  178MOL    H3332247   5.680   5.688   0.736  1.1921 -0.4301 -3.6660
  178MOL    H3432248   5.542   5.956   0.624  0.7254 -0.0835  0.0158
  178MOL    H3532249   5.631   5.987   0.851 -0.5997 -1.3463 -1.0206
  178MOL    H3632250   5.780   5.938   0.807 -0.2910  2.0940  1.1790
  178MOL    H3732251   5.711   6.083   0.727 -1.2230  0.6042 -0.1882
  178MOL    C3832252   5.728   5.887   0.537 -0.6263  0.4179 -0.2939
  178MOL    C3932253   5.680   5.958   0.408 -0.1511 -0.2772  0.0952
  178MOL    C4032254   5.705   6.111   0.412 -0.3275 -0.2417  0.6731
  178MOL    H4132255   5.826   5.928   0.565 -0.6993  0.2652  0.1899
  178MOL    H4232256   5.769   5.788   0.520  0.3207  0.7519 -0.0214
  178MOL    H4332257   5.573   5.945   0.394 -0.2815  1.6055 -0.7158
  178MOL    H4432258   5.812   6.116   0.436 -0.2977  0.5836  0.4044
  178MOL    H4532259   5.695   6.166   0.319  1.2978 -0.7492  0.1785
  178MOL    H4632260   5.642   6.154   0.490 -0.5679  1.5345 -0.4867
  178MOL    C4732261   5.753   5.913   0.280  0.2196  0.7336 -0.2997
  178MOL    C4832262   5.719   5.770   0.220  0.1807 -0.5401  0.0190
  178MOL    C4932263   5.567   5.744   0.214 -0.2003  0.6274 -0.3818
  178MOL    H5032264   5.731   5.985   0.201 -0.4696 -0.3171 -1.0717
  178MOL    H5132265   5.855   5.921   0.317  0.2858 -1.6834  0.0959
  178MOL    H5232266   5.764   5.692   0.281 -1.0993 -0.2053  1.4410
  178MOL    H5332267   5.523   5.827   0.158  0.0893  0.9325 -0.1572
  178MOL    H5432268   5.544   5.644   0.179  2.5035  0.1703 -0.9455
  178MOL    H5532269   5.525   5.761   0.313  1.0411 -0.4551  0.3496
  178MOL    C5632270   5.780   5.757   0.071  0.8025 -0.1258 -0.0200
  178MOL    C5732271   5.930   5.784   0.057  0.2259  0.6576  0.5629
  178MOL    C5832272   6.033   5.699   0.143  0.0125 -0.6601  0.6937
  178MOL    H5932273   5.758   5.658   0.032  0.5397  0.3734 -1.1477
  178MOL    H6032274   5.740   5.831   0.002 -1.1963  0.4653  1.7062
  178MOL    H6132275   5.954   5.885   0.092 -2.2014  0.4694  2.9101
  178MOL    H6232276   6.021   5.720   0.249  3.9097 -1.0972  1.2872
  178MOL    H6332277   6.005   5.598   0.113  0.2152 -0.4848 -0.1026
  178MOL    H6432278   6.139   5.712   0.120 -0.3108 -0.6909 -0.8695
  178MOL    C6532279   5.971   5.789   7.604  0.5690  0.1070  0.5076
  178MOL    C6632280   5.932   5.683   7.495  0.4688 -0.2412  0.1778
  178MOL    C6732281   5.965   5.738   7.354 -0.6417  0.7990  0.6190
  178MOL    H6832282   5.950   5.888   7.565  1.4608 -0.1887 -0.7534
  178MOL    H6932283   6.080   5.793   7.605  0.6024 -0.4567 -0.2653
  178MOL    H7032284   5.823   5.686   7.500  0.4782  0.3037  0.0348
  178MOL    H7132285   5.909   5.677   7.283 -0.6951  0.1532  1.2044
  178MOL    H7232286   5.937   5.841   7.333  2.4633  1.4820 -0.4640
  178MOL    H7332287   6.073   5.748   7.342 -0.8107  2.2100  0.1571
  178MOL    C7432288   5.982   5.536   7.514 -0.1734  1.2287 -0.4432
  178MOL    C7532289   5.922   5.427   7.420  0.1064 -0.2599  0.6581
  178MOL    C7632290   5.992   5.291   7.421 -0.1958 -0.3862 -0.7085
  178MOL    H7732291   6.091   5.527   7.515 -0.4276 -2.5799 -0.3340
  178MOL    H7832292   5.950   5.509   7.614  1.1687 -0.3551 -0.4146
  178MOL    H7932293   5.932   5.452   7.315 -0.6259 -0.0056  0.6435
  178MOL    H8032294   6.001   5.243   7.519 -0.1987 -1.0484 -1.0353
  178MOL    H8132295   5.955   5.227   7.341  1.1600 -0.6676 -1.1094
  178MOL    H8232296   6.095   5.313   7.393  0.2517 -1.1411  0.3302
  178MOL    C8332297   5.776   5.407   7.449 -0.1552 -0.1382  0.0700
  178MOL    C8432298   5.693   5.292   7.387 -0.0987  0.3326 -0.6010
  178MOL    C8532299   5.575   5.265   7.476 -0.1702  0.3866 -0.3847
  178MOL    H8632300   5.774   5.379   7.554  1.9250  1.3376  0.5328
  178MOL    H8732301   5.727   5.503   7.436  1.4159  0.7492  0.5456
  178MOL    H8832302   5.751   5.200   7.386 -2.3109 -1.0898  0.0766
  178MOL    H8932303   5.516   5.352   7.504  0.3491  0.8496 -0.7236
  178MOL    H9032304   5.506   5.192   7.434  1.9123 -1.2497 -1.0192
  178MOL    H9132305   5.609   5.218   7.569 -1.5035  2.2361  1.0727
  178MOL    C9232306   5.641   5.326   7.245 -0.0163 -0.3035 -0.2607
  178MOL    C9332307   5.564   5.220   7.163  0.3437  1.1564  0.3061
  178MOL    C9432308   5.462   5.285   7.064  0.0547 -0.2281  0.0038
  178MOL    H9532309   5.574   5.412   7.249  0.6213  0.1872 -0.0640
  178MOL    H9632310   5.721   5.369   7.184 -0.8129 -1.9437 -2.5375
  178MOL    H9732311   5.491   5.163   7.221 -1.5585  1.0231 -2.1410
  178MOL    H9832312   5.380   5.347   7.101  0.0078 -0.0602 -0.3767
  178MOL    H9932313   5.515   5.359   7.004 -1.9040  1.6416  0.4870
  178MOL   H10032314   5.431   5.205   6.997 -1.2290 -0.6400  1.0575
  178MOL   C10132315   5.660   5.120   7.099  0.2467  0.5059  0.4773
  178MOL   C10232316   5.598   4.993   7.036 -0.2579  0.4440 -0.1849
  178MOL   C10332317   5.591   4.996   6.879  0.2912 -0.0406  1.2955
  178MOL   H10432318   5.716   5.173   7.022  2.3188 -0.6635  1.1413
  178MOL   H10532319   5.733   5.098   7.178  0.6986  0.4619  0.0462
  178MOL   H10632320   5.494   4.979   7.065 -0.8703  1.7881 -1.7036
  178MOL   H10732321   5.514   4.927   6.844  1.0912 -0.6452  0.7119
  178MOL   H10832322   5.562   5.093   6.839  3.2472  0.0782 -0.7058
  178MOL   H10932323   5.674   4.956   6.821 -0.1329  1.1415 -0.1772
  178MOL   C11032324   5.677   4.867   7.084  0.3923  0.5721 -0.4377
  178MOL   C11132325   5.676   4.825   7.237  0.9673  0.3798  1.3888
  178MOL   C11232326   5.545   4.755   7.267  0.6317  0.2696 -0.9314
  178MOL   H11332327   5.643   4.780   7.027 -2.8022  1.2871  0.3115
  178MOL   H11432328   5.778   4.885   7.046  0.5894 -1.8981 -1.1596
  178MOL   H11532329   5.663   4.915   7.297 -1.2919  1.2661 -0.3534
  178MOL   H11632330   5.538   4.734   7.374  0.2479  0.8652 -0.8362
  178MOL   H11732331   5.456   4.813   7.242  1.2405  2.8577  2.7027
  178MOL   H11832332   5.544   4.656   7.220  0.8808 -0.3956  0.4445
  178MOL   C11932333   5.799   4.736   7.273  0.5296 -0.1233 -0.8879
  178MOL   C12032334   5.935   4.810   7.270 -0.5546 -0.6935 -0.7576
  178MOL   C12132335   5.946   4.939   7.360  0.2151  0.1684 -0.1108
  178MOL   H12232336   5.792   4.710   7.379 -0.0074 -0.3465 -0.9737
  178MOL   H12332337   5.791   4.640   7.221 -0.7471  0.2420 -1.3843
  178MOL   H12432338   5.954   4.834   7.165  0.1111 -1.6530 -0.8696
  178MOL   H12532339   6.047   4.977   7.350  0.8863 -1.8429 -1.4393
  178MOL   H12632340   5.880   5.020   7.329 -0.7607 -0.7861 -0.5868
  178MOL   H12732341   5.941   4.926   7.468 -1.7538  0.0062 -0.1991
  178MOL   C12832342   6.048   4.713   7.316  0.1548  0.4240 -0.1113
  178MOL   C12932343   6.071   4.581   7.234  0.0082 -0.5604 -0.0611
  178MOL   C13032344   6.123   4.597   7.096  0.2848 -0.3445  0.6448
  178MOL   H13132345   6.140   4.772   7.316  0.7249 -0.3684 -3.2791
  178MOL   H13232346   6.028   4.684   7.419 -2.6815 -1.8547 -1.2489
  178MOL   H13332347   5.984   4.515   7.232  0.9665 -1.8223 -2.1199
  178MOL   H13432348   6.140   4.497   7.054  0.7041 -0.4188  0.9819
  178MOL   H13532349   6.062   4.648   7.022  0.6698 -0.2736  0.3693
  178MOL   H13632350   6.217   4.652   7.104  1.2903 -1.7572 -0.9792
  178MOL   C13732351   6.177   4.498   7.315 -0.1020  0.3713 -0.3545
  178MOL   C13832352   6.141   4.350   7.336 -0.4605  0.4682 -1.0737
  178MOL   C13932353   6.142   4.261   7.213 -0.0538 -0.2192 -0.5223
  178MOL   H14032354   6.276   4.495   7.269 -0.1524 -1.0628 -0.4029
  178MOL   H14132355   6.199   4.546   7.410 -2.2567 -0.2368  0.4817
  178MOL   H14232356   6.039   4.351   7.375 -0.3277 -0.3660 -0.6883
  178MOL   H14332357   6.242   4.228   7.185 -0.1059  1.4961 -2.9314
  178MOL   H14432358   6.086   4.170   7.233 -1.1993  0.6332  0.2279
  178MOL   H14532359   6.095   4.304   7.125 -1.4005 -0.5593  0.0293
  178MOL   C14632360   6.216   4.295   7.451  0.3547  0.2747 -0.3622
  178MOL   C14732361   6.178   4.151   7.504 -0.1199  0.2965  0.2237
  178MOL   C14832362   6.282   4.116   7.615 -1.1063  0.1842 -0.4671
  178MOL   H14932363   6.323   4.307   7.432 -0.0542  1.1754 -2.2465
  178MOL   H15032364   6.207   4.370   7.529  2.5738  0.4801 -0.2557
  178MOL   H15132365   6.176   4.082   7.420  0.3327 -2.5971  2.4991
  178MOL   H15232366   6.384   4.115   7.578 -1.1131 -2.6881 -0.5137
  178MOL   H15332367   6.284   4.172   0.011  1.7435  1.5696 -1.3043
  178MOL   H15432368   6.270   4.012   7.645  2.0310 -0.7581 -2.2861
  178MOL   C15532369   6.033   4.169   7.569  0.1669 -0.1041 -0.0940
  178MOL   C15632370   5.965   4.048   7.626 -0.6646 -0.3955 -0.4060
  178MOL   C15732371   5.897   4.079   0.059 -0.1090 -0.0905 -0.1766
  178MOL   H15832372   6.035   4.249   7.642 -2.2530  0.2108 -0.3341
  178MOL   H15932373   5.965   4.211   7.495 -0.5567 -0.6285  0.2664
  178MOL   H16032374   6.033   3.968   7.657  1.2385  2.1252  2.1598
  178MOL   H16132375   5.844   3.990   0.091  0.7828 -0.2250  0.9544
  178MOL   H16232376   5.978   4.107   0.127  1.6547 -0.5615 -2.0322
  178MOL   H16332377   5.820   4.156   0.057  0.8347  0.8803  0.1198
  178MOL   C16432378   5.855   3.985   7.531  0.2780  0.0321  0.5919
  178MOL   C16532379   5.924   3.937   7.395 -0.9215  0.5275 -1.3194
  178MOL   C16632380   6.019   3.815   7.405  0.0549  0.3057 -0.2708
  178MOL   H16732381   5.822   3.893   7.580 -2.2442  0.7345  0.2709
  178MOL   H16832382   5.768   4.042   7.500  0.4733 -1.0499 -2.1200
  178MOL   H16932383   5.986   4.015   7.348 -0.1679 -0.1428 -1.4576
  178MOL   H17032384   6.060   3.797   7.306 -0.9580  0.2377 -0.6801
  178MOL   H17132385   6.110   3.835   7.462 -0.6445  0.8256  0.6997
  178MOL   H17232386   5.969   3.732   7.455 -1.1671  2.0943  1.5547
  178MOL   C17332387   5.817   3.894   7.295 -0.5718 -0.6535 -0.6492
  178MOL   C17432388   5.730   3.770   7.322  0.2087  0.7411 -0.3867
  178MOL   C17532389   5.637   3.743   7.201 -0.2623  0.2297  0.0639
  178MOL   H17632390   5.750   3.978   7.275 -0.9576 -1.1093 -1.2890
  178MOL   H17732391   5.872   3.880   7.202 -0.7657 -1.3621 -0.6551
  178MOL   H17832392   5.671   3.787   7.411  0.0496 -3.1095  0.3404
  178MOL   H17932393   5.690   3.685   7.126 -0.5450 -0.9498  0.7739
  178MOL   H18032394   5.549   3.688   7.231  2.0990 -2.7496  1.7885
  178MOL   H18132395   5.597   3.827   7.144 -0.1063  1.2912  1.4866
  178MOL   H18232396   5.785   3.679   7.345 -1.3214  0.1954  1.1874
  179MOL     C132397   1.661   6.714   7.283 -0.1247 -0.8870 -0.5554
  179MOL     C232398   1.780   6.696   7.193 -0.1187 -0.4809  0.8031
  179MOL     C332399   1.738   6.631   7.063 -0.9147  0.0560 -0.1401
  179MOL     H432400   1.663   6.760   7.382  0.2024  0.1334 -1.0303
  179MOL     H532401   1.612   6.616   7.293 -0.5014 -0.5399  1.2967
  179MOL     H632402   1.851   6.625   7.236  1.5081 -0.5033 -1.7989
  179MOL     H732403   1.696   6.713   7.006  0.3639  0.6924 -0.1918
  179MOL     H832404   1.824   6.598   7.005 -1.0453  0.9677 -0.8620
  179MOL     H932405   1.661   6.555   7.081  0.5157 -1.2428  0.6583
  179MOL    H1032406   1.590   6.779   7.233  0.0988  0.0427  0.3119
  179MOL    C1132407   1.864   6.822   7.167 -0.5448 -0.3863 -0.0664
  179MOL    C1232408   2.006   6.808   7.109  0.0856 -0.2653  0.3127
  179MOL    C1332409   2.044   6.948   7.053  0.2608 -0.3776 -0.2546
  179MOL    H1432410   1.800   6.890   7.110  0.7568  0.8968 -0.0273
  179MOL    H1532411   1.883   6.859   7.268 -1.5220  2.8978 -1.0107
  179MOL    H1632412   1.996   6.742   7.023 -0.7485  1.3406 -0.8501
  179MOL    H1732413   2.034   7.020   7.133  2.1511  0.1804 -0.4873
  179MOL    H1832414   2.147   6.960   7.017  1.2273  0.1337  2.6065
  179MOL    H1932415   1.967   6.980   6.982 -1.2944 -0.1308  1.5160
  179MOL    C2032416   2.111   6.756   7.203  0.2587  0.0042 -0.1000
  179MOL    C2132417   2.215   6.655   7.130  0.1046  0.8692 -0.5434
  179MOL    C2232418   2.146   6.528   7.068  0.2617 -0.1534  0.7617
  179MOL    H2332419   2.165   6.839   7.247  0.0878 -1.5145  3.0844
  179MOL    H2432420   2.064   6.710   7.290 -0.2181 -0.0499 -0.3788
  179MOL    H2532421   2.282   6.625   7.210 -0.8037 -1.5584 -0.6356
  179MOL    H2632422   2.057   6.502   7.125 -0.1977  0.3147  0.2720
  179MOL    H2732423   2.119   6.533   6.962  0.6964 -1.5259  0.5776
  179MOL    H2832424   2.197   6.432   7.076 -0.2933 -0.5336 -0.1254
  179MOL    C2932425   2.308   6.729   7.024 -0.1663  0.4652 -0.1086
  179MOL    C3032426   2.410   6.653   6.943  0.0994 -0.0495 -0.0385
  179MOL    C3132427   2.358   6.613   6.809  0.0827  0.7470  0.0903
  179MOL    H3232428   2.262   6.795   6.951  3.5529  2.4484 -0.7847
  179MOL    H3332429   2.352   6.806   7.088  0.5851  1.1442 -1.4313
  179MOL    H3432430   2.430   6.565   7.004 -0.5772  0.2116  0.5736
  179MOL    H3532431   2.369   6.691   6.734  2.0380  0.0462 -0.3876
  179MOL    H3632432   2.430   6.542   6.769 -1.5261  0.2487 -2.0246
  179MOL    H3732433   2.269   6.550   6.807  1.3332 -1.0254 -1.1180
  179MOL    C3832434   2.548   6.728   6.929 -0.0681  0.1351  0.1278
  179MOL    C3932435   2.641   6.759   7.047  0.6124 -0.0405  0.6954
  179MOL    C4032436   2.675   6.628   7.118  0.2286 -0.4553 -0.1843
  179MOL    H4132437   2.602   6.673   6.852  0.3211  0.6356  0.0461
  179MOL    H4232438   2.518   6.819   6.878  0.7218  0.6241  0.5360
  179MOL    H4332439   2.582   6.819   7.117  1.6908 -0.0655  1.6488
  179MOL    H4432440   2.589   6.590   7.173  0.1925 -0.0340  0.0530
  179MOL    H4532441   2.693   6.548   7.046  1.3121 -0.2228 -0.1941
  179MOL    H4632442   2.756   6.640   7.190 -0.6883  0.5987  0.6757
  179MOL    C4732443   2.770   6.837   7.011 -0.5535  0.1898 -0.1035
  179MOL    C4832444   2.741   6.982   6.970 -0.0704 -0.5207 -0.3507
  179MOL    C4932445   2.687   7.061   7.097 -0.3467  0.6973  0.0366
  179MOL    H5032446   2.838   6.848   7.095  0.1536 -0.0661 -0.6382
  179MOL    H5132447   2.825   6.792   6.928 -1.1210 -0.7230  0.0046
  179MOL    H5232448   2.669   6.990   6.889  0.2118  0.0501 -0.5464
  179MOL    H5332449   2.767   7.057   7.171  0.1133  0.1843 -0.4827
  179MOL    H5432450   2.671   7.164   7.066 -1.1667  0.2903 -0.9276
  179MOL    H5532451   2.594   7.028   7.142 -0.2965 -0.4861 -0.7173
  179MOL    C5632452   2.873   7.040   6.916 -0.3501 -0.7176  0.8937
  179MOL    C5732453   2.897   7.041   6.763  0.1719  0.3844  0.1134
  179MOL    C5832454   2.895   6.904   6.696 -0.6768  0.1775  0.3208
  179MOL    H5932455   2.879   7.147   6.939  2.3280 -0.8786  1.0469
  179MOL    H6032456   2.962   7.012   6.972 -0.1713 -3.1299 -0.5386
  179MOL    H6132457   2.998   7.076   6.738 -0.3339  1.2297 -0.8299
  179MOL    H6232458   2.967   6.841   6.748  0.5079  0.1099 -1.3533
  179MOL    H6332459   2.799   6.853   6.700  0.0530 -1.1369  1.1795
  179MOL    H6432460   2.924   6.918   6.592 -1.4324  1.7569  0.3093
  179MOL    C6532461   2.807   7.140   6.687  0.8322  0.2613 -0.3877
  179MOL    C6632462   2.781   7.281   6.746  0.3480 -0.0252 -0.3945
  179MOL    C6732463   2.918   7.353   6.757  0.1445 -0.1052 -0.0966
  179MOL    H6832464   2.832   7.139   6.581  1.9633  1.6711 -0.1453
  179MOL    H6932465   2.707   7.096   6.687  0.8705  0.1620  0.6069
  179MOL    H7032466   2.730   7.276   6.843 -0.6076  1.1274 -0.8284
  179MOL    H7132467   2.916   7.454   6.796 -4.0016 -0.9992  2.3404
  179MOL    H7232468   2.983   7.295   6.823  0.8310  0.7936  0.0176
  179MOL    H7332469   2.965   7.361   6.659 -1.3302  1.1144 -0.7266
  179MOL    C7432470   2.681   7.357   6.650  0.3967  0.0597 -0.2604
  179MOL    C7532471   2.629   7.489   6.700  0.3693 -0.0350  0.1058
  179MOL    C7632472   2.622   7.583   6.572  0.1312  0.1451  0.3148
  179MOL    H7732473   2.722   7.377   6.551 -0.3400  2.6154 -0.0693
  179MOL    H7832474   2.591   7.297   6.632  0.2514 -0.1837  1.1964
  179MOL    H7932475   2.695   7.547   6.764 -1.0375  1.9662 -0.1911
  179MOL    H8032476   2.548   7.537   6.507  0.9490 -0.5800 -0.1120
  179MOL    H8132477   2.580   7.682   6.593 -1.3403 -0.6056  0.9518
  179MOL    H8232478   2.717   7.590   6.518 -1.9178  1.4860 -3.3053
  179MOL    C8332479   2.494   7.482   6.771  0.0210 -0.4752  0.6991
  179MOL    C8432480   2.482   7.391   6.898 -0.6840 -0.2664  0.7543
  179MOL    C8532481   2.566   7.438   7.012 -0.3105  0.3441  0.7137
  179MOL    H8632482   2.468   7.585   6.796 -0.9382 -0.6770  0.5587
  179MOL    H8732483   2.411   7.447   6.710  0.3743 -1.2500  0.6578
  179MOL    H8832484   2.497   7.286   6.873  1.7585  0.5862 -1.6291
  179MOL    H8932485   2.546   7.540   7.043 -0.3903 -0.3279  2.9466
  179MOL    H9032486   2.539   7.375   7.096 -1.0696 -1.6199 -0.9638
  179MOL    H9132487   2.668   7.421   6.977 -0.2686 -1.4750  1.6577
  179MOL    C9232488   2.337   7.389   6.947 -0.9680  0.4664  0.3952
  179MOL    C9332489   2.251   7.288   6.868 -0.8877  0.1821 -0.0072
  179MOL    C9432490   2.285   7.142   6.883  0.0408  0.5046  0.1319
  179MOL    H9532491   2.343   7.363   7.053 -1.2104  0.4935  0.4151
  179MOL    H9632492   2.291   7.487   6.949 -4.1573 -0.9918  1.3875
  179MOL    H9732493   2.265   7.302   6.761  2.6804 -0.5559  0.3308
  179MOL    H9832494   2.373   7.104   6.831 -0.5002  0.7429 -0.9624
  179MOL    H9932495   2.300   7.132   6.991  0.1369 -0.0216  0.0712
  179MOL   H10032496   2.195   7.089   6.851  1.5814 -1.2336 -1.5073
  179MOL   C10132497   2.102   7.306   6.915 -0.1512 -0.1557  0.2838
  179MOL   C10232498   2.039   7.457   6.884  0.0561  1.2155  0.0915
  179MOL   C10332499   2.026   7.461   6.727 -0.5941  0.0294 -0.5025
  179MOL   H10432500   2.043   7.229   6.865 -0.4050  0.1221  0.1573
  179MOL   H10532501   2.098   7.290   7.022  0.4328  2.0658  0.6687
  179MOL   H10632502   2.097   7.545   6.913 -0.4353  1.1047  1.4471
  179MOL   H10732503   1.970   7.383   6.678 -0.9874  1.3902 -2.2709
  179MOL   H10832504   1.975   7.555   6.704 -1.6736 -0.7274 -1.1995
  179MOL   H10932505   2.126   7.465   6.685  0.4439 -1.9053  1.7128
  179MOL   C11032506   1.901   7.470   6.945 -0.3217 -0.3269  0.1589
  179MOL   C11132507   1.893   7.505   7.101 -0.3584  0.7270  0.4006
  179MOL   C11232508   1.928   7.654   7.115  0.4264 -0.1604 -0.0903
  179MOL   H11332509   1.845   7.540   6.882  0.3755  0.5710  0.5232
  179MOL   H11432510   1.867   7.367   6.941  0.3145 -0.5095 -0.6592
  179MOL   H11532511   1.974   7.447   7.146 -1.0129 -0.4378  0.1139
  179MOL   H11632512   1.938   7.688   7.219  0.3640  0.4003 -0.2646
  179MOL   H11732513   2.013   7.678   7.052  0.2913 -1.3882 -0.7472
  179MOL   H11832514   1.847   0.016   7.073 -0.3424 -1.5198 -0.5304
  179MOL   C11932515   1.754   7.468   7.158  0.4785 -0.0752 -0.1834
  179MOL   C12032516   1.709   7.320   7.167 -0.1825 -0.2752  0.0815
  179MOL   C12132517   1.813   7.236   7.246  0.0626 -0.0523  0.3382
  179MOL   H12232518   1.749   7.504   7.260  1.5498 -0.9711  0.1875
  179MOL   H12332519   1.674   7.523   7.109 -1.2073 -0.3127  2.2332
  179MOL   H12432520   1.696   7.271   7.070 -2.4943  1.0990 -0.3396
  179MOL   H12532521   1.865   7.300   7.317  1.3135  0.4238 -0.9951
  179MOL   H12632522   1.761   7.163   7.308 -2.2282  0.6687 -0.6550
  179MOL   H12732523   1.900   7.200   7.192 -0.2106 -2.5796  1.5290
  179MOL   C12832524   1.566   7.310   7.229  0.8770  0.2717  0.4772
  179MOL   C12932525   1.482   7.186   7.175  0.0999 -0.3913 -0.3490
  179MOL   C13032526   1.554   7.056   7.169 -0.0061  0.3313  0.1598
  179MOL   H13132527   1.562   7.313   7.338  1.9136  0.1956  0.5203
  179MOL   H13232528   1.516   7.401   7.195  2.9539  0.7680 -1.3793
  179MOL   H13332529   1.457   7.200   7.069  0.2151  0.6676 -0.2376
  179MOL   H13432530   1.597   7.041   7.268  0.2020  0.1077  0.0361
  179MOL   H13532531   1.481   6.983   7.134  2.0573 -0.9991 -1.5123
  179MOL   H13632532   1.641   7.055   7.103  0.0538  1.4799  0.2132
  179MOL   C13732533   1.348   7.182   7.249  0.6346 -0.0424 -0.3151
  179MOL   C13832534   1.246   7.297   7.224 -0.5297 -0.7144  0.2735
  179MOL   C13932535   1.199   7.320   7.080  0.3085  0.3011  1.2444
  179MOL   H14032536   1.291   7.090   7.239  0.0648  0.1550  1.0721
  179MOL   H14132537   1.379   7.182   7.353 -0.8181 -0.2912  0.1272
  179MOL   H14232538   1.300   7.389   7.244  1.1050 -1.2240 -1.5792
  179MOL   H14332539   1.172   7.219   7.048  1.6558  0.7212 -1.3806
  179MOL   H14432540   1.115   7.388   7.067  0.0703 -0.1723  0.2178
  179MOL   H14532541   1.282   7.356   7.020  0.4331 -1.7519  0.1294
  179MOL   C14632542   1.122   7.275   7.307  0.3413  0.0982 -0.2658
  179MOL   C14732543   1.013   7.384   7.319 -0.8226 -0.0346  0.3659
  179MOL   C14832544   0.889   7.342   7.394  0.4128  0.4172 -0.3311
  179MOL   H14932545   1.071   7.183   7.281  2.6279 -0.7880 -1.7478
  179MOL   H15032546   1.157   7.257   7.409 -0.1342  0.8467  0.0361
  179MOL   H15132547   0.978   7.392   7.215 -1.9978 -1.2078  0.6539
  179MOL   H15232548   0.864   7.237   7.379 -2.1146  0.9194  0.0443
  179MOL   H15332549   0.912   7.359   7.499  1.3221 -0.9228 -0.3004
  179MOL   H15432550   0.793   7.382   7.362 -0.3419 -0.5374  0.6982
  179MOL   C15532551   1.067   7.515   7.384  0.4889  0.0753 -0.1596
  179MOL   C15632552   0.965   7.627   7.397 -0.4623  0.2435 -0.4382
  179MOL   C15732553   1.026   0.031   7.502 -0.1909 -0.9213 -0.0420
  179MOL   H15832554   1.088   7.479   7.485  1.5040  1.9541  0.3194
  179MOL   H15932555   1.169   7.539   7.353  0.5397 -0.2188 -0.2186
  179MOL   H16032556   0.875   7.588   7.446 -0.6197  1.3061  0.1445
  179MOL   H16132557   0.959   0.113   7.527  1.1447  0.0902  0.2531
  179MOL   H16232558   1.050   7.684   7.598  1.9671 -1.9771 -1.0298
  179MOL   H16332559   1.114   0.078   7.459  0.0389 -1.6363 -0.3617
  179MOL   C16432560   0.931   7.680   7.253  0.2678 -0.1388 -0.4316
  179MOL   C16532561   0.829   0.101   7.238  0.2537 -0.6134 -0.5726
  179MOL   C16632562   0.774   0.118   7.096  0.0330  0.4039 -0.2624
  179MOL   H16732563   1.021   0.010   7.198 -0.5070  1.1211 -1.0948
  179MOL   H16832564   0.883   7.596   7.203  2.9459 -1.2631 -1.1708
  179MOL   H16932565   0.874   0.197   7.263 -0.7814 -0.2723  0.0086
  179MOL   H17032566   0.729   0.214   7.071  1.9600  1.8348  1.5775
  179MOL   H17132567   0.861   0.121   7.030  1.1266 -0.1805  1.1070
  179MOL   H17232568   0.720   0.038   7.047  0.0788 -0.2452  0.7319
  179MOL   C17332569   0.709   0.092   7.341  0.1060 -0.0047  0.5200
  179MOL   C17432570   0.612   0.210   7.346  0.2681  0.1081  0.0373
  179MOL   C17532571   0.497   0.204   7.453 -0.1673 -0.3239  0.7437
  179MOL   H17632572   0.660   7.696   7.314 -0.5273  0.0624  1.4050
  179MOL   H17732573   0.760   0.079   7.437  0.1382 -0.0333  0.4988
  179MOL   H17832574   0.576   0.232   7.245  1.5224 -1.7824 -0.8354
  179MOL   H17932575   0.531   0.195   7.556  1.0041  2.3189  0.6434
  179MOL   H18032576   0.432   0.291   7.444 -0.1213 -0.4804 -1.2701
  179MOL   H18132577   0.427   0.125   7.427  0.6046 -0.9400  0.5197
  179MOL   H18232578   0.662   0.301   7.379  1.6869 -0.4565 -0.5309
  180MOL     C132579   6.860   2.383   5.039  0.2652  0.0872 -0.3269
  180MOL     C232580   6.874   2.479   4.921 -0.4035 -0.1597  0.1874
  180MOL     C332581   6.889   2.621   4.980  0.0106  0.5909  0.0445
  180MOL     H432582   6.921   2.399   5.128 -0.9689 -0.3774  0.6187
  180MOL     H532583   6.866   2.277   5.014  1.8858  0.9102 -3.8317
  180MOL     H632584   6.786   2.481   4.856  0.6257  0.1624 -1.2143
  180MOL     H732585   6.887   2.696   4.900  1.1000  0.1454 -0.4211
  180MOL     H832586   6.813   2.641   5.055 -0.3944 -1.6783  0.2657
  180MOL     H932587   6.976   2.624   5.045 -1.6555  2.8213  2.2510
  180MOL    H1032588   6.760   2.402   5.079  0.3943  0.7425 -0.3052
  180MOL    C1132589   6.991   2.438   4.834  0.6430 -0.1379  0.3138
  180MOL    C1232590   6.976   2.306   4.747  0.3376 -0.3280 -0.7137
  180MOL    C1332591   6.884   2.324   4.626 -0.4270 -0.5128 -0.3500
  180MOL    H1432592   7.006   2.517   4.760 -1.6243 -0.7747 -0.8726
  180MOL    H1532593   7.078   2.429   4.899 -0.0847 -2.2005  1.0521
  180MOL    H1632594   6.937   2.225   4.810  0.7645 -0.0144 -0.0385
  180MOL    H1732595   6.782   2.355   4.647 -0.4698 -1.3819  0.7173
  180MOL    H1832596   6.914   2.404   4.557 -1.7595  1.3112  1.1321
  180MOL    H1932597   6.885   2.233   4.566 -1.3133 -1.7136  1.4473
  180MOL    C2032598   7.114   2.253   4.695 -0.3571  0.4422  0.8625
  180MOL    C2132599   7.216   2.201   4.791  0.0401  0.9979 -0.0407
  180MOL    C2232600   7.169   2.063   4.854 -0.6126 -0.0744 -0.1547
  180MOL    H2332601   7.095   2.178   4.618 -0.1644  0.0664  1.1813
  180MOL    H2432602   7.151   2.347   4.654 -1.2437 -0.8604 -3.1645
  180MOL    H2532603   7.220   2.270   4.875 -0.2671  0.1876  0.6486
  180MOL    H2632604   7.245   2.017   4.917  1.6071 -1.2524 -3.5593
  180MOL    H2732605   7.074   2.067   4.907 -1.0470  1.9358 -1.0335
  180MOL    H2832606   7.161   1.993   4.771  0.6378 -0.7456  0.2818
  180MOL    C2932607   7.363   2.196   4.741 -0.1304 -0.4615  0.4595
  180MOL    C3032608   7.420   2.341   4.709  0.4032  0.3999  0.3147
  180MOL    C3132609   7.388   2.447   4.816 -1.2714  0.4710  0.4013
  180MOL    H3232610   7.432   2.143   4.806  0.5256 -0.8225 -0.5258
  180MOL    H3332611   7.380   2.131   4.656  0.7120 -0.6184  0.7489
  180MOL    H3432612   7.371   2.381   4.621 -2.9299 -0.6001  1.6321
  180MOL    H3532613   7.283   2.474   4.816 -1.2737  0.4620  0.5288
  180MOL    H3632614   7.439   2.430   4.911  1.5423 -0.3789 -1.2115
  180MOL    H3732615   7.429   2.545   4.796  1.2623 -1.3082 -3.6135
  180MOL    C3832616   7.575   2.346   4.681  0.2918  0.7845  0.1349
  180MOL    C3932617   7.616   2.288   4.552  0.1151 -0.3456 -0.3519
  180MOL    C4032618   7.612   2.399   4.450  0.0563  0.1570 -0.1059
  180MOL    H4132619   7.610   2.447   4.700 -0.7038  1.0443  0.6429
  180MOL    H4232620   7.629   2.291   4.758 -1.1230 -0.5195  0.2147
  180MOL    H4332621   7.538   2.221   4.517  0.7185 -2.4301  2.1511
  180MOL    H4432622   7.651   2.362   4.355 -1.2288 -0.2190 -0.5023
  180MOL    H4532623   7.511   2.433   4.424  0.0617 -0.5690 -1.1095
  180MOL    H4632624   7.675   2.484   4.475  0.4915  0.3040 -1.6133
  180MOL    C4732625   0.051   2.207   4.550 -0.8783  0.0850 -0.6013
  180MOL    C4832626   0.038   2.082   4.637 -0.8646 -0.0416 -0.0865
  180MOL    C4932627   7.651   1.966   4.571  0.3429 -0.0376  0.2078
  180MOL    H5032628   0.088   2.177   4.451 -2.0581 -1.5384 -0.5836
  180MOL    H5132629   0.123   2.271   4.600 -1.0114 -0.6298  0.5331
  180MOL    H5232630   7.696   2.101   4.737 -1.2294 -0.8522 -0.0752
  180MOL    H5332631   7.630   1.896   4.652  1.3399 -1.1272 -0.4549
  180MOL    H5432632   7.551   1.992   4.538 -0.1839 -0.6101  1.3230
  180MOL    H5532633   0.016   1.914   4.498 -2.0606 -1.6191 -0.8079
  180MOL    C5632634   0.181   2.029   4.676  0.0674 -0.1689  0.8600
  180MOL    C5732635   0.243   2.095   4.800  0.4536 -0.1346 -0.1864
  180MOL    C5832636   0.166   2.045   4.929  0.1083 -0.1525 -0.8085
  180MOL    H5932637   0.179   1.921   4.693  2.2175 -0.4518 -0.5425
  180MOL    H6032638   0.249   2.027   4.591  0.0241 -1.9034  0.8477
  180MOL    H6132639   0.230   2.203   4.787 -0.7587 -0.4013 -1.2187
  180MOL    H6232640   0.216   2.063   5.025  0.7357 -0.2173 -1.1239
  180MOL    H6332641   0.071   2.097   4.933  0.3472  0.2654 -0.4088
  180MOL    H6432642   0.155   1.937   4.922  0.8101 -0.2830 -0.1077
  180MOL    C6532643   0.390   2.070   4.811 -0.3088 -0.3334 -0.2414
  180MOL    C6632644   0.452   2.140   4.931 -0.3223  0.3960  0.5047
  180MOL    C6732645   0.602   2.096   4.941 -0.2543 -0.4466 -0.2461
  180MOL    H6832646   0.405   1.965   4.835  0.4928  0.0324  0.8849
  180MOL    H6932647   0.442   2.086   4.716  1.7845 -0.6617  0.8192
  180MOL    H7032648   0.416   2.092   5.022 -1.0500  1.4789  0.7876
  180MOL    H7132649   0.650   2.121   5.036 -0.6357 -2.2385  0.4465
  180MOL    H7232650   0.613   1.987   4.936  0.5167 -0.3459 -0.8952
  180MOL    H7332651   0.667   2.131   4.862  0.1206  0.4212  0.4444
  180MOL    C7432652   0.428   2.293   4.940 -0.2752 -0.1078  0.3185
  180MOL    C7532653   0.488   2.372   5.059 -0.1716 -0.1409 -0.4434
  180MOL    C7632654   0.615   2.445   5.010 -0.2280 -0.0037  0.8288
  180MOL    H7732655   0.455   2.341   4.846  1.4434  1.9515  1.8227
  180MOL    H7832656   0.320   2.311   4.943  0.0040  1.4677  1.2017
  180MOL    H7932657   0.511   2.300   5.137  0.0992  0.6835  0.2558
  180MOL    H8032658   0.685   2.368   4.979  2.6673  1.7703  2.7968
  180MOL    H8132659   0.590   2.503   4.921  1.7976  0.1944  0.3788
  180MOL    H8232660   0.664   2.515   5.078  1.3071 -1.3428  1.1282
  180MOL    C8332661   0.384   2.477   5.116  0.4563 -0.2516 -0.2323
  180MOL    C8432662   0.261   2.412   5.180  0.1714 -0.2790  0.0359
  180MOL    C8532663   0.292   2.327   5.305  0.2624 -0.0020  0.0157
  180MOL    H8632664   0.431   2.548   5.184 -1.6724 -1.2133  2.2835
  180MOL    H8732665   0.361   2.538   5.028  0.1665 -2.6400 -1.8791
  180MOL    H8832666   0.203   2.342   5.120  0.3805 -0.7757  0.4041
  180MOL    H8932667   0.373   2.377   5.358  1.0164 -0.7238 -0.4292
  180MOL    H9032668   0.204   2.328   5.369 -0.7871  1.2598 -1.4205
  180MOL    H9132669   0.317   2.224   5.277  1.0929  0.0842  0.4366
  180MOL    C9232670   0.154   2.520   5.203 -0.4269  0.6159  0.0419
  180MOL    C9332671   0.084   2.582   5.078  0.1439  0.4667 -0.5570
  180MOL    C9432672   0.031   2.468   4.989  0.1854  0.7786  0.0063
  180MOL    H9532673   0.073   2.482   5.265 -1.4954  0.1092 -1.6335
  180MOL    H9632674   0.191   2.597   5.271  1.4405 -0.3238  0.1366
  180MOL    H9732675   0.155   2.650   5.030  1.3663 -0.8003 -0.5785
  180MOL    H9832676   7.671   2.394   5.044  0.5117  2.2508  2.4092
  180MOL    H9932677   7.678   2.518   4.906  2.8117  0.0947 -2.0811
  180MOL   H10032678   0.119   2.430   4.937  0.4171  1.7601 -0.3248
  180MOL   C10132679   7.657   2.667   5.121  0.0827  0.2066  0.2022
  180MOL   C10232680   7.692   2.785   5.213 -0.1494  0.5033 -0.2010
  180MOL   C10332681   0.074   2.887   5.140 -0.0957 -0.2776  0.0720
  180MOL   H10432682   7.610   2.704   5.030  2.1009  3.6276  0.4252
  180MOL   H10532683   7.574   2.613   5.166 -0.6405  0.8313 -0.3628
  180MOL   H10632684   0.049   2.733   5.292  0.8375  1.6286 -0.1293
  180MOL   H10732685   0.161   2.852   5.083  1.4369  2.0330  0.9146
  180MOL   H10832686   0.017   2.945   5.068 -0.4867 -0.7875 -0.0360
  180MOL   H10932687   0.119   2.958   5.209 -0.3671 -0.4555  0.4353
  180MOL   C11032688   7.571   2.844   5.294 -0.7992 -0.1782 -0.8125
  180MOL   C11132689   7.616   2.930   5.412 -0.3022  0.1693 -0.2367
  180MOL   C11232690   7.494   3.011   5.470  0.2816 -0.0770 -0.1233
  180MOL   H11332691   7.517   2.904   5.221 -0.0339  1.5611  0.0234
  180MOL   H11432692   7.506   2.767   5.336  1.7856 -1.3967  1.1439
  180MOL   H11532693   7.685   3.007   5.379 -2.8911  1.6810 -2.3674
  180MOL   H11632694   7.416   2.958   5.523  1.1046 -2.0276 -0.8212
  180MOL   H11732695   7.534   3.082   5.543 -0.2232  0.7285 -0.6228
  180MOL   H11832696   7.456   3.070   5.386  0.3472  2.0533  1.2848
  180MOL   C11932697   7.682   2.850   5.528 -0.1814 -0.5929  0.2104
  180MOL   C12032698   0.138   2.874   5.542  0.6448  0.1950  0.2987
  180MOL   C12132699   0.151   2.990   5.645 -0.1257  0.1101  0.3416
  180MOL   H12232700   7.636   2.866   5.625  1.4488 -1.2150  1.1163
  180MOL   H12332701   7.660   2.745   5.509 -0.1865 -0.8765  1.7442
  180MOL   H12432702   0.176   2.907   5.445  1.7415 -3.2076 -0.4839
  180MOL   H12532703   0.255   3.023   5.648 -0.0295 -0.2173  0.6196
  180MOL   H12632704   0.103   3.080   5.608  0.7440 -0.2309 -1.6975
  180MOL   H12732705   0.114   2.968   5.745 -1.8640 -0.8309 -0.4975
  180MOL   C12832706   0.207   2.739   5.588  0.2580  0.2929 -0.1216
  180MOL   C12932707   0.358   2.740   5.587  0.9525 -0.1531 -0.0162
  180MOL   C13032708   0.416   2.643   5.690 -0.4649  0.2206  0.7931
  180MOL   H13132709   0.168   2.696   5.680  0.4248  2.3032  0.9276
  180MOL   H13232710   0.178   2.657   5.523 -1.1883  1.3289 -0.8023
  180MOL   H13332711   0.383   2.841   5.619 -0.7233  0.9090 -1.8788
  180MOL   H13432712   0.524   2.656   5.696 -0.1980 -0.3838 -2.1694
  180MOL   H13532713   0.366   2.658   5.786 -1.4732 -1.3878  0.5432
  180MOL   H13632714   0.399   2.540   5.658 -2.4690  0.6987  0.2450
  180MOL   C13732715   0.417   2.725   5.449  0.5630  0.0278 -0.1324
  180MOL   C13832716   0.533   2.837   5.409 -0.1875  1.1388  0.3312
  180MOL   C13932717   0.615   2.779   5.294 -0.1473  0.4549  0.4099
  180MOL   H14032718   0.452   2.622   5.435 -0.2314 -0.6189  2.4056
  180MOL   H14132719   0.340   2.727   5.372 -0.8506  1.9674  1.2986
  180MOL   H14232720   0.601   2.841   5.494  0.7333  0.9115 -0.3802
  180MOL   H14332721   0.558   2.779   5.201  1.2811 -1.2711 -0.5006
  180MOL   H14432722   0.706   2.833   5.267 -1.3252  1.1144 -2.3774
  180MOL   H14532723   0.652   2.680   5.318  0.3436  0.7455  0.8815
  180MOL   C14632724   0.473   2.972   5.370  0.0149  0.3609 -0.1879
  180MOL   C14732725   0.586   3.078   5.355  0.2286  0.1354  0.2098
  180MOL   C14832726   0.520   3.188   5.275  0.8285 -0.0482  0.1140
  180MOL   H14932727   0.418   2.972   5.276 -0.8428 -1.2352  0.2835
  180MOL   H15032728   0.412   3.003   5.454  0.9790 -1.1452  1.1042
  180MOL   H15132729   0.664   3.031   5.296 -0.1981  0.8659 -0.9627
  180MOL   H15232730   0.587   3.273   5.261  1.7371 -0.3136  2.6647
  180MOL   H15332731   0.496   3.139   5.180 -1.3480 -1.4038  1.3391
  180MOL   H15432732   0.422   3.213   5.315 -0.5538 -0.6473 -2.7904
  180MOL   C15532733   0.636   3.139   5.487 -0.2770  0.5050 -0.0734
  180MOL   C15632734   0.709   3.275   5.484  0.0436 -0.3985  0.6103
  180MOL   C15732735   0.740   3.308   5.630  0.3694  0.1967 -0.0331
  180MOL   H15832736   0.552   3.150   5.556  0.0853 -0.3066  0.5073
  180MOL   H15932737   0.700   3.068   5.539  2.3397  2.1226 -1.0291
  180MOL   H16032738   0.638   3.345   5.440  1.1404  0.0136 -0.5435
  180MOL   H16132739   0.798   3.399   5.638 -0.4870  0.9064 -1.6784
  180MOL   H16232740   0.643   3.312   5.679 -0.4390  0.5816 -1.6485
  180MOL   H16332741   0.788   3.231   5.691  1.9261  1.7609  0.7507
  180MOL   C16432742   0.846   3.274   5.406 -0.3554  0.0302  0.6995
  180MOL   C16532743   0.919   3.403   5.363 -0.8011  0.0213 -0.1105
  180MOL   C16632744   1.071   3.384   5.337  0.0053 -0.0494  0.1422
  180MOL   H16732745   0.927   3.225   5.460  1.6076  2.2133 -0.1937
  180MOL   H16832746   0.844   3.210   5.318  0.0604  0.5489  0.3107
  180MOL   H16932747   0.911   3.487   5.432 -3.0214 -0.1159 -0.1644
  180MOL   H17032748   1.089   3.294   5.279 -1.6202 -1.7493  2.1979
  180MOL   H17132749   1.130   3.471   5.306  2.3752 -1.4968  0.4555
  180MOL   H17232750   1.114   3.367   5.436 -3.0107  1.2735  1.7512
  180MOL   C17332751   0.853   3.467   5.244 -0.1230 -0.0014  0.1355
  180MOL   C17432752   0.733   3.559   5.266  0.3372 -0.3948 -0.0355
  180MOL   C17532753   0.689   3.602   5.130 -0.4155 -0.2124  0.6145
  180MOL   H17632754   0.928   3.528   5.193 -0.7418  0.6963  0.0496
  180MOL   H17732755   0.824   3.396   5.166  2.0888  0.2952 -0.9976
  180MOL   H17832756   0.763   3.641   5.332  1.5041 -0.9435  0.1309
  180MOL   H17932757   0.605   3.548   5.085  0.7771  0.0168 -1.9662
  180MOL   H18032758   0.654   3.704   5.139  0.4574  0.0118  1.4832
  180MOL   H18132759   0.762   3.603   5.049  1.1033  0.1631  1.9690
  180MOL   H18232760   0.649   3.516   5.320 -1.3591  2.5228 -0.2507
  181MOL     C132761   5.988   6.458   4.617  0.2005  0.5401  0.0469
  181MOL     C232762   5.873   6.556   4.635  0.0663  0.3760 -0.0588
  181MOL     C332763   5.922   6.691   4.609 -0.2101 -0.2867  0.0664
  181MOL     H432764   6.011   6.434   4.513 -0.8469  1.4006 -0.3925
  181MOL     H532765   5.974   6.363   4.669  1.6108 -0.3458 -1.1348
  181MOL     H632766   5.844   6.558   4.740 -2.1895  0.0614 -0.6629
  181MOL     H732767   6.008   6.718   4.671  0.7703 -0.4336 -1.2085
  181MOL     H832768   5.938   6.704   4.502 -1.0670  1.2852  0.1098
  181MOL     H932769   5.848   6.764   4.641 -0.3142  0.3488 -1.5809
  181MOL    H1032770   6.083   6.490   4.659 -0.7108  1.7057  1.2621
  181MOL    C1132771   5.750   6.506   4.555  0.0687  0.4645  0.0485
  181MOL    C1232772   5.683   6.373   4.594 -0.6156  0.1409 -0.9206
  181MOL    C1332773   5.632   6.374   4.744  0.0371 -0.3853  0.0944
  181MOL    H1432774   5.679   6.588   4.543  0.3640  1.0397  2.0393
  181MOL    H1532775   5.790   6.497   4.454  1.9003 -0.1170  0.8097
  181MOL    H1632776   5.741   6.281   4.589 -0.6193  0.1146 -0.4819
  181MOL    H1732777   5.560   6.454   4.761 -0.1606  0.3225 -3.6805
  181MOL    H1832778   5.587   6.278   4.767 -1.1545  0.5248  1.6037
  181MOL    H1932779   5.712   6.389   4.816 -0.1769  1.2820  0.0101
  181MOL    C2032780   5.564   6.338   4.509 -0.6652  0.1126  0.6846
  181MOL    C2132781   5.587   6.288   4.368  0.0180  0.8587 -0.4143
  181MOL    C2232782   5.666   6.155   4.364 -0.2413 -0.0557 -0.0134
  181MOL    H2332783   5.507   6.263   4.563  1.0995 -1.8924 -0.2105
  181MOL    H2432784   5.505   6.430   4.517  1.2759  1.4821 -0.2784
  181MOL    H2532785   5.648   6.364   4.320 -2.1831  1.7697 -1.8255
  181MOL    H2632786   5.633   6.081   4.437  0.2445  2.1959  2.5561
  181MOL    H2732787   5.662   6.105   4.267 -0.4885 -1.5244  0.7263
  181MOL    H2832788   5.772   6.163   4.388 -0.2970 -0.7491  0.4774
  181MOL    C2932789   5.448   6.258   4.303 -0.6033 -0.2686 -0.6364
  181MOL    C3032790   5.459   6.280   4.151  0.2988 -0.1019  0.1756
  181MOL    C3132791   5.402   6.160   4.075  0.8689  0.1844  0.1495
  181MOL    H3232792   5.433   6.152   4.324  2.2106 -1.0665 -2.2730
  181MOL    H3332793   5.375   6.325   4.347 -0.3438 -1.1708  1.1942
  181MOL    H3432794   5.564   6.294   4.125  0.0625  0.7227 -0.3413
  181MOL    H3532795   5.471   6.081   4.103  1.3410  0.3293 -0.5850
  181MOL    H3632796   5.296   6.133   4.082  1.1080 -1.3500 -1.5947
  181MOL    H3732797   5.420   6.177   3.968 -2.0261  1.1535 -0.2414
  181MOL    C3832798   5.396   6.415   4.108 -0.2014  0.4056  0.0916
  181MOL    C3932799   5.488   6.543   4.145 -0.9467 -0.1340 -0.0131
  181MOL    C4032800   5.621   6.554   4.070 -0.1472  0.0982 -0.2019
  181MOL    H4132801   5.371   6.417   4.002  4.5991 -0.1757 -1.1610
  181MOL    H4232802   5.301   6.428   4.159 -0.0920 -0.2012  0.4556
  181MOL    H4332803   5.523   6.537   4.248 -1.0008 -0.5312 -0.0190
  181MOL    H4432804   5.593   6.571   3.966  0.7055  0.6362 -0.3491
  181MOL    H4532805   5.679   6.625   4.130  0.7456 -1.3701  0.7007
  181MOL    H4632806   5.680   6.463   4.067 -0.9745 -0.3885 -2.1020
  181MOL    C4732807   5.411   6.676   4.113  0.1262 -0.0686 -0.0024
  181MOL    C4832808   5.284   6.699   4.198  0.9479  0.5839 -1.2096
  181MOL    C4932809   5.303   6.707   4.352  0.5438  0.6942  0.3718
  181MOL    H5032810   5.490   6.748   4.131  1.2175 -1.5505  1.2842
  181MOL    H5132811   5.384   6.675   4.007 -2.3753 -2.6042  0.5801
  181MOL    H5232812   5.216   6.617   4.176  1.2330 -0.0094  0.0729
  181MOL    H5332813   5.212   6.671   4.401  0.6756  0.5854  0.5386
  181MOL    H5432814   5.378   6.632   4.378 -0.1960 -0.2519 -0.1547
  181MOL    H5532815   5.323   6.805   4.395 -0.4038  0.8679  0.4441
  181MOL    C5632816   5.219   6.827   4.145 -0.8625  0.1482  0.3872
  181MOL    C5732817   5.072   6.840   4.186 -0.3203 -0.5447 -0.1294
  181MOL    C5832818   5.041   6.975   4.256 -0.9005  0.1793  0.2533
  181MOL    H5932819   5.286   6.910   4.169  1.0961  0.2695 -4.6951
  181MOL    H6032820   5.218   6.831   4.036  3.5924 -1.3669  0.2045
  181MOL    H6132821   5.052   6.762   4.260 -2.2271  1.9897  2.1166
  181MOL    H6232822   5.057   7.050   4.179 -1.7970 -0.8878 -1.0182
  181MOL    H6332823   4.949   6.983   4.313 -1.1645 -0.5182 -0.0644
  181MOL    H6432824   5.120   6.996   4.328  0.1305  1.1495 -1.1265
  181MOL    C6532825   4.973   6.839   4.067 -0.5592 -0.4155  0.9018
  181MOL    C6632826   4.957   6.691   4.020  0.1041  0.0289  1.1709
  181MOL    C6732827   4.867   6.612   4.123 -0.4714  0.7164 -0.1422
  181MOL    H6832828   4.875   6.867   4.106  1.4733  3.0509  3.7821
  181MOL    H6932829   4.994   6.911   3.988 -2.3860  1.5322  2.1509
  181MOL    H7032830   5.055   6.643   4.024 -0.9753 -2.1931  2.0289
  181MOL    H7132831   4.771   6.661   4.134 -0.3811  1.0912 -0.9546
  181MOL    H7232832   4.855   6.506   4.101 -0.7285  0.4374  1.2967
  181MOL    H7332833   4.912   6.622   4.222 -0.4704  0.5519 -0.1257
  181MOL    C7432834   4.918   6.673   3.872  0.8282 -0.1807 -0.5696
  181MOL    C7532835   5.030   6.710   3.771 -0.3198 -0.3476  0.3642
  181MOL    C7632836   5.136   6.599   3.772  0.6862 -0.0038  1.0311
  181MOL    H7732837   4.898   6.567   3.853  1.1883 -0.2298 -0.6894
  181MOL    H7832838   4.827   6.731   3.858  1.0824  0.0763 -1.2300
  181MOL    H7932839   5.077   6.799   3.813  0.0703 -0.6201  0.5107
  181MOL    H8032840   5.183   6.597   3.871  1.6532 -2.0149  0.5603
  181MOL    H8132841   5.093   6.504   3.739  0.2763 -0.6569  3.3377
  181MOL    H8232842   5.212   6.621   3.698  1.2092 -1.0086  1.2535
  181MOL    C8332843   4.984   6.723   3.628  0.2811 -0.0640  0.0340
  181MOL    C8432844   4.893   6.849   3.602 -0.4226 -0.0838  0.4028
  181MOL    C8532845   4.960   6.980   3.642  0.8070 -0.6078  0.0618
  181MOL    H8632846   5.076   6.740   3.573  2.0244  2.3659  3.4927
  181MOL    H8732847   4.933   6.633   3.596 -0.2556  0.0743  0.4853
  181MOL    H8832848   4.808   6.832   3.669  0.5565 -0.6419  1.5297
  181MOL    H8932849   4.953   6.985   3.750 -2.2963 -0.3110 -0.0881
  181MOL    H9032850   5.065   6.973   3.615  0.8035  1.5940 -0.6187
  181MOL    H9132851   4.915   7.067   3.593  3.0365  0.3898 -0.2576
  181MOL    C9232852   4.843   6.850   3.458  0.1804 -0.1923  0.0891
  181MOL    C9332853   4.708   6.925   3.424  0.6437 -0.0030 -0.2467
  181MOL    C9432854   4.695   6.964   3.280 -0.1765  0.1972  0.4939
  181MOL    H9532855   4.918   6.902   3.398  1.8831 -1.4362  1.1017
  181MOL    H9632856   4.852   6.755   3.405 -0.2798 -0.3023  0.2047
  181MOL    H9732857   4.705   7.016   3.485  0.4851 -1.5779  2.1910
  181MOL    H9832858   4.762   7.049   3.266 -0.6846  0.8497  1.9422
  181MOL    H9932859   4.718   6.891   3.201 -1.3729  1.0613 -0.6610
  181MOL   H10032860   4.595   7.003   3.261  0.2367  1.4833  0.9318
  181MOL   C10132861   4.596   6.831   3.471  0.6157  0.3845  0.8433
  181MOL   C10232862   4.482   6.889   3.566 -0.3232  0.4965  0.4354
  181MOL   C10332863   4.407   7.006   3.503  0.4056 -0.3167 -0.0733
  181MOL   H10432864   4.549   6.798   3.378  2.7767 -2.6722  0.7459
  181MOL   H10532865   4.622   6.733   3.512 -0.1349 -0.5696 -0.9121
  181MOL   H10632866   4.518   6.932   3.659  0.6483 -0.9625  0.7452
  181MOL   H10732867   4.373   6.996   3.400 -0.3394  0.8978  0.0475
  181MOL   H10832868   4.328   7.054   3.561 -0.4384  2.5293 -3.3802
  181MOL   H10932869   4.480   7.081   3.472 -0.9288  1.4857  1.0137
  181MOL   C11032870   4.397   6.774   3.616 -0.4131  0.1599  0.0189
  181MOL   C11132871   4.294   6.808   3.724 -0.5975 -0.7955  0.6481
  181MOL   C11232872   4.155   6.828   3.663 -0.3553  0.8210  0.1484
  181MOL   H11332873   4.347   6.723   3.533  2.0758  0.3335 -1.6639
  181MOL   H11432874   4.464   6.697   3.655 -0.0721  0.4274 -0.0351
  181MOL   H11532875   4.320   6.907   3.762  0.5879 -1.6193  2.0202
  181MOL   H11632876   4.087   6.885   3.726  0.2248  2.8543 -1.0169
  181MOL   H11732877   4.164   6.896   3.579  0.3275  0.1200 -0.3562
  181MOL   H11832878   4.112   6.735   3.624  1.2802 -0.2011  0.7773
  181MOL   C11932879   4.296   6.714   3.840  0.0963  0.1984 -0.0787
  181MOL   C12032880   4.281   6.558   3.796 -0.3308  0.8805 -0.0705
  181MOL   C12132881   4.396   6.486   3.867 -0.8327 -0.0812  0.1854
  181MOL   H12232882   4.389   6.732   3.894  0.2417  1.1222 -0.6189
  181MOL   H12332883   4.230   6.747   3.921 -2.4833  0.4749 -2.2301
  181MOL   H12432884   4.299   6.542   3.690 -1.0080 -2.0024  0.2200
  181MOL   H12532885   4.495   6.521   3.838  0.5922 -0.7651  3.9293
  181MOL   H12632886   4.381   6.492   3.975 -2.0675 -2.1313  0.1532
  181MOL   H12732887   4.392   6.379   3.850  0.9918 -0.0770 -0.4668
  181MOL   C12832888   4.140   6.503   3.828  0.4770 -0.2720 -0.3028
  181MOL   C12932889   4.107   6.353   3.794 -0.1254  0.6235 -0.3983
  181MOL   C13032890   3.966   6.312   3.855 -0.0143  0.1954 -0.5666
  181MOL   H13132891   4.142   6.522   3.935 -0.1284 -0.0798 -0.3229
  181MOL   H13232892   4.069   6.567   3.776 -1.5138 -2.5278 -0.4686
  181MOL   H13332893   4.188   6.299   3.843 -0.1350 -0.2805 -1.3504
  181MOL   H13432894   3.950   6.207   3.832  0.1216 -0.1096  0.6853
  181MOL   H13532895   3.969   6.316   3.964 -3.8985 -1.9197 -0.2957
  181MOL   H13632896   3.884   6.366   3.808  0.7959  2.1131  0.1196
  181MOL   C13732897   4.106   6.326   3.645  0.3978 -0.3071 -0.0218
  181MOL   C13832898   4.231   6.262   3.582 -0.0798  0.4995 -0.5505
  181MOL   C13932899   4.231   6.106   3.576  0.0065 -0.0933  0.1632
  181MOL   H14032900   4.025   6.257   3.622 -0.5337  0.2994  1.3595
  181MOL   H14132901   4.078   6.417   3.592  0.5621  0.0246  0.4628
  181MOL   H14232902   4.322   6.280   3.640 -0.4807  0.2791  0.1520
  181MOL   H14332903   4.213   6.070   3.678  0.2002  0.8797  0.5438
  181MOL   H14432904   4.160   6.066   3.504  0.8221  0.3283 -0.8896
  181MOL   H14532905   4.321   6.051   3.548  0.4653 -0.8964  2.9977
  181MOL   C14632906   4.255   6.310   3.438 -0.0868  0.3027 -0.7580
  181MOL   C14732907   4.404   6.297   3.385  1.0819  0.7362  0.4025
  181MOL   C14832908   4.388   6.323   3.235  0.6118 -0.2625  0.2102
  181MOL   H14932909   4.183   6.255   3.377  0.0705 -0.5649 -0.1792
  181MOL   H15032910   4.244   6.417   3.428 -1.5222  0.2808  0.4031
  181MOL   H15132911   4.437   6.196   3.409  0.2133  0.5922  1.0191
  181MOL   H15232912   4.357   6.239   3.173 -1.0255 -0.4020  1.1905
  181MOL   H15332913   4.316   6.400   3.209 -2.6061 -2.5080  2.0989
  181MOL   H15432914   4.484   6.352   3.193 -0.5582  1.3245 -1.3988
  181MOL   C15532915   4.500   6.401   3.439  0.4723 -0.6224 -0.1706
  181MOL   C15632916   4.651   6.348   3.480  0.5441  0.9916 -0.0589
  181MOL   C15732917   4.751   6.461   3.484  0.1388 -0.2804 -0.4528
  181MOL   H15832918   4.518   6.485   3.372  0.3357  1.6787  2.6378
  181MOL   H15932919   4.455   6.451   3.524  1.7700  1.2403 -0.5606
  181MOL   H16032920   4.676   6.278   3.401 -1.4917  0.2182 -0.0314
  181MOL   H16132921   4.851   6.421   3.500 -0.3560 -1.5676 -0.5414
  181MOL   H16232922   4.746   6.515   3.389  1.2744 -1.0295 -0.9452
  181MOL   H16332923   4.727   6.540   3.556  0.5217 -0.1228 -0.4991
  181MOL   C16432924   4.651   6.266   3.616  0.0170 -0.9860  0.0020
  181MOL   C16532925   4.798   6.210   3.655 -0.4966 -0.1799 -0.2147
  181MOL   C16632926   4.782   6.142   3.790  0.4224 -0.0884  0.0410
  181MOL   H16732927   4.602   6.317   3.698 -0.5134 -0.5083 -0.6083
  181MOL   H16832928   4.583   6.181   3.609 -2.4782  0.9656  0.1025
  181MOL   H16932929   4.858   6.297   3.681  2.9989 -1.6540 -2.8553
  181MOL   H17032930   4.720   6.196   3.862  1.3732 -0.2617  1.0080
  181MOL   H17132931   4.725   6.051   3.772  0.9639 -0.1331 -1.5599
  181MOL   H17232932   4.865   6.104   3.850 -0.8824  1.3141  2.8282
  181MOL   C17332933   4.872   6.127   3.557 -0.0107 -0.1229  0.1080
  181MOL   C17432934   5.021   6.090   3.581 -0.6890  0.2781  0.9295
  181MOL   C17532935   5.118   6.212   3.567  0.6514  0.4934 -0.8037
  181MOL   H17632936   4.822   6.030   3.559 -3.5655  1.6331  0.2174
  181MOL   H17732937   4.876   6.169   3.456  1.8413  0.0843  0.2632
  181MOL   H17832938   5.046   6.009   3.513 -2.2488  1.4476 -1.1078
  181MOL   H17932939   5.077   6.299   3.618 -0.7354 -1.3325  1.3018
  181MOL   H18032940   5.208   6.192   3.627 -2.2422 -2.7472  2.7510
  181MOL   H18132941   5.145   6.238   3.464  2.6427 -0.6624 -0.6239
  181MOL   H18232942   5.034   6.056   3.684  0.7503 -3.0027 -0.2825
  182MOL     C132943   0.174   2.101   2.565 -0.3092 -0.4364  0.5542
  182MOL     C232944   0.025   2.147   2.594  0.1163  0.1244 -0.2114
  182MOL     C332945   7.636   2.027   2.634 -0.0463  0.2839  0.4196
  182MOL     H432946   0.197   2.050   2.658 -0.7021  2.1709  2.1338
  182MOL     H532947   0.254   2.174   2.550  1.3158 -2.2272  0.3535
  182MOL     H632948   7.679   2.189   2.504  0.5870  2.4375  0.5916
  182MOL     H732949   7.536   2.064   2.658 -1.6218 -1.5689 -2.9828
  182MOL     H832950   7.633   1.941   2.567 -0.7681  1.1239 -0.6458
  182MOL     H932951   7.672   1.979   2.725 -0.4982 -3.3465 -1.2426
  182MOL    H1032952   0.174   2.043   2.472 -3.2066  0.6244 -0.1685
  182MOL    C1132953   0.025   2.256   2.706 -0.1287  0.1147 -0.4282
  182MOL    C1232954   7.601   2.350   2.704 -0.1037 -0.3834  0.2248
  182MOL    C1332955   7.582   2.408   2.843 -0.9737 -0.4295 -1.1846
  182MOL    H1432956   0.039   2.212   2.805 -0.6973  1.8222  0.4106
  182MOL    H1532957   0.118   2.311   2.690 -0.4908  0.6284 -0.7637
  182MOL    H1632958   7.515   2.294   2.667  0.7258 -0.8602 -0.9964
  182MOL    H1732959   7.644   2.492   2.874 -0.8475 -1.0789  0.4015
  182MOL    H1832960   7.477   2.437   2.851  0.0097  2.6994  1.4822
  182MOL    H1932961   7.585   2.324   2.913  2.2343  1.1423  0.6452
  182MOL    C2032962   7.625   2.468   2.607 -0.2092 -0.0884  0.0378
  182MOL    C2132963   7.528   2.589   2.605  0.4178  0.0327 -0.8598
  182MOL    C2232964   7.603   2.697   2.529 -0.2848 -0.6368 -0.1480
  182MOL    H2332965   0.034   2.492   2.610 -0.0922 -0.4629 -0.8894
  182MOL    H2432966   7.609   2.419   2.510  0.9819 -1.5835  0.5757
  182MOL    H2532967   7.512   2.630   2.705  0.5521  0.5445 -1.0453
  182MOL    H2632968   7.546   2.789   2.515  0.5684 -0.5583 -3.4154
  182MOL    H2732969   7.697   2.722   2.579 -0.1687  0.5669 -0.9360
  182MOL    H2832970   7.624   2.658   2.429 -0.7845 -2.0112  0.2817
  182MOL    C2932971   7.389   2.553   2.538 -0.1983  0.0823  0.1271
  182MOL    C3032972   7.273   2.647   2.563  0.0901  0.0275 -0.0442
  182MOL    C3132973   7.159   2.612   2.463 -0.0814 -0.1946 -1.0224
  182MOL    H3232974   7.406   2.542   2.431 -1.2350 -2.0941  0.1600
  182MOL    H3332975   7.355   2.460   2.584 -0.7254  0.4076  0.3990
  182MOL    H3432976   7.306   2.747   2.533 -0.1374  0.0622 -0.1794
  182MOL    H3532977   7.113   2.518   2.494  0.7100 -1.4376 -3.4640
  182MOL    H3632978   7.083   2.690   2.456 -0.6905 -0.7354 -0.5001
  182MOL    H3732979   7.203   2.606   2.364  0.3183 -1.9091 -0.7677
  182MOL    C3832980   7.228   2.677   2.705 -0.0168 -0.2288  0.7403
  182MOL    C3932981   7.152   2.811   2.734  0.0625 -0.2039  0.6931
  182MOL    C4032982   6.996   2.792   2.716 -0.5670  0.1035 -0.8204
  182MOL    H4132983   7.166   2.593   2.738  0.3403  0.3546  2.9879
  182MOL    H4232984   7.311   2.663   2.775  0.2926 -3.4791 -0.1730
  182MOL    H4332985   7.182   2.872   2.648  0.3368 -3.2304 -1.4193
  182MOL    H4432986   6.941   2.886   2.717  3.2693  2.4509 -1.5618
  182MOL    H4532987   6.973   2.738   2.624  3.4157  1.6822 -2.8442
  182MOL    H4632988   6.964   2.736   2.804  1.2630  3.4242  2.0684
  182MOL    C4732989   7.177   2.887   2.872  0.0265  0.3285  0.0785
  182MOL    C4832990   7.320   2.945   2.889  0.1288 -0.3408 -0.7061
  182MOL    C4932991   7.361   3.034   2.764 -0.3208 -0.4941  0.1267
  182MOL    H5032992   7.100   2.958   2.901 -0.1118  0.8602 -1.5293
  182MOL    H5132993   7.165   2.805   2.942 -2.9343  0.4134 -0.2861
  182MOL    H5232994   7.385   2.858   2.890 -0.4902 -0.7966  1.5026
  182MOL    H5332995   7.462   3.068   2.785  0.4676 -0.3320 -3.7153
  182MOL    H5432996   7.367   2.976   2.672  0.6086 -0.2833  0.0495
  182MOL    H5532997   7.294   3.120   2.760  0.6441  0.2112 -0.9742
  182MOL    C5632998   7.326   3.017   3.026 -0.1485  0.2576  0.7946
  182MOL    C5732999   7.463   3.066   3.080 -0.0753 -0.3306 -0.6487
  182MOL    C5833000   7.432   3.153   3.213  0.1924 -0.7790  0.9719
  182MOL    H5933001   7.254   3.098   3.021 -0.5908 -0.1010  1.3296
  182MOL    H6033002   7.284   2.960   3.109  1.3849 -0.4184  1.1135
  182MOL    H6133003   7.503   3.132   3.003  0.2338  3.6765  2.7641
  182MOL    H6233004   7.408   3.109   3.309  0.1915  0.5567  1.6053
  182MOL    H6333005   7.506   3.231   3.231 -1.1560  0.9236 -0.6097
  182MOL    H6433006   7.342   3.210   3.189  0.4517 -0.6009  0.3910
  182MOL    C6533007   7.570   2.952   3.109  0.0400  0.4479 -0.0227
  182MOL    C6633008   0.007   2.996   3.169  0.6126  0.3462 -0.1265
  182MOL    C6733009   0.096   2.870   3.209  0.1297 -0.7691 -0.7105
  182MOL    H6833010   7.531   2.880   3.181 -0.5619 -0.0848 -0.8734
  182MOL    H6933011   7.578   2.891   3.019  0.5571 -2.7644  2.1120
  182MOL    H7033012   7.679   3.047   3.261 -1.9482 -0.9799 -0.0472
  182MOL    H7133013   0.152   2.826   3.126  1.4094  0.6849 -0.6443
  182MOL    H7233014   0.171   2.902   3.281  0.6875 -0.8556 -1.2494
  182MOL    H7333015   0.038   2.792   3.257 -0.2811  0.1796  0.3547
  182MOL    C7433016   0.085   3.107   3.086  0.1157  0.1108  0.6683
  182MOL    C7533017   0.217   3.158   3.143  0.2285 -0.5096 -0.1258
  182MOL    C7633018   0.275   3.243   3.029  0.0426 -0.6085 -0.6991
  182MOL    H7733019   0.103   3.051   2.994  0.2504 -0.6997  1.1792
  182MOL    H7833020   0.015   3.180   3.045 -2.6624 -2.1128  1.2556
  182MOL    H7933021   0.287   3.075   3.156  0.1160 -0.4325  1.0039
  182MOL    H8033022   0.258   3.205   2.928  0.2893 -1.1091 -0.5515
  182MOL    H8133023   0.229   3.342   3.029  0.7596 -0.2617  0.1571
  182MOL    H8233024   0.383   3.257   3.042  0.0566  0.1835 -1.6157
  182MOL    C8333025   0.193   3.233   3.275 -0.0348  0.0956 -0.5135
  182MOL    C8433026   0.322   3.299   3.342  1.0246  0.6938  0.5523
  182MOL    C8533027   0.277   3.414   3.451 -0.5911  0.7264 -0.5240
  182MOL    H8633028   0.113   3.304   3.255 -2.8479 -3.0764 -0.8538
  182MOL    H8733029   0.156   3.163   3.350  1.5990 -0.7478 -0.4625
  182MOL    H8833030   0.375   3.345   3.260  1.0074 -0.1282  0.0781
  182MOL    H8933031   0.241   3.376   3.547  0.2542  0.8795 -0.1454
  182MOL    H9033032   0.371   3.468   3.465 -1.3715  1.6041  1.6168
  182MOL    H9133033   0.205   3.487   3.412  0.9264  1.6391 -1.6729
  182MOL    C9233034   0.431   3.198   3.393 -0.0328  0.3033  0.1944
  182MOL    C9333035   0.571   3.261   3.444  0.0250  0.4142  0.0543
  182MOL    C9433036   0.617   3.165   3.558 -0.4629  0.2684  0.4390
  182MOL    H9533037   0.393   3.140   3.477  0.4330 -0.6868 -0.2664
  182MOL    H9633038   0.452   3.119   3.320  1.4513  0.5170  0.3812
  182MOL    H9733039   0.552   3.361   3.483 -1.8845 -0.6939  2.1117
  182MOL    H9833040   0.721   3.191   3.581 -0.8567  2.1161  0.1866
  182MOL    H9933041   0.557   3.171   3.649 -1.7532 -2.0985 -0.1936
  182MOL   H10033042   0.619   3.064   3.515  0.6552  0.9623 -1.1751
  182MOL   C10133043   0.685   3.258   3.340  0.4428 -0.2226 -0.2905
  182MOL   C10233044   0.661   3.343   3.214  0.0715  0.9963  0.1726
  182MOL   C10333045   0.653   3.493   3.241 -0.1540 -0.3191  0.4504
  182MOL   H10433046   0.773   3.300   3.388  0.0022  1.5270 -0.9761
  182MOL   H10533047   0.700   3.155   3.309 -0.9279 -0.3493 -0.5651
  182MOL   H10633048   0.574   3.326   3.151 -0.8406  1.3988  1.3038
  182MOL   H10733049   0.734   3.537   3.299  1.5188 -1.3314 -1.0807
  182MOL   H10833050   0.647   3.551   3.149 -0.7503  0.4875  0.9899
  182MOL   H10933051   0.556   3.521   3.282 -0.8158 -1.5148 -0.2483
  182MOL   C11033052   0.776   3.323   3.102 -0.2970  0.3074  0.4385
  182MOL   C11133053   0.776   3.194   3.013  0.0275 -0.5305  0.0532
  182MOL   C11233054   0.707   3.232   2.876 -0.0104  0.1339 -0.9467
  182MOL   H11333055   0.758   3.410   3.039  1.4363  0.1856 -0.2488
  182MOL   H11433056   0.869   3.331   3.159 -0.2769  1.2746  0.2808
  182MOL   H11533057   0.710   3.124   3.062 -1.9083 -1.1830 -3.3248
  182MOL   H11633058   0.614   3.278   2.910 -0.8428 -0.3509 -2.5533
  182MOL   H11733059   0.773   3.297   2.818  2.0211  0.6495  1.8256
  182MOL   H11833060   0.684   3.138   2.827  1.7755  0.1062 -1.7728
  182MOL   C11933061   0.920   3.129   2.991  0.8163 -0.3298 -0.1571
  182MOL   C12033062   0.992   3.082   3.123 -0.1755 -0.3443  0.3867
  182MOL   C12133063   0.934   2.958   3.184 -0.2423 -0.3765  0.4662
  182MOL   H12233064   0.917   3.055   2.912  1.5326  0.8361 -1.2958
  182MOL   H12333065   0.976   3.209   2.944 -0.4351  1.2815  1.0024
  182MOL   H12433066   0.980   3.159   3.199 -1.4213  0.1994 -0.3594
  182MOL   H12533067   0.829   2.974   3.161  0.4710  0.9141 -2.1405
  182MOL   H12633068   0.962   2.860   3.145  1.1005 -0.2319  1.0271
  182MOL   H12733069   0.953   2.950   3.291 -1.4228 -2.1271  0.5583
  182MOL   C12833070   1.152   3.072   3.100 -0.1367  0.2416  0.4287
  182MOL   C12933071   1.227   3.185   3.026  0.1281  0.0697  0.1794
  182MOL   C13033072   1.208   3.312   3.105  0.0554 -0.2080  0.0980
  182MOL   H13133073   1.205   3.053   3.193 -0.5716  0.1985  0.6723
  182MOL   H13233074   1.160   2.982   3.040 -0.1144 -0.3620  1.3232
  182MOL   H13333075   1.196   3.192   2.922 -1.4040  1.0551  0.6945
  182MOL   H13433076   1.203   3.297   3.213  0.6958  1.0972  0.3151
  182MOL   H13533077   1.283   3.386   3.077 -0.0839 -0.4215 -0.8791
  182MOL   H13633078   1.119   3.369   3.078 -0.1577 -0.9443 -0.7870
  182MOL   C13733079   1.376   3.162   3.012 -0.3290 -0.4987 -0.2681
  182MOL   C13833080   1.425   3.045   2.922  0.0333 -0.0281 -0.6212
  182MOL   C13933081   1.372   3.047   2.781 -0.1957 -0.0241 -0.3342
  182MOL   H14033082   1.430   3.253   2.985  0.3068 -0.2035  1.8526
  182MOL   H14133083   1.406   3.144   3.116 -1.2557  1.9689  0.4604
  182MOL   H14233084   1.378   2.960   2.972  0.0971  0.7677  0.8074
  182MOL   H14333085   1.265   3.069   2.783  0.0163  0.9426  0.4558
  182MOL   H14433086   1.420   3.117   2.713  0.8260  0.6902  1.1069
  182MOL   H14533087   1.397   2.951   2.736  3.1286  0.6362 -0.0133
  182MOL   C14633088   1.573   3.015   2.917 -1.0179 -0.3424  0.0434
  182MOL   C14733089   1.645   2.973   3.048 -0.2363 -0.0018  0.0988
  182MOL   C14833090   1.599   2.837   3.105  0.3321 -0.0962  0.7334
  182MOL   H14933091   1.579   2.931   2.848 -1.2404 -0.4906  0.2059
  182MOL   H15033092   1.629   3.101   2.881 -0.6151 -0.4467  0.4172
  182MOL   H15133093   1.623   3.049   3.123 -3.1135 -0.6685 -0.0174
  182MOL   H15233094   1.491   2.838   3.122  0.3155  0.7469  0.6234
  182MOL   H15333095   1.613   2.747   3.045 -0.0782  0.4348 -0.1767
  182MOL   H15433096   1.632   2.825   3.208  0.1327 -0.2861  0.7742
  182MOL   C15533097   1.794   2.979   3.025 -0.2016  0.0543 -0.2783
  182MOL   C15633098   1.883   2.968   3.146 -0.1773  0.3599  0.4432
  182MOL   C15733099   1.968   2.835   3.130 -0.4096  0.8860  0.1353
  182MOL   H15833100   1.829   2.911   2.946  1.1635  0.0508  0.3179
  182MOL   H15933101   1.820   3.076   2.983 -1.5413 -0.2961 -2.0030
  182MOL   H16033102   1.819   2.958   3.234  2.6381 -0.1547  2.4956
  182MOL   H16133103   2.045   2.841   3.053  0.5143  0.4923  1.0114
  182MOL   H16233104   2.009   2.807   3.227  0.4768  0.1599 -0.4385
  182MOL   H16333105   1.891   2.762   3.108  1.0729 -0.9080  0.7397
  182MOL   C16433106   1.971   3.090   3.170 -1.1696  0.5050  0.1904
  182MOL   C16533107   2.062   3.113   3.294 -0.5361 -0.5317 -1.0718
  182MOL   C16633108   2.165   3.223   3.263 -0.0042  0.2071 -0.1658
  182MOL   H16733109   2.040   3.104   3.087  0.3298  0.2969  1.3867
  182MOL   H16833110   1.898   3.170   3.162 -3.6812 -1.6666  0.5371
  182MOL   H16933111   2.127   3.026   3.293 -0.7827 -0.7109 -1.6344
  182MOL   H17033112   2.123   3.322   3.246  0.6303  0.6132  0.6222
  182MOL   H17133113   2.232   3.230   3.349  1.8467  0.7298 -1.5976
  182MOL   H17233114   2.235   3.196   3.183 -0.1702  1.0898 -0.6124
  182MOL   C17333115   1.993   3.116   3.433 -0.6190  0.0577 -0.4615
  182MOL   C17433116   1.902   3.236   3.475  0.2742 -0.4528  0.2987
  182MOL   C17533117   1.802   3.181   3.572  0.5081 -0.3569 -0.3883
  182MOL   H17633118   1.938   3.022   3.435  0.0378 -0.3353 -0.8251
  182MOL   H17733119   2.065   3.106   3.514  0.0413  2.2434 -0.7262
  182MOL   H17833120   1.839   3.273   3.394  0.6818  2.5254  1.2716
  182MOL   H17933121   1.735   3.259   3.608  1.6512  0.7566 -0.6302
  182MOL   H18033122   1.741   3.099   3.535 -0.2701  0.2792 -0.5072
  182MOL   H18133123   1.837   3.142   3.668 -0.2317  1.0875  0.4813
  182MOL   H18233124   1.959   3.315   3.525 -1.0299 -0.6248  2.0744
  183MOL     C133125   0.325   7.581   0.656 -0.2982  0.6497  0.2189
  183MOL     C233126   0.293   7.649   0.792 -0.2829  0.4363 -0.5878
  183MOL     C333127   0.311   0.105   0.796 -0.0491  0.4540 -0.3776
  183MOL     H433128   0.244   7.589   0.584 -0.2882 -1.5991 -0.0911
  183MOL     H533129   0.323   7.472   0.655 -0.9314  0.6696 -2.0926
  183MOL     H633130   0.354   7.609   0.874 -0.3154  0.9836 -0.2912
  183MOL     H733131   0.250   0.164   0.727  2.4873  0.6207 -2.5386
  183MOL     H833132   0.294   0.146   0.896 -0.6465 -0.8376  0.0667
  183MOL     H933133   0.417   0.117   0.776  0.0053  0.3594 -0.1437
  183MOL    H1033134   0.425   7.610   0.624 -0.4146 -2.0081 -2.7892
  183MOL    C1133135   0.144   7.625   0.839  0.6174  0.3073  0.6324
  183MOL    C1233136   0.116   7.479   0.875 -0.0096  0.0655 -0.3781
  183MOL    C1333137   0.162   7.446   1.023  0.3266 -0.0928  0.1758
  183MOL    H1433138   0.116   7.685   0.925 -1.4714  0.8582 -0.4191
  183MOL    H1533139   0.077   7.657   0.759  1.6817  1.2433  0.0982
  183MOL    H1633140   0.168   7.417   0.802 -0.7593  0.2808 -1.1002
  183MOL    H1733141   0.138   7.344   1.050  0.3891  0.1463  1.1347
  183MOL    H1833142   0.268   7.472   1.028  0.2656 -0.1578  1.9892
  183MOL    H1933143   0.109   7.499   1.102  2.2489  3.0823 -0.5835
  183MOL    C2033144   7.664   7.437   0.859 -0.0325  0.0765 -0.2766
  183MOL    C2133145   7.606   7.422   0.713 -1.0577 -0.0949 -0.0240
  183MOL    C2233146   7.686   7.319   0.627  0.0523 -0.7903 -0.2325
  183MOL    H2333147   7.645   7.336   0.896 -1.0287 -0.3604 -1.9458
  183MOL    H2433148   7.594   7.501   0.913 -0.2182  2.7801 -3.5377
  183MOL    H2533149   7.609   7.521   0.667  0.9701 -0.1296 -0.0398
  183MOL    H2633150   7.616   7.259   0.569 -2.9232  1.0608  1.3540
  183MOL    H2733151   0.064   7.362   0.561  1.6654 -0.6550  1.6539
  183MOL    H2833152   0.031   7.240   0.689 -0.1596  1.1634  2.4407
  183MOL    C2933153   7.451   7.408   0.721  0.1168 -0.5560  0.0640
  183MOL    C3033154   7.381   7.388   0.583 -0.3542  0.9309  0.2135
  183MOL    C3133155   7.226   7.383   0.597 -0.3514  0.3213 -0.1448
  183MOL    H3233156   7.424   7.325   0.786 -2.2929 -0.2024 -0.4336
  183MOL    H3333157   7.411   7.500   0.764  0.2823 -0.4930  0.0795
  183MOL    H3433158   7.404   7.284   0.557 -1.4292  0.7595 -0.0548
  183MOL    H3533159   7.178   7.313   0.528 -0.6192  0.5112 -0.1555
  183MOL    H3633160   7.196   7.337   0.691 -0.2759  0.9993  0.2133
  183MOL    H3733161   7.182   7.481   0.579  1.4618  1.2792  0.5451
  183MOL    C3833162   7.425   7.492   0.469  0.6915  0.3887 -0.1427
  183MOL    C3933163   7.390   7.451   0.325  0.3314 -0.6927 -0.5686
  183MOL    C4033164   7.394   7.583   0.237  0.6973 -0.8024 -0.3950
  183MOL    H4133165   7.365   7.577   0.499  0.7952  0.1214  0.8534
  183MOL    H4233166   7.523   7.540   0.470  0.6998  0.3669  1.5002
  183MOL    H4333167   7.292   7.405   0.317 -1.9062  3.0771  3.1498
  183MOL    H4433168   7.494   7.625   0.232 -0.2364  1.3844 -1.5285
  183MOL    H4533169   7.369   7.564   0.133  1.1790  0.4684 -0.7488
  183MOL    H4633170   7.326   7.663   0.267  0.1324 -0.9751 -1.2004
  183MOL    C4733171   7.489   7.338   0.276  0.5056 -0.9010  0.1071
  183MOL    C4833172   7.474   7.288   0.129 -0.4708  0.0935  0.7124
  183MOL    C4933173   7.611   7.254   0.066 -0.6326 -0.8599  0.4474
  183MOL    H5033174   7.594   7.367   0.283  0.9642 -1.6832 -2.9010
  183MOL    H5133175   7.452   7.256   0.337  0.7535 -1.0939 -0.0049
  183MOL    H5233176   7.437   7.361   0.057  1.0910 -0.6870 -0.9197
  183MOL    H5333177   7.652   7.180   0.134  2.8161  0.7148  0.1835
  183MOL    H5433178   7.597   7.203   7.668 -2.4506 -0.3217  0.4062
  183MOL    H5533179   7.675   7.342   0.057 -2.1046  0.4920  2.6414
  183MOL    C5633180   7.377   7.162   0.115 -0.7113  0.3284 -0.4997
  183MOL    C5733181   7.229   7.177   0.150  0.8858 -0.2666 -0.6943
  183MOL    C5833182   7.163   7.285   0.071 -0.2560  0.3343  0.0328
  183MOL    H5933183   7.382   7.121   0.014  2.2489  1.5054 -0.8879
  183MOL    H6033184   7.425   7.084   0.176 -0.0218  0.6213 -0.6569
  183MOL    H6133185   7.230   7.209   0.254  2.4397  2.1796 -1.4221
  183MOL    H6233186   7.136   7.253   7.668 -0.6064  1.5482 -0.2772
  183MOL    H6333187   7.069   7.305   0.123  0.9909 -0.2840  2.5779
  183MOL    H6433188   7.214   7.381   0.072  1.1963 -0.4192  2.5856
  183MOL    C6533189   7.156   7.045   0.126 -0.0491 -0.6713 -0.3885
  183MOL    C6633190   7.178   6.926   0.229  0.3027  0.9900  0.0205
  183MOL    C6733191   7.094   6.942   0.353 -0.4892 -0.1891 -0.4745
  183MOL    H6833192   7.052   7.076   0.122  0.5524  1.1939 -2.6975
  183MOL    H6933193   7.192   7.005   0.031 -0.4221 -0.6971 -0.5208
  183MOL    H7033194   7.282   6.921   0.261 -0.0889 -0.2336  1.1747
  183MOL    H7133195   7.123   6.870   0.429  3.6148  0.8086 -0.9891
  183MOL    H7233196   7.111   7.034   0.409 -0.3389 -0.9244  0.7236
  183MOL    H7333197   6.988   6.937   0.329 -0.3294  2.7944 -2.0723
  183MOL    C7433198   7.142   6.790   0.170  0.7596  0.0595  0.6502
  183MOL    C7533199   7.247   6.710   0.088 -0.2772 -0.2444  0.6660
  183MOL    C7633200   7.319   6.788   7.677  0.7199 -0.2719 -0.1951
  183MOL    H7733201   7.117   6.721   0.251  0.7473  1.4097  1.8121
  183MOL    H7833202   7.051   6.794   0.110 -0.0180 -0.6661  1.7587
  183MOL    H7933203   7.195   6.627   0.040  0.4310  0.4521 -1.3516
  183MOL    H8033204   7.374   6.865   0.032  1.0133  0.5812 -1.7182
  183MOL    H8133205   7.377   6.721   7.613  0.0404 -1.0491 -0.0082
  183MOL    H8233206   7.240   6.826   7.612  1.1402 -0.4531 -0.8204
  183MOL    C8333207   7.352   6.650   0.176  0.3377 -0.7065  0.3630
  183MOL    C8433208   7.454   6.553   0.122  0.8011 -0.2948  0.8451
  183MOL    C8533209   7.555   6.526   0.239 -0.3697 -0.7788 -0.3283
  183MOL    H8633210   7.407   6.732   0.223 -0.2214  0.8803 -1.6531
  183MOL    H8733211   7.302   6.593   0.254 -1.5089  2.0097  1.2601
  183MOL    H8833212   7.509   6.603   0.042  2.4397 -2.1442  0.7668
  183MOL    H8933213   7.625   6.447   0.211  1.3145  0.9760 -1.2071
  183MOL    H9033214   7.611   6.607   0.285 -0.9970 -1.3740  1.5333
  183MOL    H9133215   7.509   6.482   0.328  1.9888 -0.5522  1.0390
  183MOL    C9233216   7.385   6.421   0.073  0.4179 -0.7922 -0.2745
  183MOL    C9333217   7.479   6.312   0.015 -0.2009 -0.5161 -0.0817
  183MOL    C9433218   7.395   6.184   7.690 -0.3149  0.2106  0.2249
  183MOL    H9533219   7.333   6.387   0.162  1.3399 -0.1962  0.5004
  183MOL    H9633220   7.310   6.435   7.692 -0.4889 -0.4860  0.6324
  183MOL    H9733221   7.560   6.289   0.085 -0.1589 -0.1416 -0.0085
  183MOL    H9833222   7.337   6.160   0.081 -0.7220 -3.1167 -0.8892
  183MOL    H9933223   7.321   6.199   7.612  0.8225 -0.4063 -0.9871
  183MOL   H10033224   7.461   6.099   7.675  0.4145  0.8454 -0.2415
  183MOL   C10133225   7.550   6.353   7.582 -0.0107  0.1311 -0.0207
  183MOL   C10233226   7.652   6.250   7.516  0.3730  0.2638  0.5994
  183MOL   C10333227   7.656   6.258   7.357 -0.5220 -0.8256 -1.2185
  183MOL   H10433228   7.480   6.381   7.503  0.9029  0.5642 -0.6806
  183MOL   H10533229   7.610   6.443   7.594  3.6855 -1.9087 -2.3894
  183MOL   H10633230   7.635   6.145   7.542  2.3193 -0.2758 -0.2330
  183MOL   H10733231   0.046   6.202   7.322  2.1355  2.6891 -0.5266
  183MOL   H10833232   7.561   6.223   7.318 -1.5209 -0.4982  0.8668
  183MOL   H10933233   7.669   6.360   7.320  1.5956 -0.6438 -0.0876
  183MOL   C11033234   0.100   6.256   7.574  0.3913 -0.5468 -0.0310
  183MOL   C11133235   0.174   6.390   7.551  0.4347 -0.5612  0.0936
  183MOL   C11233236   0.229   6.426   7.688 -0.5314 -0.7518 -0.0323
  183MOL   H11333237   0.084   6.255   7.682  0.3076  2.1951  0.0211
  183MOL   H11433238   0.160   6.168   7.551  1.2782 -0.2126  0.9592
  183MOL   H11533239   0.107   6.467   7.514  0.5197 -0.8901 -0.7642
  183MOL   H11633240   0.305   6.356   0.024 -0.5588 -1.8461 -2.1661
  183MOL   H11733241   0.281   6.522   7.683  0.0920 -1.0535  0.6282
  183MOL   H11833242   0.149   6.427   0.064  0.9492  2.9661  1.6881
  183MOL   C11933243   0.281   6.374   7.444 -0.2419  0.1065 -0.3758
  183MOL   C12033244   0.339   6.512   7.405  0.1026  0.2837  0.0323
  183MOL   C12133245   0.463   6.560   7.482 -0.1024  0.0807 -0.0345
  183MOL   H12233246   0.356   6.296   7.460 -0.2354  0.6117  2.2520
  183MOL   H12333247   0.225   6.347   7.354 -1.5222 -0.9239  0.7196
  183MOL   H12433248   0.269   6.586   7.445  0.5556 -0.3376  2.0134
  183MOL   H12533249   0.457   6.540   7.589 -0.8931 -0.8601 -0.2394
  183MOL   H12633250   0.554   6.509   7.451 -0.0219  0.3188 -0.1849
  183MOL   H12733251   0.489   6.666   7.477 -0.5020  0.1569 -0.5668
  183MOL   C12833252   0.345   6.531   7.250  0.3153  0.4231 -0.4747
  183MOL   C12933253   0.222   6.603   7.190 -0.3351  0.0588 -0.1547
  183MOL   C13033254   0.248   6.758   7.192  0.2025 -0.0841  0.0757
  183MOL   H13133255   0.425   6.602   7.231 -0.7421  1.1754 -2.2327
  183MOL   H13233256   0.362   6.434   7.203  1.4904  0.2812  0.2193
  183MOL   H13333257   0.141   6.579   7.260  1.0965  0.6087  1.7380
  183MOL   H13433258   0.167   6.814   7.146  0.0366  0.3651  0.9059
  183MOL   H13533259   0.242   6.790   7.296  0.8250 -1.0602  0.4188
  183MOL   H13633260   0.335   6.793   7.137 -0.0755 -0.3247 -0.5214
  183MOL   C13733261   0.178   6.539   7.057  0.4193  0.7037  0.1059
  183MOL   C13833262   0.063   6.602   6.982 -0.0354  0.0346 -0.3371
  183MOL   C13933263   0.062   6.543   6.839 -0.3868 -0.0757 -0.0310
  183MOL   H14033264   0.264   6.555   6.992  0.4172  2.3185  0.4755
  183MOL   H14133265   0.163   6.433   7.076  1.0093  0.5578 -0.2295
  183MOL   H14233266   0.068   6.711   6.976 -1.5888  0.1260 -0.1873
  183MOL   H14333267   7.675   6.589   6.787 -0.0011 -0.0664 -0.6546
  183MOL   H14433268   0.147   6.571   6.776  0.6933 -2.5387  0.2714
  183MOL   H14533269   0.044   6.436   6.827  0.1326  0.0090 -1.6440
  183MOL   C14633270   7.627   6.572   7.051 -0.3107 -0.0659  0.0409
  183MOL   C14733271   7.509   6.656   7.016 -0.1109 -0.3241 -0.0627
  183MOL   C14833272   7.379   6.599   7.067  0.0146 -0.1534 -0.4422
  183MOL   H14933273   7.607   6.466   7.041 -0.9341 -0.1907  2.3666
  183MOL   H15033274   7.648   6.573   7.158  0.1543 -2.6529 -0.0012
  183MOL   H15133275   7.504   6.662   6.907 -0.7084  0.7319  0.0081
  183MOL   H15233276   7.289   6.660   7.055 -0.8316 -1.4125 -0.6050
  183MOL   H15333277   7.362   6.500   7.024 -3.6401 -0.2168  0.9324
  183MOL   H15433278   7.395   6.582   7.173  0.8503 -0.3611 -0.5984
  183MOL   C15533279   7.520   6.797   7.073 -0.3553 -0.1851  0.1263
  183MOL   C15633280   7.417   6.903   7.011  0.5712  0.0137 -0.1472
  183MOL   C15733281   7.400   7.026   7.099 -0.4433  0.1770 -0.2732
  183MOL   H15833282   7.506   6.790   7.180 -0.7066  0.8007  0.1479
  183MOL   H15933283   7.624   6.831   7.066 -0.4707  0.0474 -0.5305
  183MOL   H16033284   7.323   6.849   7.024  1.6570 -1.2614  2.8521
  183MOL   H16133285   7.314   7.083   7.063  0.9128  2.3717 -0.1173
  183MOL   H16233286   7.375   7.004   7.203  0.6277  0.6537  0.0936
  183MOL   H16333287   7.489   7.089   7.105 -1.8581  2.3424 -1.2321
  183MOL   C16433288   7.440   6.935   6.864  0.0993 -0.5170  0.5891
  183MOL   C16533289   7.557   7.022   6.818  0.4111  0.4605  0.6633
  183MOL   C16633290   7.673   6.934   6.783  0.3200  0.3733 -0.5642
  183MOL   H16733291   7.421   6.853   6.794 -0.7816  0.3830 -0.2507
  183MOL   H16833292   7.348   6.992   6.851  0.7836  0.1630 -1.4379
  183MOL   H16933293   7.588   7.085   6.901 -0.5551  0.4823  1.0137
  183MOL   H17033294   7.645   6.832   6.758 -1.8025  1.0859 -1.2857
  183MOL   H17133295   0.021   6.965   6.688  2.2968 -2.2710 -0.5145
  183MOL   H17233296   0.056   6.933   6.855 -1.1706 -0.6957  1.1241
  183MOL   C17333297   7.520   7.101   6.690 -0.0247 -0.2753  0.1521
  183MOL   C17433298   7.417   7.219   6.707  0.6231 -0.4901 -0.3743
  183MOL   C17533299   7.467   7.327   6.799 -0.1642  0.2831  0.3959
  183MOL   H17633300   7.607   7.133   6.632 -0.3097  1.1955  0.5058
  183MOL   H17733301   7.479   7.028   6.620 -0.3470  0.5047 -0.4865
  183MOL   H17833302   7.324   7.176   6.743  0.1766 -0.3884 -1.4065
  183MOL   H17933303   7.412   7.420   6.788 -0.8328 -0.1760 -0.1809
  183MOL   H18033304   7.478   7.278   6.896 -1.0187 -0.2258  0.2411
  183MOL   H18133305   7.573   7.343   6.779 -0.2815  1.0674  0.3979
  183MOL   H18233306   7.395   7.270   6.613 -0.0195 -1.4563 -0.7489
  184MOL     C133307   0.411   3.741   0.598 -0.3977 -0.1822  0.4722
  184MOL     C233308   0.460   3.803   0.736  0.4968  0.4781  0.0091
  184MOL     C333309   0.472   3.957   0.719  0.2206  0.0894 -0.6852
  184MOL     H433310   0.456   3.796   0.515 -0.5160 -0.2156  0.3865
  184MOL     H533311   0.302   3.743   0.593 -0.3159  2.4655 -1.2672
  184MOL     H633312   0.561   3.765   0.751 -0.1694 -0.7514  1.4199
  184MOL     H733313   0.540   3.991   0.642 -0.3230  3.9134  0.4070
  184MOL     H833314   0.379   4.011   0.701  0.2872  1.0994  1.7315
  184MOL     H933315   0.525   3.992   0.808 -0.9696 -1.1519  0.5454
  184MOL    H1033316   0.437   3.636   0.593  1.2322  0.2022  0.5397
  184MOL    C1133317   0.365   3.773   0.858  0.4913 -0.3430  0.3842
  184MOL    C1233318   0.344   3.622   0.886  0.2634 -0.3646  0.1100
  184MOL    C1333319   0.472   3.560   0.941 -0.2598 -0.1908 -0.3034
  184MOL    H1433320   0.414   3.819   0.944  1.6893 -3.1306  1.2544
  184MOL    H1533321   0.268   3.822   0.848  0.4585 -0.2804  0.9403
  184MOL    H1633322   0.333   3.569   0.791  1.6821  0.1349 -0.3466
  184MOL    H1733323   0.483   3.452   0.942 -1.7981 -0.3597  0.0112
  184MOL    H1833324   0.557   3.590   0.879 -0.1991 -0.3239 -0.2840
  184MOL    H1933325   0.488   3.598   1.042 -2.2323 -1.6972  0.5995
  184MOL    C2033326   0.220   3.596   0.980  0.4806  0.5054 -1.1601
  184MOL    C2133327   0.077   3.644   0.931 -0.3903  0.3012 -0.8019
  184MOL    C2233328   0.063   3.628   0.776  0.2383 -0.0612 -0.1900
  184MOL    H2333329   0.217   3.487   0.994 -0.4933  0.4887 -1.4686
  184MOL    H2433330   0.236   3.629   1.083  1.7751 -0.7774 -0.9230
  184MOL    H2533331   0.095   3.751   0.945  2.6598 -0.3560  0.5546
  184MOL    H2633332   7.656   3.632   0.744 -0.4838 -1.9545  1.8153
  184MOL    H2733333   0.124   3.702   0.725 -0.4849 -0.0589 -1.0491
  184MOL    H2833334   0.092   3.528   0.745 -0.2736  0.3348 -2.0029
  184MOL    C2933335   7.654   3.581   1.002  0.2874 -0.2774  0.2194
  184MOL    C3033336   7.639   3.592   1.156  0.5806 -0.3549 -0.6410
  184MOL    C3133337   7.641   3.739   1.204 -0.1240 -0.3235  0.1224
  184MOL    H3233338   7.571   3.638   0.960  0.1178  0.3166  1.3506
  184MOL    H3333339   7.653   3.476   0.973  0.8965 -0.1844 -0.1400
  184MOL    H3433340   0.021   3.547   1.216 -0.1829 -1.2133 -0.2559
  184MOL    H3533341   0.028   3.790   1.157  0.2214 -1.0940 -0.1071
  184MOL    H3633342   7.548   3.791   1.183  0.6709  0.7791 -0.7684
  184MOL    H3733343   7.650   3.746   1.313 -0.5070 -0.5655  0.1706
  184MOL    C3833344   7.495   3.538   1.183  0.3098 -0.8661 -0.8567
  184MOL    C3933345   7.466   3.515   1.332  0.4371 -0.0041 -0.8466
  184MOL    C4033346   7.318   3.485   1.348  0.0495  0.6011  0.4342
  184MOL    H4133347   7.419   3.601   1.136 -2.6126 -2.3198  1.7278
  184MOL    H4233348   7.478   3.446   1.128  0.5239 -0.0551 -2.3192
  184MOL    H4333349   7.480   3.614   1.374  1.6136  0.9882 -3.4821
  184MOL    H4433350   7.298   3.487   1.455 -1.7604  1.4466  0.0814
  184MOL    H4533351   7.266   3.571   1.307 -0.5417  1.7082  3.3921
  184MOL    H4633352   7.298   3.391   1.296  1.1500  1.0931 -0.9007
  184MOL    C4733353   7.546   3.407   1.397 -0.5042  0.2119  0.0572
  184MOL    C4833354   7.596   3.419   1.541  0.0886 -0.4233 -0.2946
  184MOL    C4933355   7.490   3.467   1.637 -0.7617  0.1227 -0.1610
  184MOL    H5033356   7.503   3.307   1.385  0.1905 -0.2842  1.5308
  184MOL    H5133357   7.635   3.385   1.338 -1.0276 -0.7730 -0.3854
  184MOL    H5233358   7.664   3.504   1.541  1.2817 -1.3628 -1.6915
  184MOL    H5333359   7.412   3.394   1.655 -1.5824  0.7530 -1.1288
  184MOL    H5433360   7.520   3.504   1.735 -1.2849  0.9258 -0.2980
  184MOL    H5533361   7.438   3.556   1.603 -1.6342 -1.3514 -2.8640
  184MOL    C5633362   7.676   3.304   1.606 -0.2835  0.7286 -0.2494
  184MOL    C5733363   0.121   3.278   1.546 -0.0280 -0.4659  0.4657
  184MOL    C5833364   0.196   3.404   1.506  0.6249 -0.0778 -1.1773
  184MOL    H5933365   7.692   3.310   1.713  3.3727 -0.7104 -0.6085
  184MOL    H6033366   7.616   3.214   1.593 -0.5608  0.6016  1.7695
  184MOL    H6133367   0.120   3.209   1.461  1.3395 -0.4814  0.4516
  184MOL    H6233368   0.290   3.374   1.461  0.2096  0.3457 -2.3290
  184MOL    H6333369   0.154   3.475   1.434  0.0526  0.4365 -0.3514
  184MOL    H6433370   0.230   3.468   1.588  0.6850  0.7264 -1.8194
  184MOL    C6533371   0.217   3.211   1.652  0.3099 -0.1060 -0.4332
  184MOL    C6633372   0.179   3.070   1.710 -0.2692 -0.5083  0.3104
  184MOL    C6733373   0.172   2.964   1.600  0.2635 -0.0768  0.1710
  184MOL    H6833374   0.321   3.204   1.621  0.7867  0.8305  0.9113
  184MOL    H6933375   0.224   3.276   1.739  0.4220 -3.2812  1.9772
  184MOL    H7033376   0.085   3.088   1.762 -0.7784 -1.3893 -0.3069
  184MOL    H7133377   0.264   2.961   1.541  0.4808 -0.5389  0.5268
  184MOL    H7233378   0.138   2.868   1.640 -0.0218  0.3422  0.9257
  184MOL    H7333379   0.090   2.980   1.530 -1.0479 -1.0034  1.4609
  184MOL    C7433380   0.277   3.035   1.821  0.4332  0.3135 -1.0405
  184MOL    C7533381   0.247   2.894   1.885 -0.4199  0.5175 -0.4398
  184MOL    C7633382   0.357   2.883   1.994  0.3984  0.2255  0.2304
  184MOL    H7733383   0.376   3.019   1.777  1.1536 -2.1238  1.2469
  184MOL    H7833384   0.274   3.108   1.901 -0.3965  1.1092 -1.7932
  184MOL    H7933385   0.262   2.813   1.814 -0.1568 -0.6619  0.9143
  184MOL    H8033386   0.343   2.790   2.048 -1.3328  0.2700 -0.1034
  184MOL    H8133387   0.461   2.881   1.961  0.0346  1.0994 -1.0159
  184MOL    H8233388   0.339   2.965   2.064 -2.2508 -1.5125  1.6908
  184MOL    C8333389   0.101   2.891   1.950 -0.0259 -0.3378 -0.3908
  184MOL    C8433390   0.060   2.748   2.000 -0.0305  0.0177 -0.2007
  184MOL    C8533391   7.633   2.754   2.095 -0.3127 -0.3382  0.0466
  184MOL    H8633392   0.100   2.960   2.034 -0.4507 -1.8129  0.8440
  184MOL    H8733393   0.022   2.923   1.882  0.5237  1.5559 -0.1648
  184MOL    H8833394   0.146   2.714   2.057  0.2667  1.3614  0.1608
  184MOL    H8933395   7.665   2.792   2.193  0.8913 -1.8566  0.2498
  184MOL    H9033396   7.561   2.828   2.058  0.1421  0.2397  0.3026
  184MOL    H9133397   7.576   2.664   2.117 -0.9687  0.4298  1.6621
  184MOL    C9233398   0.044   2.646   1.884  0.1014  0.4193  0.7945
  184MOL    C9333399   7.692   2.506   1.924  0.0529  0.0466  0.0019
  184MOL    C9433400   7.692   2.429   1.786  0.7100  0.5407  0.4247
  184MOL    H9533401   7.669   2.688   1.815  1.4612 -0.7119 -1.3662
  184MOL    H9633402   0.143   2.646   1.838  0.1440 -1.2007  0.8743
  184MOL    H9733403   7.584   2.511   1.936 -0.3006 -2.7509 -1.4504
  184MOL    H9833404   7.619   2.348   1.786 -0.6096  1.7043 -0.5337
  184MOL    H9933405   7.678   2.493   1.699 -1.2941 -1.0547 -0.4660
  184MOL   H10033406   0.092   2.381   1.773  0.9963  0.1943  3.4985
  184MOL   C10133407   0.071   2.436   2.031 -0.1710 -0.0204  0.0225
  184MOL   C10233408   0.001   2.302   2.081 -0.2659 -0.4220  0.1860
  184MOL   C10333409   0.107   2.226   2.161 -0.3169 -0.7800 -0.8876
  184MOL   H10433410   0.162   2.404   1.981  0.1412  1.1540 -0.1770
  184MOL   H10533411   0.092   2.503   2.113 -0.1286  0.7510 -0.6141
  184MOL   H10633412   7.664   2.243   1.996  0.6846 -2.1117  0.9505
  184MOL   H10733413   0.187   2.210   2.089  2.6764  0.4676  2.0204
  184MOL   H10833414   0.144   2.280   2.248 -0.9558  1.9761 -2.2762
  184MOL   H10933415   0.068   2.131   2.196 -0.5714  0.0348  1.0929
  184MOL   C11033416   7.575   2.331   2.172 -0.2292 -0.4282 -0.2918
  184MOL   C11133417   7.490   2.206   2.219 -0.1858  0.1522  0.2268
  184MOL   C11233418   7.382   2.258   2.309  0.2514  0.0228 -0.8382
  184MOL   H11333419   7.603   2.385   2.263  0.3011  0.4748 -0.9886
  184MOL   H11433420   7.507   2.400   2.122 -0.0407 -0.0052  0.0336
  184MOL   H11533421   7.556   2.142   2.277 -1.8136  0.3679  2.3374
  184MOL   H11633422   7.305   2.190   2.345 -0.2603  2.2418  2.4086
  184MOL   H11733423   7.422   2.310   2.396  0.0968 -1.4139  0.1190
  184MOL   H11833424   7.323   2.332   2.256  1.9872  1.7604 -0.4077
  184MOL   C11933425   7.412   2.150   2.093 -0.7503 -0.6756 -0.0565
  184MOL   C12033426   7.319   2.034   2.125  0.1427  0.8743  0.1268
  184MOL   C12133427   7.259   1.981   1.993  0.3724 -0.1109  0.8858
  184MOL   H12233428   7.359   2.223   2.033 -3.0160 -2.0230  0.2324
  184MOL   H12333429   7.488   2.111   2.025  0.7234 -1.0199  1.7256
  184MOL   H12433430   7.235   2.059   2.190 -1.3908  4.2339 -2.9842
  184MOL   H12533431   7.185   1.902   2.008  0.0146 -0.4266 -2.2745
  184MOL   H12633432   7.210   2.058   1.933 -1.7672 -1.4600  0.8087
  184MOL   H12733433   7.342   1.944   1.934  0.4813 -2.5976  2.5082
  184MOL   C12833434   7.396   1.918   2.203 -0.1395  0.0644 -0.1361
  184MOL   C12933435   7.311   1.801   2.258  0.1806 -0.3150 -0.6480
  184MOL   C13033436   7.396   1.678   2.269 -0.2494  0.5398 -0.1140
  184MOL   H13133437   7.463   1.873   2.129  0.7140  0.1871  0.5524
  184MOL   H13233438   7.451   1.964   2.285  1.2850 -0.6684 -0.6705
  184MOL   H13333439   7.234   1.780   2.184  1.7573  1.2170 -2.7582
  184MOL   H13433440   7.409   1.633   2.170 -0.6874  3.3763 -1.5078
  184MOL   H13533441   7.491   1.696   2.320 -0.9228 -0.5982  1.5797
  184MOL   H13633442   7.346   1.604   2.332 -1.6202  0.9309 -0.7311
  184MOL   C13733443   7.256   1.843   2.404  0.5086  0.0182  0.5309
  184MOL   C13833444   7.111   1.814   2.445 -0.0671 -0.6311  0.3339
  184MOL   C13933445   7.093   1.669   2.473  0.1357  0.1772  0.6080
  184MOL   H14033446   7.322   1.794   2.475  0.1540  0.9987  1.5458
  184MOL   H14133447   7.283   1.948   2.417  0.2848  0.3237 -1.2727
  184MOL   H14233448   7.050   1.850   2.362 -1.1365 -0.7398  1.0567
  184MOL   H14333449   7.179   1.629   2.526  0.3702  1.4322  1.2090
  184MOL   H14433450   7.007   1.648   2.537  1.5024  0.1850  2.5131
  184MOL   H14533451   7.082   1.609   2.383 -0.5027  1.5230 -0.2260
  184MOL   C14633452   7.072   1.889   2.578  0.7568 -0.3858  0.3749
  184MOL   C14733453   7.042   2.037   2.586  0.0184 -0.3121  0.5033
  184MOL   C14833454   6.920   2.074   2.506 -0.3270  0.0143 -0.3744
  184MOL   H14933455   6.979   1.846   2.614 -0.5773  0.1298 -2.3513
  184MOL   H15033456   7.143   1.862   2.657  1.6894  0.6468 -0.0805
  184MOL   H15133457   7.126   2.093   2.547 -0.0272  0.2714  1.2205
  184MOL   H15233458   6.827   2.023   2.531 -1.2621  1.2292 -1.3391
  184MOL   H15333459   6.894   2.177   2.530  0.0500  0.2321 -0.9146
  184MOL   H15433460   6.933   2.070   2.398  0.8698 -2.0048 -0.1867
  184MOL   C15533461   7.027   2.076   2.734 -0.2109 -0.3331 -0.3443
  184MOL   C15633462   7.149   2.075   2.823 -0.0457 -0.1483 -0.0075
  184MOL   C15733463   7.238   2.195   2.792 -0.4061 -0.1885  0.9029
  184MOL   H15833464   6.985   2.173   2.760  0.6664 -0.6445  2.4181
  184MOL   H15933465   6.954   2.004   2.773 -0.8006  0.5414  0.2030
  184MOL   H16033466   7.224   2.001   2.796 -0.1800 -0.8339  1.4453
  184MOL   H16133467   7.273   2.202   2.689 -1.5597 -0.9313  0.4454
  184MOL   H16233468   7.179   2.285   2.809 -5.7518 -3.2197 -0.3332
  184MOL   H16333469   7.326   2.198   2.856  1.7930 -3.0387 -1.8661
  184MOL   C16433470   7.116   2.071   2.974  0.1023 -0.4717  0.0156
  184MOL   C16533471   7.106   1.926   3.036 -0.2380 -0.2664  0.1294
  184MOL   C16633472   7.235   1.841   3.034  0.0654  0.7651  0.2050
  184MOL   H16733473   7.187   2.132   3.030 -1.5511  0.6039  1.0050
  184MOL   H16833474   7.026   2.131   2.985  1.1666  0.9939  0.8118
  184MOL   H16933475   7.044   1.865   2.970 -0.1791 -0.5734  0.3557
  184MOL   H17033476   7.264   1.804   2.936 -0.8021 -1.6234  0.8210
  184MOL   H17133477   7.318   1.901   3.071  1.4855 -1.1618  0.1994
  184MOL   H17233478   7.221   1.748   3.089  2.7494  0.5196  0.5297
  184MOL   C17333479   7.041   1.932   3.180 -0.4273 -0.2158 -0.0067
  184MOL   C17433480   7.130   2.005   3.279  0.3759 -0.7797 -0.3569
  184MOL   C17533481   7.110   1.984   3.439  0.1154 -0.1018  0.6972
  184MOL   H17633482   6.948   1.988   3.174 -1.2709 -1.6829 -0.8734
  184MOL   H17733483   7.009   1.832   3.210  0.6610  0.1375  2.4430
  184MOL   H17833484   7.124   2.108   3.243 -0.9564 -1.6469 -2.6563
  184MOL   H17933485   7.140   1.889   3.483 -0.4107 -0.1278  0.9911
  184MOL   H18033486   7.173   2.059   3.487 -0.4695  1.0892 -0.3831
  184MOL   H18133487   7.008   2.013   3.463 -0.0320  0.0884 -0.1692
  184MOL   H18233488   7.230   1.968   3.256  0.0988 -2.0166  0.3862
  185MOL     C133489   2.577   6.110   3.259 -0.3655  0.9098  0.0608
  185MOL     C233490   2.450   6.025   3.224  0.0199 -0.3395 -0.1100
  185MOL     C333491   2.357   6.100   3.133  0.2498  0.2908  0.3068
  185MOL     H433492   2.640   6.060   3.333  1.4039  2.8327 -0.1204
  185MOL     H533493   2.550   6.208   3.298 -2.1823  0.9941 -1.3191
  185MOL     H633494   2.387   6.033   3.312  1.0739  2.3226  0.4784
  185MOL     H733495   2.397   6.100   3.032  1.0188 -1.7071  0.5877
  185MOL     H833496   2.260   6.052   3.130  1.3479 -2.0636  1.1406
  185MOL     H933497   2.352   6.208   3.143 -0.7646  0.2824 -0.0728
  185MOL    H1033498   2.649   6.125   3.179  1.4378 -0.5947  1.3591
  185MOL    C1133499   2.488   5.883   3.180 -0.6089 -0.2249 -0.1247
  185MOL    C1233500   2.448   5.764   3.270  0.4717  0.4030 -0.1759
  185MOL    C1333501   2.518   5.795   3.411  0.0814  0.1243 -0.3270
  185MOL    H1433502   2.457   5.865   3.077  0.1647 -0.3933 -0.3263
  185MOL    H1533503   2.596   5.876   3.170 -0.3369 -0.6785  2.6323
  185MOL    H1633504   2.470   5.664   3.232  0.7567  0.2978  0.2686
  185MOL    H1733505   2.493   5.898   3.437  2.2499  0.8607 -1.0800
  185MOL    H1833506   2.490   5.734   3.497 -0.8827  1.3246  0.2414
  185MOL    H1933507   2.624   5.819   3.408  0.0001  0.3990 -0.9095
  185MOL    C2033508   2.300   5.772   3.279  0.3599  0.5847 -0.7320
  185MOL    C2133509   2.230   5.651   3.340  0.1515 -0.4415 -0.2086
  185MOL    C2233510   2.087   5.688   3.371 -0.2248 -0.0041  0.1472
  185MOL    H2333511   2.282   5.850   3.352  2.0193  1.2065 -0.9531
  185MOL    H2433512   2.254   5.799   3.184  1.2094 -2.5030 -2.0861
  185MOL    H2533513   2.283   5.622   3.431 -2.1371 -1.7805  0.7329
  185MOL    H2633514   2.042   5.730   3.280 -1.8388 -0.5524  0.6877
  185MOL    H2733515   2.030   5.602   3.406  1.1376 -0.5103  1.1332
  185MOL    H2833516   2.102   5.760   3.451  1.5002 -0.9236  0.6525
  185MOL    C2933517   2.234   5.525   3.243 -0.0390 -0.2443  0.2203
  185MOL    C3033518   2.147   5.405   3.293  0.7367 -0.0262 -0.1297
  185MOL    C3133519   2.160   5.280   3.196  0.0691 -0.0536  0.3884
  185MOL    H3233520   2.202   5.570   3.150  0.6638  1.5793  0.8528
  185MOL    H3333521   2.338   5.497   3.228  0.3984  1.2285  0.4576
  185MOL    H3433522   2.044   5.436   3.279  1.1283 -0.0572 -3.4953
  185MOL    H3533523   2.116   5.313   3.102  2.6959  3.2406  0.2025
  185MOL    H3633524   2.268   5.266   3.187  0.4830  3.1821 -0.3166
  185MOL    H3733525   2.126   5.188   3.242  0.0243 -0.2967 -0.1240
  185MOL    C3833526   2.158   5.354   3.439  0.2833 -0.2050  0.0192
  185MOL    C3933527   2.278   5.274   3.488 -0.2141  0.4130  0.0168
  185MOL    C4033528   2.408   5.357   3.485 -0.1410 -0.4796  0.7257
  185MOL    H4133529   2.149   5.442   3.504  1.4915 -0.5448  0.6728
  185MOL    H4233530   2.064   5.304   3.459 -0.1369  0.4282 -0.3563
  185MOL    H4333531   2.290   5.189   3.421 -3.2280 -0.3905  0.4246
  185MOL    H4433532   2.492   5.308   3.535 -0.6412 -0.2798  1.7726
  185MOL    H4533533   2.444   5.402   3.392  0.1779 -0.7205  0.7320
  185MOL    H4633534   2.399   5.444   3.550 -1.3851 -0.1410  0.1126
  185MOL    C4733535   2.250   5.211   3.628 -0.2603  0.6438  0.0797
  185MOL    C4833536   2.355   5.110   3.687  0.5632 -0.3962  0.3123
  185MOL    C4933537   2.355   5.134   3.836 -0.1450  0.2855 -0.3205
  185MOL    H5033538   2.236   5.289   3.702  0.7035 -1.5182  2.6437
  185MOL    H5133539   2.156   5.156   3.637  0.4305 -0.1675  2.5287
  185MOL    H5233540   2.457   5.117   3.648  1.3047  0.1743  2.2524
  185MOL    H5333541   2.413   5.065   3.897 -0.2969  0.5116  0.0819
  185MOL    H5433542   2.383   5.236   3.864 -0.1532 -0.3230  1.9900
  185MOL    H5533543   2.258   5.132   3.885  1.5664  3.3886  3.4625
  185MOL    C5633544   2.316   4.960   3.661  0.3840 -0.0515 -0.3048
  185MOL    C5733545   2.408   4.847   3.709 -0.1940  0.2201 -0.5311
  185MOL    C5833546   2.340   4.716   3.687  0.5419  0.4260 -0.6535
  185MOL    H5933547   2.216   4.939   3.699 -0.0472  0.2829 -1.2423
  185MOL    H6033548   2.305   4.951   3.553 -1.0237  0.9378 -0.2533
  185MOL    H6133549   2.426   4.850   3.816  0.9229 -1.8728 -0.6309
  185MOL    H6233550   2.307   4.706   3.584  0.9928 -1.2436 -0.6484
  185MOL    H6333551   2.395   4.628   3.720 -0.8193  0.2681  1.2691
  185MOL    H6433552   2.250   4.697   3.746  0.9395  1.2634  0.2348
  185MOL    C6533553   2.551   4.853   3.636 -0.5945 -0.2341 -0.2914
  185MOL    C6633554   2.656   4.742   3.649  0.1712  0.3590 -0.2574
  185MOL    C6733555   2.760   4.760   3.544 -0.3339  0.0198 -0.3109
  185MOL    H6833556   2.523   4.875   3.533  1.0891 -0.8246 -0.8905
  185MOL    H6933557   2.587   4.953   3.660 -1.0839 -0.0906 -0.1423
  185MOL    H7033558   2.608   4.645   3.636 -0.5801  0.3206  2.4487
  185MOL    H7133559   2.716   4.776   3.446 -0.6120 -1.2924 -0.4097
  185MOL    H7233560   2.809   4.851   3.578  0.1416 -0.0419 -0.8374
  185MOL    H7333561   2.835   4.680   3.547  0.1818  0.4261 -2.1489
  185MOL    C7433562   2.712   4.767   3.799  0.3070 -0.6972  1.1962
  185MOL    C7533563   2.797   4.649   3.856 -0.2670  0.0809  0.1576
  185MOL    C7633564   2.732   4.517   3.831  0.0831  1.2282 -0.4383
  185MOL    H7733565   2.768   4.859   3.782  1.2340 -1.1862  1.5752
  185MOL    H7833566   2.633   4.794   3.869 -0.9362  0.3094 -0.5767
  185MOL    H7933567   2.797   4.667   3.963  2.0389  0.8202  0.0719
  185MOL    H8033568   2.734   4.481   3.728 -1.4793 -1.7420  0.5299
  185MOL    H8133569   2.774   4.434   3.888 -0.6595  0.5381 -0.9069
  185MOL    H8233570   2.628   4.521   3.862  0.3086  0.5623  0.4374
  185MOL    C8333571   2.944   4.650   3.804 -0.1750  0.6862 -0.2844
  185MOL    C8433572   3.040   4.775   3.817 -0.2144  0.0855 -0.0316
  185MOL    C8533573   3.060   4.823   3.970  0.0273  0.6101  0.2465
  185MOL    H8633574   2.993   4.570   3.858 -0.4618  1.7010  1.5110
  185MOL    H8733575   2.943   4.613   3.701 -3.1527  1.2149 -0.4931
  185MOL    H8833576   2.993   4.848   3.750  2.8225  0.0541 -2.3151
  185MOL    H8933577   3.079   4.930   3.969 -2.8201  1.1748 -0.4290
  185MOL    H9033578   2.966   4.799   4.021 -0.5482 -0.1491 -1.1449
  185MOL    H9133579   3.145   4.778   4.021 -0.6156 -2.5030 -1.2636
  185MOL    C9233580   3.180   4.742   3.748  0.2611  0.1185  0.3185
  185MOL    C9333581   3.290   4.847   3.739 -0.0583 -0.5095 -0.3119
  185MOL    C9433582   3.221   4.981   3.717 -0.6844 -0.0695  0.5121
  185MOL    H9533583   3.216   4.644   3.780 -2.2179 -0.9596 -0.0600
  185MOL    H9633584   3.161   4.711   3.645 -2.1225 -1.0116  1.0746
  185MOL    H9733585   3.345   4.831   3.646 -0.0260  1.6377 -0.7041
  185MOL    H9833586   3.168   4.973   3.622  1.7710  3.7035 -1.3112
  185MOL    H9933587   3.159   5.014   3.800 -0.2896  0.1231  0.7321
  185MOL   H10033588   3.296   5.058   3.698 -0.6105 -0.1398  0.5219
  185MOL   C10133589   3.379   4.851   3.865 -0.0932  0.8247 -0.1886
  185MOL   C10233590   3.527   4.810   3.836 -0.2354  0.8612 -0.2326
  185MOL   C10333591   3.622   4.829   3.955  0.2646 -0.4232 -0.1293
  185MOL   H10433592   3.374   4.947   3.917 -5.4382  1.3053 -1.2631
  185MOL   H10533593   3.337   4.788   3.943  0.4877  1.1235  0.3641
  185MOL   H10633594   3.558   4.875   3.754  0.4092  2.8424  1.5387
  185MOL   H10733595   3.722   4.801   3.922  0.0895 -1.4559  0.1744
  185MOL   H10833596   3.632   4.936   3.969 -0.3372 -0.2219 -1.1554
  185MOL   H10933597   3.585   4.782   4.047 -0.2216  0.7455  0.2743
  185MOL   C11033598   3.540   4.658   3.794 -0.4624  0.9053 -0.3500
  185MOL   C11133599   3.656   4.619   3.709  0.0003 -0.0035  0.5607
  185MOL   C11233600   3.670   4.472   3.714  0.3040 -0.5727  0.3639
  185MOL   H11333601   3.543   4.597   3.885 -1.1923  3.2987  1.3112
  185MOL   H11433602   3.452   4.628   3.737  0.1453  0.3158 -0.9868
  185MOL   H11533603   3.745   4.669   3.748 -0.3420  1.2438 -0.2344
  185MOL   H11633604   3.708   4.451   3.814 -2.4540 -1.9855  1.1747
  185MOL   H11733605   3.577   4.423   3.686  0.5154  0.1616 -1.7013
  185MOL   H11833606   3.748   4.431   3.650  1.9083  0.6636  1.4920
  185MOL   C11933607   3.639   4.667   3.567 -0.5174  0.1815 -0.2630
  185MOL   C12033608   3.767   4.653   3.476  0.8235  0.0180 -0.8324
  185MOL   C12133609   3.722   4.618   3.330 -0.1587 -0.7425 -0.1039
  185MOL   H12233610   3.569   4.597   3.522  0.4281 -0.5332 -0.6390
  185MOL   H12333611   3.584   4.761   3.561  0.1763  0.7411  1.5590
  185MOL   H12433612   3.834   4.570   3.501 -1.3955 -0.9715  2.1492
  185MOL   H12533613   3.692   4.515   3.308  4.0038 -2.3321  1.1347
  185MOL   H12633614   3.634   4.679   3.312  0.6930  0.8262  0.9335
  185MOL   H12733615   3.799   4.638   3.256 -1.8910  1.1879 -1.4385
  185MOL   C12833616   3.841   4.787   3.472  0.0776  0.4736  0.2262
  185MOL   C12933617   3.933   4.829   3.593  0.2701  0.5189  0.2857
  185MOL   C13033618   4.055   4.743   3.606 -0.0768 -0.0073 -0.3909
  185MOL   H13133619   3.887   4.812   3.376  2.8022  1.1122  1.6434
  185MOL   H13233620   3.761   4.860   3.461  0.0887  0.1794 -2.0953
  185MOL   H13333621   3.872   4.813   3.682 -1.9337  0.4337 -1.1944
  185MOL   H13433622   4.135   4.774   3.673 -1.8763  1.6407  1.0585
  185MOL   H13533623   4.027   4.640   3.629 -2.1461  0.5950 -0.1560
  185MOL   H13633624   4.078   4.706   3.505 -0.2889  2.4867 -1.3829
  185MOL   C13733625   3.965   4.978   3.590  1.0404 -0.1641  0.5437
  185MOL   C13833626   4.043   5.034   3.709 -0.4562  1.0064  0.3398
  185MOL   C13933627   4.050   5.179   3.698 -0.1684 -0.1866 -0.5290
  185MOL   H14033628   4.028   4.992   3.502 -1.7866  0.9000 -1.4005
  185MOL   H14133629   3.872   5.035   3.581  1.8750  1.2642  0.9311
  185MOL   H14233630   4.143   4.996   3.689 -1.0654 -2.2744  3.1007
  185MOL   H14333631   4.110   5.235   3.770  0.6492 -0.0838 -1.2830
  185MOL   H14433632   4.079   5.215   3.599  0.9739  0.4753  0.0483
  185MOL   H14533633   3.948   5.210   3.724 -0.0184 -0.3882  0.3002
  185MOL   C14633634   3.995   4.986   3.847  0.6121  0.0476 -0.1837
  185MOL   C14733635   4.060   5.031   3.977 -0.4401 -0.3370  0.2530
  185MOL   C14833636   3.984   4.979   4.099 -0.5245 -0.5294 -0.8387
  185MOL   H14933637   3.889   5.009   3.856  1.1585  2.7250 -0.0523
  185MOL   H15033638   3.992   4.877   3.846  3.0980 -0.0887  1.3871
  185MOL   H15133639   4.045   5.138   3.967  0.0899 -0.1724  1.1387
  185MOL   H15233640   4.019   5.024   4.192 -1.9593  1.9379 -1.4335
  185MOL   H15333641   3.877   4.991   4.082 -0.5188 -0.9178 -1.1520
  185MOL   H15433642   3.999   4.872   4.110 -0.0130 -0.2656  1.2909
  185MOL   C15533643   4.221   4.998   3.978  0.3052  0.0552 -0.1057
  185MOL   C15633644   4.294   5.021   4.113 -0.6678 -0.0024  0.3337
  185MOL   C15733645   4.433   4.951   4.123 -0.1585 -0.5054  0.0981
  185MOL   H15833646   4.229   4.891   3.958  0.9766 -0.4112  2.4853
  185MOL   H15933647   4.275   5.043   3.895  0.0561 -0.2614 -0.4397
  185MOL   H16033648   4.219   4.973   4.176  0.3312  0.1573  1.6576
  185MOL   H16133649   4.517   4.995   4.069  0.2033 -2.6912 -1.1603
  185MOL   H16233650   4.461   4.933   4.227 -1.9065 -0.6708  0.5588
  185MOL   H16333651   4.421   4.850   4.085 -1.6211 -0.1815 -0.3350
  185MOL   C16433652   4.307   5.167   4.156 -0.1918 -0.1800  0.1401
  185MOL   C16533653   4.353   5.193   4.302  0.1699 -0.3480 -0.5717
  185MOL   C16633654   4.409   5.333   4.316 -0.1426 -0.3788  0.3901
  185MOL   H16733655   4.380   5.213   4.090  0.3886  0.0558  0.9434
  185MOL   H16833656   4.217   5.223   4.133 -2.0152 -2.4662  1.4257
  185MOL   H16933657   4.434   5.129   4.338 -0.1450 -0.6939 -0.4785
  185MOL   H17033658   4.467   5.341   4.407 -2.0504  0.0675  1.5962
  185MOL   H17133659   4.489   5.362   4.248  0.3004  2.5993  2.1180
  185MOL   H17233660   4.339   5.416   4.302 -0.2038 -0.2813  1.2574
  185MOL   C17333661   4.250   5.160   4.407  0.5996 -0.7283  0.0104
  185MOL   C17433662   4.118   5.239   4.419  0.1295 -0.5042 -0.1184
  185MOL   C17533663   4.045   5.190   4.543 -0.2871  0.1686 -0.3747
  185MOL   H17633664   4.225   5.054   4.397 -0.4079 -0.6751  1.6988
  185MOL   H17733665   4.303   5.151   4.502  1.6656 -2.9737 -0.7651
  185MOL   H17833666   4.057   5.220   4.331  0.4803 -0.1591 -0.4412
  185MOL   H17933667   4.086   5.218   4.640 -1.4553  0.1955  0.1216
  185MOL   H18033668   3.946   5.234   4.548 -0.9684 -1.2677 -1.0178
  185MOL   H18133669   4.022   5.083   4.540  1.4548 -0.3006  1.5943
  185MOL   H18233670   4.125   5.348   4.421  2.5082 -0.6412  0.4696
  186MOL     C133671   7.474   2.892   4.826  0.2752  0.3432 -0.0114
  186MOL     C233672   7.465   2.944   4.680  0.2174 -0.3601 -0.2627
  186MOL     C333673   7.346   3.036   4.658 -0.5134 -0.1584 -0.1750
  186MOL     H433674   7.383   2.840   4.854 -1.5913  2.6178 -1.6611
  186MOL     H533675   7.494   2.979   4.888  3.7611 -1.1432  1.0495
  186MOL     H633676   7.450   2.851   4.625  0.8907 -0.7261  0.1714
  186MOL     H733677   7.312   3.073   4.561 -1.5640  1.7725  0.9059
  186MOL     H833678   7.260   2.993   4.710 -0.6259  0.1125 -0.1348
  186MOL     H933679   7.370   3.119   4.723  0.7615 -2.3682  2.2858
  186MOL    H1033680   7.558   2.824   4.841  0.4685  0.5629 -0.0849
  186MOL    C1133681   7.597   3.012   4.624  0.4972 -0.1501  0.1751
  186MOL    C1233682   0.029   2.931   4.645 -0.0905 -0.5368  0.4376
  186MOL    C1333683   0.039   2.788   4.576 -0.5788 -0.5296 -0.3969
  186MOL    H1433684   7.584   3.029   4.517 -3.5577  0.0336  0.6268
  186MOL    H1533685   7.606   3.109   4.672 -0.8396 -0.0920  0.3232
  186MOL    H1633686   0.038   2.918   4.753  1.1076  1.2838  0.5852
  186MOL    H1733687   0.028   2.783   4.468  1.0618  0.7114 -0.6413
  186MOL    H1833688   0.137   2.745   4.597 -0.4018 -0.3577 -0.8615
  186MOL    H1933689   7.669   2.710   4.613  0.3699 -0.8522  0.6925
  186MOL    C2033690   0.145   3.028   4.617  0.3446 -0.0727  0.3643
  186MOL    C2133691   0.287   2.978   4.655 -0.7694  0.3610 -0.5546
  186MOL    C2233692   0.381   3.097   4.636  0.1957 -0.4923  0.7679
  186MOL    H2333693   0.142   3.048   4.510 -2.7891 -0.9263  0.2443
  186MOL    H2433694   0.119   3.117   4.675 -0.7435 -0.0838 -0.0835
  186MOL    H2533695   0.325   2.908   4.581  1.1490  0.2695  0.4999
  186MOL    H2633696   0.374   3.143   4.538  0.3886  1.1475  1.5028
  186MOL    H2733697   0.342   3.171   4.707 -0.9998 -0.6028  0.2447
  186MOL    H2833698   0.487   3.091   4.657  0.2524  2.6697  1.6854
  186MOL    C2933699   0.311   2.927   4.799  0.1027  0.4277 -0.6306
  186MOL    C3033700   0.411   2.808   4.823 -0.0979 -0.6519  0.1149
  186MOL    C3133701   0.347   2.676   4.768 -0.0832  0.1729  0.9033
  186MOL    H3233702   0.344   3.007   4.865  0.2494 -2.3185  2.8204
  186MOL    H3333703   0.220   2.885   4.842 -1.7368  3.4180 -1.4810
  186MOL    H3433704   0.420   2.774   4.926  0.9478 -1.4398 -0.2202
  186MOL    H3533705   0.247   2.662   4.809 -0.9161 -1.0089 -1.4161
  186MOL    H3633706   0.352   2.683   4.659 -1.3620 -1.1146  0.7424
  186MOL    H3733707   0.404   2.592   4.809  0.6879  1.2800  2.1237
  186MOL    C3833708   0.552   2.831   4.757 -0.4407  0.3373  0.2741
  186MOL    C3933709   0.654   2.904   4.843  0.1858 -0.4419 -0.3295
  186MOL    C4033710   0.745   2.802   4.922 -0.2449 -0.4277  0.6540
  186MOL    H4133711   0.593   2.734   4.729 -0.9249  0.2289 -0.0556
  186MOL    H4233712   0.540   2.876   4.659 -0.1441 -0.8384 -0.3021
  186MOL    H4333713   0.603   2.956   4.923  1.6909 -0.2334  0.5183
  186MOL    H4433714   0.816   2.851   4.989 -0.1102  1.7568 -1.0660
  186MOL    H4533715   0.687   2.741   4.992  0.9014  1.0276  2.9445
  186MOL    H4633716   0.788   2.735   4.848 -3.2299 -2.0813  0.3172
  186MOL    C4733717   0.747   3.007   4.766  0.2072  0.6683  0.5253
  186MOL    C4833718   0.776   3.142   4.830  0.3200 -0.8000 -0.2182
  186MOL    C4933719   0.833   3.127   4.980 -0.1606 -0.3291 -0.6977
  186MOL    H5033720   0.841   2.954   4.753  0.1413  0.2831  1.5902
  186MOL    H5133721   0.714   3.024   4.664 -0.6834  0.9741  0.8601
  186MOL    H5233722   0.676   3.185   4.836  1.0259  1.1152 -1.5446
  186MOL    H5333723   0.825   3.230   5.014  0.6422 -0.1132 -1.1362
  186MOL    H5433724   0.758   3.072   5.037 -0.1496 -0.8396 -1.1680
  186MOL    H5533725   0.936   3.092   4.988  0.6228  1.3058 -3.0669
  186MOL    C5633726   0.860   3.231   4.748 -0.3082  0.1837 -0.4332
  186MOL    C5733727   0.812   3.379   4.743  0.2531  0.0908 -0.4745
  186MOL    C5833728   0.931   3.467   4.698 -0.6540 -0.0554 -0.9363
  186MOL    H5933729   0.963   3.228   4.782 -0.1977 -0.8767 -0.8454
  186MOL    H6033730   0.875   3.193   4.647  0.9801  0.6336 -0.4169
  186MOL    H6133731   0.786   3.406   4.845  1.3933  1.8436 -0.6264
  186MOL    H6233732   0.910   3.567   4.658  2.2443  1.6313  1.5113
  186MOL    H6333733   0.998   3.480   4.783 -1.6364  2.2435 -0.4748
  186MOL    H6433734   0.978   3.407   4.620 -1.6809  0.2188 -1.7708
  186MOL    C6533735   0.695   3.388   4.640  0.1539 -0.5194 -0.2997
  186MOL    C6633736   0.617   3.524   4.643  0.0136  0.4653 -0.1067
  186MOL    C6733737   0.538   3.527   4.512  0.0744 -0.2306  0.1440
  186MOL    H6833738   0.726   3.373   4.536 -3.6133  2.4056 -1.9525
  186MOL    H6933739   0.621   3.311   4.659 -1.6269  0.9832 -0.9821
  186MOL    H7033740   0.686   3.608   4.641  1.7036 -0.9322 -2.6471
  186MOL    H7133741   0.492   3.625   4.495  1.1184  0.3672  0.6832
  186MOL    H7233742   0.599   3.538   4.421 -0.3598 -0.7483 -0.2101
  186MOL    H7333743   0.466   3.447   4.500 -1.1473  0.6865  1.2125
  186MOL    C7433744   0.528   3.524   4.774 -0.1373 -0.2481 -0.0800
  186MOL    C7533745   0.457   3.660   4.787 -0.2608 -0.6248  0.5328
  186MOL    C7633746   0.340   3.642   4.890 -0.0084 -0.6763 -0.4082
  186MOL    H7733747   0.448   3.451   4.766  1.0219 -1.5659  0.3508
  186MOL    H7833748   0.589   3.508   4.863 -0.5948  1.0630  0.4846
  186MOL    H7933749   0.409   3.682   4.692 -0.6800  1.6210  1.2191
  186MOL    H8033750   0.377   3.616   4.989 -2.4934  1.0584  1.0350
  186MOL    H8133751   0.267   3.721   4.909 -1.2295 -2.1396  1.2300
  186MOL    H8233752   0.277   3.558   4.858  0.7840 -0.7585 -1.7860
  186MOL    C8333753   0.549   3.778   4.813 -0.0207 -0.3293 -0.4396
  186MOL    C8433754   0.476   3.915   4.812 -0.1876 -0.3428  0.0967
  186MOL    C8533755   0.449   3.985   4.946  0.7071 -0.8763  0.0338
  186MOL    H8633756   0.577   3.750   4.915 -1.2602 -1.6813 -0.4576
  186MOL    H8733757   0.641   3.777   4.755  0.4378 -1.3112  0.2842
  186MOL    H8833758   0.379   3.907   4.764 -0.1919 -0.7684  0.1769
  186MOL    H8933759   0.411   3.910   5.016  1.0217 -1.3594 -0.3134
  186MOL    H9033760   0.534   4.041   4.985  0.2095 -0.6968  0.8990
  186MOL    H9133761   0.372   4.059   4.923  2.5504  0.2074 -2.8793
  186MOL    C9233762   0.549   4.006   4.713 -0.0932  0.1865 -0.5534
  186MOL    C9333763   0.574   3.958   4.568  0.5821 -0.2094 -0.1106
  186MOL    C9433764   0.433   3.944   4.502  0.1405 -1.0953  0.0678
  186MOL    H9533765   0.512   4.109   4.713 -0.0599  0.2130  1.3324
  186MOL    H9633766   0.642   4.027   4.765  0.1479  1.3433 -1.4370
  186MOL    H9733767   0.622   3.860   4.560 -1.8924 -1.5385  0.7501
  186MOL    H9833768   0.409   4.020   4.428  1.1692  0.2504  1.1047
  186MOL    H9933769   0.418   3.850   4.448 -0.5601  1.2569 -3.9830
  186MOL   H10033770   0.346   3.954   4.567  1.1567  2.0674  1.0419
  186MOL   C10133771   0.650   4.068   4.492  0.0342 -0.4869 -0.3642
  186MOL   C10233772   0.805   4.077   4.524 -0.0680  0.0252 -0.4958
  186MOL   C10333773   0.882   3.972   4.437  0.7163  0.3041 -0.6855
  186MOL   H10433774   0.650   4.050   4.384  0.6357 -0.1725 -0.4181
  186MOL   H10533775   0.592   4.160   4.505 -1.8975 -1.7122  0.0344
  186MOL   H10633776   0.825   4.053   4.629  0.9639  0.7334 -0.5170
  186MOL   H10733777   0.850   3.869   4.451 -1.5163  0.9187 -1.0284
  186MOL   H10833778   0.873   3.998   4.331 -3.1152  0.6825 -0.3521
  186MOL   H10933779   0.987   3.969   4.465  0.9642  0.3266 -1.5980
  186MOL   C11033780   0.866   4.217   4.500 -0.2459 -0.0123 -0.3501
  186MOL   C11133781   0.817   4.331   4.585 -0.1879 -0.2343 -0.6043
  186MOL   C11233782   0.858   4.312   4.733 -0.1566 -0.4477  0.6355
  186MOL   H11333783   0.974   4.206   4.504 -0.1393  0.7168 -1.1053
  186MOL   H11433784   0.848   4.232   4.393  2.9032 -0.9173 -1.0741
  186MOL   H11533785   0.709   4.318   4.593 -0.1068  0.0781  1.0232
  186MOL   H11633786   0.817   4.215   4.762 -1.4670 -0.3100 -0.6826
  186MOL   H11733787   0.966   4.314   4.742 -0.0589 -2.0230  0.0113
  186MOL   H11833788   0.813   4.384   4.802  0.8870  0.1209  0.7185
  186MOL   C11933789   0.856   4.470   4.538 -0.3842 -0.0244  0.1704
  186MOL   C12033790   0.830   4.522   4.398  0.5353 -0.0557  0.0751
  186MOL   C12133791   0.678   4.529   4.359  0.5760  0.0890 -0.8430
  186MOL   H12233792   0.803   4.540   4.602  1.4664  1.9321 -0.3534
  186MOL   H12333793   0.963   4.480   4.561 -0.6126 -0.4508  1.4573
  186MOL   H12433794   0.873   4.452   4.327  0.3497 -1.1718  1.0596
  186MOL   H12533795   0.633   4.430   4.360  1.9986 -0.6068  2.3070
  186MOL   H12633796   0.627   4.597   4.426  0.1671 -0.5950 -0.4500
  186MOL   H12733797   0.675   4.573   4.260 -0.6120 -0.2481 -0.9675
  186MOL   C12833798   0.893   4.657   4.365  0.0052 -0.2642 -0.0469
  186MOL   C12933799   1.041   4.669   4.374  0.7079  0.3807  0.2033
  186MOL   C13033800   1.110   4.585   4.259  0.6096  0.7470  0.3260
  186MOL   H13133801   0.862   4.699   4.269  0.4003  0.6466  0.2105
  186MOL   H13233802   0.849   4.731   4.432  0.5220  1.0033 -1.0886
  186MOL   H13333803   1.066   4.626   4.471 -0.3407 -0.1318  0.2471
  186MOL   H13433804   1.077   4.614   4.160  1.3479 -1.1441 -0.4942
  186MOL   H13533805   1.219   4.592   4.256  0.6725  1.1400  2.3768
  186MOL   H13633806   1.080   4.480   4.261  0.9931  0.4685 -3.9468
  186MOL   C13733807   1.089   4.818   4.372  0.1678 -0.3010 -0.2356
  186MOL   C13833808   1.178   4.854   4.492 -0.3210 -0.4335 -0.4288
  186MOL   C13933809   1.124   4.828   4.635  0.4575 -0.0188 -0.5495
  186MOL   H14033810   1.138   4.849   4.279  1.1452 -0.4859  0.2133
  186MOL   H14133811   0.997   4.875   4.385  0.6281 -0.1049  2.3464
  186MOL   H14233812   1.190   4.962   4.488 -0.1540 -0.3993  0.9606
  186MOL   H14333813   1.185   4.874   4.713 -0.7366 -0.9172  0.9416
  186MOL   H14433814   1.017   4.848   4.634 -0.1469 -3.1348 -0.8621
  186MOL   H14533815   1.140   4.721   4.646  0.3856  0.1577  1.4817
  186MOL   C14633816   1.322   4.792   4.472  0.1393  0.2652  0.0734
  186MOL   C14733817   1.390   4.813   4.336 -0.1623 -0.8525 -0.0066
  186MOL   C14833818   1.406   4.962   4.309  0.0378 -0.4847 -0.2089
  186MOL   H14933819   1.390   4.822   4.552  1.8450 -0.4167 -1.0856
  186MOL   H15033820   1.309   4.685   4.483 -0.7305  0.5776  2.2188
  186MOL   H15133821   1.339   4.758   4.258  1.2710 -0.9684 -0.8933
  186MOL   H15233822   1.443   4.982   4.209 -0.3527 -1.1918 -0.4973
  186MOL   H15333823   1.303   4.995   4.296  0.1719 -0.1117 -0.3150
  186MOL   H15433824   1.448   5.029   4.384  0.2382 -0.7898 -0.0489
  186MOL   C15533825   1.537   4.755   4.354 -0.0162 -0.1684 -0.0306
  186MOL   C15633826   1.620   4.758   4.229 -0.0229 -0.5049 -0.0178
  186MOL   C15733827   1.768   4.791   4.264  0.4947 -0.1923  0.0196
  186MOL   H15833828   1.595   4.813   4.427  0.1054 -0.4099  0.0635
  186MOL   H15933829   1.524   4.652   4.386 -0.8190  0.6043  2.2989
  186MOL   H16033830   1.588   4.832   4.155  1.4631 -1.3491 -1.5547
  186MOL   H16133831   1.839   4.794   4.181  1.2085  0.3591  0.6320
  186MOL   H16233832   1.770   4.894   4.301 -1.5586 -0.9817  2.4807
  186MOL   H16333833   1.811   4.735   4.348  0.2756 -0.9047 -0.3427
  186MOL   C16433834   1.624   4.623   4.141 -0.0810  0.1117  0.3339
  186MOL   C16533835   1.491   4.573   4.086  0.7641 -0.3150 -0.0069
  186MOL   C16633836   1.430   4.677   3.997 -0.2329  0.3463  0.0210
  186MOL   H16733837   1.691   4.654   4.061  1.9749  1.6807  2.5650
  186MOL   H16833838   1.686   4.550   4.194 -0.8107  1.2480  2.8380
  186MOL   H16933839   1.419   4.562   4.167 -0.4725  1.5908 -0.8269
  186MOL   H17033840   1.485   4.677   3.903  2.4854 -0.0999  1.5805
  186MOL   H17133841   1.329   4.646   3.970  0.0407  0.0552 -0.6837
  186MOL   H17233842   1.426   4.778   4.037  1.6219 -0.1442  1.4819
  186MOL   C17333843   1.514   4.438   4.030 -0.3931 -0.4119 -0.2441
  186MOL   C17433844   1.583   4.426   3.886  0.4751 -0.3000 -0.5743
  186MOL   C17533845   1.636   4.279   3.862 -0.5252  0.0293 -0.5308
  186MOL   H17633846   1.574   4.381   4.101  0.3656  1.2468  0.4754
  186MOL   H17733847   1.411   4.402   4.021 -1.7926  2.6689  2.2003
  186MOL   H17833848   1.665   4.497   3.892  0.5565 -0.4868  0.6547
  186MOL   H17933849   1.558   4.203   3.871 -1.2320  0.8781  0.6682
  186MOL   H18033850   1.690   4.276   3.768 -0.8460  0.8812 -0.7460
  186MOL   H18133851   1.700   4.255   3.947 -0.3163  1.1329 -0.3738
  186MOL   H18233852   1.511   4.445   3.806 -0.2561 -0.4137  0.0477
  187MOL     C133853   6.595   2.406   7.655 -1.3400 -0.0647 -0.2653
  187MOL     C233854   6.558   2.357   0.100  0.0511  0.3121  0.2069
  187MOL     C333855   6.633   2.439   0.202 -0.7582 -0.6179 -0.6654
  187MOL     H433856   6.556   2.338   7.579 -0.9869  0.7700 -1.2140
  187MOL     H533857   6.704   2.408   7.644 -1.2932  0.5817  0.2820
  187MOL     H633858   6.598   2.256   0.101 -0.1816  0.2200  1.5746
  187MOL     H733859   6.740   2.425   0.184 -0.5797 -0.2273  0.0692
  187MOL     H833860   6.604   2.544   0.197 -1.5789 -0.7953  0.3337
  187MOL     H933861   6.619   2.415   0.307  0.6442  1.3339  0.0051
  187MOL    H1033862   6.557   2.508   7.653 -2.6683 -0.5778 -2.0811
  187MOL    C1133863   6.408   2.362   0.146  0.1683  0.5375 -0.5245
  187MOL    C1233864   6.314   2.278   0.056 -0.0323 -0.4022  0.2572
  187MOL    C1333865   6.364   2.133   0.050 -0.1216 -0.6088 -0.2332
  187MOL    H1433866   6.381   2.330   0.247 -0.5987 -2.2078 -1.5604
  187MOL    H1533867   6.371   2.464   0.131  1.1944  0.7281 -1.8750
  187MOL    H1633868   6.312   2.326   7.655 -1.7364  0.9064  0.8950
  187MOL    H1733869   6.462   2.129   0.003  0.2838  1.7780  0.3865
  187MOL    H1833870   6.367   2.075   0.142 -0.5869 -0.0682  0.1213
  187MOL    H1933871   6.308   2.074   7.674 -1.6090  0.9115 -0.3558
  187MOL    C2033872   6.166   2.286   0.100 -0.1611 -0.0787  0.2551
  187MOL    C2133873   6.059   2.229   7.696 -0.0809 -0.4640 -0.5728
  187MOL    C2233874   5.920   2.216   0.073 -0.1885  0.2567  0.1723
  187MOL    H2333875   6.154   2.230   0.193 -0.2230  1.0619  0.9588
  187MOL    H2433876   6.145   2.388   0.134  1.3089  1.0856 -2.1389
  187MOL    H2533877   6.087   2.127   7.672  0.0239 -0.3109 -1.1018
  187MOL    H2633878   5.935   2.160   0.165 -1.9365 -0.5045  0.0133
  187MOL    H2733879   5.884   2.314   0.105 -0.2345  0.5780 -0.8598
  187MOL    H2833880   5.841   2.171   0.014  0.4841 -0.6832 -0.0299
  187MOL    C2933881   6.049   2.313   7.567  0.2852  0.8105 -0.1264
  187MOL    C3033882   6.100   2.226   7.451  0.0703 -0.5076 -0.2237
  187MOL    C3133883   6.020   2.096   7.428  0.3101  0.3582 -0.3980
  187MOL    H3233884   5.945   2.340   7.548  0.7319  1.1903 -2.0851
  187MOL    H3333885   6.104   2.407   7.573 -0.3532  1.1972 -0.2843
  187MOL    H3433886   6.198   2.195   7.486  1.0619  1.1791 -1.4109
  187MOL    H3533887   5.984   2.072   7.328  1.2473  1.9336 -1.1428
  187MOL    H3633888   6.084   2.018   7.469  0.3280  0.5608 -0.0448
  187MOL    H3733889   5.939   2.089   7.499  0.4470  0.9489 -0.1801
  187MOL    C3833890   6.125   2.306   7.326 -0.2100 -0.3178  0.0153
  187MOL    C3933891   6.261   2.382   7.320 -0.6160 -0.5489  0.4565
  187MOL    C4033892   6.382   2.286   7.317  0.4704 -0.5874  0.1354
  187MOL    H4133893   6.117   2.233   7.245 -0.0775 -0.7813  0.4134
  187MOL    H4233894   6.045   2.380   7.327 -1.4752 -1.6590  1.4882
  187MOL    H4333895   6.272   2.451   7.403  1.5867  0.6267 -0.7990
  187MOL    H4433896   6.480   2.334   7.310  0.8526 -1.5671 -1.6937
  187MOL    H4533897   6.386   2.237   7.414  0.4791 -3.4905 -1.2679
  187MOL    H4633898   6.363   2.211   7.240 -1.0588  0.2748 -0.3313
  187MOL    C4733899   6.255   2.466   7.195 -0.3107 -0.0698  0.3954
  187MOL    C4833900   6.372   2.578   7.200  0.1080  0.7264  0.3360
  187MOL    C4933901   6.433   2.611   7.064  0.0436 -0.3467 -0.4157
  187MOL    H5033902   6.274   2.402   7.109  0.1863 -1.7771  1.7493
  187MOL    H5133903   6.161   2.519   7.181  1.0432  1.5667 -3.1819
  187MOL    H5233904   6.449   2.547   7.269  0.0781 -2.6119 -1.0567
  187MOL    H5333905   6.365   2.663   6.997 -0.9776  1.7929  2.1946
  187MOL    H5433906   6.524   2.670   7.072  1.1728 -1.7905 -2.0409
  187MOL    H5533907   6.460   2.516   7.016  2.4492 -1.3170  2.6985
  187MOL    C5633908   6.309   2.709   7.264 -0.1065  0.7467 -0.1156
  187MOL    C5733909   6.412   2.821   7.294  0.2206  0.0218 -0.2380
  187MOL    C5833910   6.431   2.934   7.188  0.1779  0.2326  0.1697
  187MOL    H5933911   6.230   2.745   7.198  0.3606  0.5245 -0.7971
  187MOL    H6033912   6.240   2.692   7.347  0.1675  1.3926  0.2476
  187MOL    H6133913   6.508   2.771   7.311 -0.1442 -0.5978  0.0300
  187MOL    H6233914   6.332   2.973   7.164 -0.7801 -0.0214  3.4323
  187MOL    H6333915   6.504   3.012   7.210 -0.7778  0.6873  1.7716
  187MOL    H6433916   6.459   2.896   7.089 -2.0755  1.7783 -1.1016
  187MOL    C6533917   6.382   2.891   7.434  0.0424 -0.0017 -0.1816
  187MOL    C6633918   6.404   2.799   7.559 -0.1321  0.4146  0.0679
  187MOL    C6733919   6.551   2.788   7.594  0.2991 -0.5035  0.1601
  187MOL    H6833920   6.467   2.960   7.435  0.2695 -0.2737 -0.8248
  187MOL    H6933921   6.291   2.951   7.440 -1.0468 -1.3721 -2.5862
  187MOL    H7033922   6.363   2.699   7.548 -3.1777  1.5979  0.2186
  187MOL    H7133923   6.616   2.763   7.510  1.5333 -1.1639  1.3095
  187MOL    H7233924   6.589   2.875   7.647 -3.4250  1.5325 -0.3291
  187MOL    H7333925   6.554   2.714   7.674  2.4155 -1.4149 -0.7239
  187MOL    C7433926   6.323   2.858   7.680  0.7699 -0.1065 -1.2025
  187MOL    C7533927   6.175   2.819   7.691 -0.3409  0.1542  0.6414
  187MOL    C7633928   6.162   2.672   0.033 -0.0240  0.0526 -0.7419
  187MOL    H7733929   6.368   2.832   0.079  0.9004 -1.1552 -1.5343
  187MOL    H7833930   6.353   2.962   7.671 -1.0839  0.5278 -0.4123
  187MOL    H7933931   6.134   2.824   7.590  1.1667  1.7053  0.0734
  187MOL    H8033932   6.062   2.667   0.076 -1.0165  0.4061 -2.9253
  187MOL    H8133933   6.152   2.602   7.648  1.0317  0.4132 -1.1818
  187MOL    H8233934   6.232   2.629   0.104  2.8795  2.1353 -2.2468
  187MOL    C8333935   6.099   2.907   0.094 -0.2948 -0.2994  0.2790
  187MOL    C8433936   6.092   3.061   0.069  0.5295  0.1069  0.1272
  187MOL    C8533937   6.012   3.090   7.628 -0.2339  0.3005  0.2407
  187MOL    H8633938   5.996   2.873   0.108 -0.9323  2.2751  2.1920
  187MOL    H8733939   6.137   2.892   0.194  0.9759 -0.0164 -0.1552
  187MOL    H8833940   6.190   3.106   0.058  0.3272  0.5379  0.0687
  187MOL    H8933941   5.906   3.068   7.640  0.1014 -2.0323 -0.6465
  187MOL    H9033942   6.023   3.196   7.607  0.9231  0.4176  1.3700
  187MOL    H9133943   6.050   3.039   7.539 -1.8301 -0.0329 -0.2672
  187MOL    C9233944   6.033   3.147   0.185 -0.3841  1.2478  0.1599
  187MOL    C9333945   6.120   3.147   0.315 -0.1166  0.0330 -0.3019
  187MOL    C9433946   6.245   3.229   0.301 -0.3277  0.0440  0.5467
  187MOL    H9533947   6.010   3.246   0.145  0.7891  1.9825  1.2344
  187MOL    H9633948   5.939   3.093   0.193 -0.0263  0.9225  2.3316
  187MOL    H9733949   6.140   3.044   0.346 -3.8915 -0.4960  0.6804
  187MOL    H9833950   6.302   3.220   0.393  0.9546  1.4387 -0.0840
  187MOL    H9933951   6.317   3.192   0.228  1.3696  3.8665  0.1642
  187MOL   H10033952   6.231   3.333   0.272  2.3989  0.0818 -0.7806
  187MOL   C10133953   6.041   3.211   0.434 -0.6597  0.0547 -0.2402
  187MOL   C10233954   5.901   3.160   0.452  0.2156  0.0796 -1.0580
  187MOL   C10333955   5.915   3.006   0.472  0.2879  0.3943  0.1280
  187MOL   H10433956   6.097   3.213   0.527  0.2935  0.8608 -0.8218
  187MOL   H10533957   6.028   3.318   0.417 -0.6097 -0.1367 -1.5777
  187MOL   H10633958   5.829   3.173   0.371 -0.9249  0.4981  0.0157
  187MOL   H10733959   5.989   2.990   0.550 -1.6621  0.0888  1.9536
  187MOL   H10833960   5.820   2.965   0.508 -0.0893  0.2457 -0.9944
  187MOL   H10933961   5.949   2.956   0.381  4.0011 -0.5783  1.9491
  187MOL   C11033962   5.834   3.220   0.579 -0.0247  0.1707 -0.5080
  187MOL   C11133963   5.817   3.376   0.584 -0.2688 -0.3346  0.6833
  187MOL   C11233964   5.712   3.429   0.483  0.1787  0.1466 -0.3653
  187MOL   H11333965   5.737   3.172   0.584 -0.3433  0.6104 -1.9967
  187MOL   H11433966   5.891   3.193   0.668 -0.2663  1.2077 -0.0325
  187MOL   H11533967   5.906   3.427   0.549 -1.4393  1.0946 -0.2681
  187MOL   H11633968   5.721   3.536   0.463  2.0579  0.3330  1.2704
  187MOL   H11733969   5.730   3.382   0.387 -0.6625 -1.7252  0.3713
  187MOL   H11833970   5.613   3.401   0.518  0.9022 -1.5399  0.3746
  187MOL   C11933971   5.773   3.420   0.726 -0.1907  0.1501  0.4400
  187MOL   C12033972   5.868   3.388   0.843 -0.3120  0.1799  0.3239
  187MOL   C12133973   6.005   3.453   0.836  0.2923 -0.0458  1.1087
  187MOL   H12233974   5.760   3.528   0.733  0.5076  0.4665 -2.6177
  187MOL   H12333975   5.673   3.381   0.748 -0.3799 -0.2126 -1.0451
  187MOL   H12433976   5.882   3.280   0.849 -0.5489  0.1451  0.2436
  187MOL   H12533977   5.994   3.561   0.829  0.1613 -0.1583 -0.4712
  187MOL   H12633978   6.072   3.424   0.917  0.6241 -0.3123  0.7418
  187MOL   H12733979   6.055   3.431   0.742 -0.3246  0.4123  0.6749
  187MOL   C12833980   5.801   3.426   0.974 -0.8967 -0.3026  0.3512
  187MOL   C12933981   5.679   3.350   1.023 -0.3753  0.8552 -0.3767
  187MOL   C13033982   5.683   3.192   1.009 -0.1541  0.2544  0.3882
  187MOL   H13133983   5.874   3.421   1.054 -0.1094 -2.9256 -0.4865
  187MOL   H13233984   5.762   3.526   0.957 -0.0354 -0.2893 -1.7718
  187MOL   H13333985   5.594   3.364   0.956 -0.9258  1.8805  0.5215
  187MOL   H13433986   5.596   3.132   1.036  0.0125  0.7306  2.0265
  187MOL   H13533987   5.700   3.170   0.904 -1.8972  0.7021 -0.0022
  187MOL   H13633988   5.776   3.150   1.047  0.6687  1.7310  0.0095
  187MOL   C13733989   5.639   3.379   1.174 -0.0282  0.3152 -0.4726
  187MOL   C13833990   5.589   3.526   1.196  0.2315  0.0258 -0.6121
  187MOL   C13933991   5.461   3.555   1.121  0.1620 -0.3373 -0.2820
  187MOL   H14033992   5.566   3.305   1.208 -1.3327  1.1972 -1.3010
  187MOL   H14133993   5.724   3.347   1.234  1.8124  2.5012 -1.8349
  187MOL   H14233994   5.660   3.601   1.161 -1.6680  1.5771 -1.2018
  187MOL   H14333995   5.456   3.532   1.015  0.0526 -1.9593  0.0631
  187MOL   H14433996   5.386   3.491   1.169  0.1408 -0.1291 -0.0395
  187MOL   H14533997   5.432   3.658   1.142 -1.5834 -0.9890  0.6603
  187MOL   C14633998   5.573   3.554   1.340  0.5810  0.5136 -0.4212
  187MOL   C14733999   5.697   3.526   1.426  0.2910  0.1171 -0.5677
  187MOL   C14834000   5.830   3.574   1.354  0.1122  0.0449 -1.7270
  187MOL   H14934001   5.545   3.659   1.343 -0.0541  0.3989 -1.8423
  187MOL   H15034002   5.489   3.493   1.373  1.8524  0.0767  2.1432
  187MOL   H15134003   5.701   3.419   1.446 -1.1238  0.3350  1.0539
  187MOL   H15234004   5.924   3.528   1.384 -0.2906  0.4771  0.2648
  187MOL   H15334005   5.841   3.554   1.247 -0.7926 -1.4760 -1.5383
  187MOL   H15434006   5.838   3.682   1.367  1.1642 -0.1320 -0.8614
  187MOL   C15534007   5.687   3.581   1.575 -0.2773  0.7193  0.1427
  187MOL   C15634008   5.815   3.572   1.656 -0.1351 -0.1065 -0.8170
  187MOL   C15734009   5.815   3.661   1.775 -0.5872  0.9884  0.3014
  187MOL   H15834010   5.648   3.682   1.565 -0.1946  0.6106 -1.4877
  187MOL   H15934011   5.616   3.521   1.633 -0.1059  0.0745 -0.3094
  187MOL   H16034012   5.896   3.615   1.597 -1.0468 -0.9076 -2.6757
  187MOL   H16134013   5.905   3.660   1.836 -0.1217  0.6954 -0.3834
  187MOL   H16234014   5.794   3.767   1.760  2.6285  1.8418  1.3520
  187MOL   H16334015   5.739   3.620   1.842 -0.0074 -0.7327 -0.0752
  187MOL   C16434016   5.842   3.421   1.694 -0.2758  0.0717  0.3397
  187MOL   C16534017   5.995   3.404   1.729 -0.2679  0.4146 -0.5451
  187MOL   C16634018   6.025   3.288   1.828 -0.0386 -0.6080 -0.0723
  187MOL   H16734019   5.782   3.400   1.782 -1.6536  0.1120 -0.5808
  187MOL   H16834020   5.812   3.354   1.613  1.3439 -1.3363  0.8573
  187MOL   H16934021   6.031   3.493   1.780  0.3729  0.5532 -1.2397
  187MOL   H17034022   5.959   3.282   1.915  1.4916 -1.6182  1.0423
  187MOL   H17134023   5.998   3.195   1.778  1.6193 -1.5042  0.6747
  187MOL   H17234024   6.132   3.286   1.846 -0.2133 -1.3354  0.9024
  187MOL   C17334025   6.072   3.377   1.599  0.2809  0.3209  0.1369
  187MOL   C17434026   6.228   3.371   1.600  0.4476  0.2918  0.6140
  187MOL   C17534027   6.285   3.354   1.458  0.0327  0.8546  0.0660
  187MOL   H17634028   6.036   3.288   1.548  0.5720  0.0094  0.4744
  187MOL   H17734029   6.056   3.454   1.524  0.5600  0.8703  0.6350
  187MOL   H17834030   6.275   3.304   1.672  1.1867 -1.6721 -1.6279
  187MOL   H17934031   6.232   3.413   1.383 -0.7693 -0.8358 -0.7215
  187MOL   H18034032   6.394   3.360   1.459  0.0874  0.0531 -0.5375
  187MOL   H18134033   6.278   3.251   1.422 -1.2725  0.8248  0.3683
  187MOL   H18234034   6.256   3.471   1.632  0.2104  1.3974 -2.4781
  188MOL     C134035   3.156   5.184   4.217  0.3588 -0.3131 -0.5485
  188MOL     C234036   3.236   5.096   4.311 -0.3984 -0.2041 -0.0261
  188MOL     C334037   3.259   5.173   4.440  0.0934 -0.0554 -0.2443
  188MOL     H434038   3.056   5.204   4.256 -0.0026 -0.4906 -1.3738
  188MOL     H534039   3.144   5.132   4.122  1.0495 -0.1575 -0.7241
  188MOL     H634040   3.332   5.085   4.260 -0.0886 -0.1959  0.5469
  188MOL     H734041   3.171   5.187   4.502  1.5169  1.5116  1.4826
  188MOL     H834042   3.337   5.140   4.507  0.8026  0.0355 -1.0109
  188MOL     H934043   3.284   5.277   4.417 -3.3672  0.9247  0.1822
  188MOL    H1034044   3.215   5.271   4.187 -0.2907  0.5961  0.7503
  188MOL    C1134045   3.195   4.947   4.324  0.5215 -0.3806 -0.2858
  188MOL    C1234046   3.291   4.862   4.408 -0.1907 -0.3966 -0.5620
  188MOL    C1334047   3.207   4.748   4.474  0.3161 -0.1940 -0.0832
  188MOL    H1434048   3.096   4.948   4.371  1.7195 -1.1307  2.3547
  188MOL    H1534049   3.189   4.907   4.223  0.3117 -3.3374  0.8674
  188MOL    H1634050   3.313   4.932   4.489  1.6198 -1.1606 -0.3753
  188MOL    H1734051   3.243   4.708   4.569 -0.7826 -0.8806  0.0489
  188MOL    H1834052   3.105   4.780   4.492 -0.2563 -0.9706 -1.8440
  188MOL    H1934053   3.194   4.662   4.409  0.1306 -0.1511 -0.1020
  188MOL    C2034054   3.415   4.820   4.334 -0.6099  0.5697 -0.4104
  188MOL    C2134055   3.524   4.736   4.410  0.1650  0.1526 -0.2919
  188MOL    C2234056   3.635   4.682   4.318 -0.4090 -0.4354 -0.1142
  188MOL    H2334057   3.378   4.752   4.257  2.4805 -2.5923  0.7694
  188MOL    H2434058   3.452   4.913   4.290 -0.8691  1.4492  1.2044
  188MOL    H2534059   3.478   4.652   4.462 -0.7924 -0.9382 -2.7930
  188MOL    H2634060   3.705   4.760   4.290 -1.2821  1.6410  3.1160
  188MOL    H2734061   3.700   4.606   4.361  0.5385  0.1459 -0.4908
  188MOL    H2834062   3.591   4.642   4.227 -0.6577  0.6201 -0.4731
  188MOL    C2934063   3.579   4.833   4.521  0.1137 -0.7288  0.2597
  188MOL    C3034064   3.677   4.765   4.612 -0.0257 -0.1047 -0.4614
  188MOL    C3134065   3.750   4.870   4.702 -0.2946 -0.1618 -0.6144
  188MOL    H3234066   3.625   4.915   4.466 -0.4769  0.5047  1.5527
  188MOL    H3334067   3.502   4.868   4.590 -1.0594 -1.0721 -0.8581
  188MOL    H3434068   3.759   4.717   4.560 -1.2334 -1.9782 -0.6587
  188MOL    H3534069   3.676   4.911   4.771  2.5188  0.3132  2.2131
  188MOL    H3634070   3.837   4.839   4.759  1.6867  3.6771 -1.4063
  188MOL    H3734071   3.777   4.959   4.645 -0.4426  1.5692  1.9131
  188MOL    C3834072   3.610   4.652   4.692 -0.4820 -0.2860 -0.5619
  188MOL    C3934073   3.707   4.578   4.793 -0.0510 -0.4569 -0.8812
  188MOL    C4034074   3.623   4.519   4.904  0.8846  0.1813  0.5096
  188MOL    H4134075   3.523   4.690   4.746  2.4710  1.1435  3.4694
  188MOL    H4234076   3.568   4.574   4.629 -1.9183 -0.7901  0.9576
  188MOL    H4334077   3.773   4.645   4.848 -1.7231  0.7583 -0.3140
  188MOL    H4434078   3.692   4.479   4.978  0.5978  0.6658  1.0375
  188MOL    H4534079   3.565   4.598   4.950 -0.1301  0.0607 -0.5181
  188MOL    H4634080   3.558   4.441   4.863 -0.9860  1.4988  0.8779
  188MOL    C4734081   3.796   4.470   4.732 -0.0178 -0.2226  0.6729
  188MOL    C4834082   3.935   4.439   4.791  0.1717 -0.1070 -0.5542
  188MOL    C4934083   3.989   4.298   4.749  0.2429  0.1648 -1.0638
  188MOL    H5034084   3.743   4.375   4.730 -1.9223  0.8239 -2.0376
  188MOL    H5134085   3.800   4.489   4.625 -3.0993 -0.3038  0.4913
  188MOL    H5234086   3.916   4.430   4.898  1.0993  1.6520 -0.2140
  188MOL    H5334087   3.908   4.224   4.755 -0.4347  1.0524  1.7371
  188MOL    H5434088   4.042   4.294   4.655  0.4831 -0.5713 -0.8978
  188MOL    H5534089   4.057   4.261   4.826  0.9424 -0.9765 -2.2187
  188MOL    C5634090   4.030   4.557   4.764  0.3590  0.1688 -0.3747
  188MOL    C5734091   4.181   4.545   4.813  0.2336  0.6100  0.1524
  188MOL    C5834092   4.267   4.657   4.766 -0.1157 -0.9946 -0.3553
  188MOL    H5934093   4.033   4.585   4.659 -1.1528  1.1644 -0.1672
  188MOL    H6034094   3.998   4.649   4.814 -1.1103 -0.1456 -0.7114
  188MOL    H6134095   4.232   4.468   4.754  1.3809 -0.5726  2.6294
  188MOL    H6234096   4.219   4.695   4.676 -0.8818 -3.3053 -0.9550
  188MOL    H6334097   4.285   4.745   4.828 -0.3221  0.5823 -2.4625
  188MOL    H6434098   4.371   4.640   4.739  0.0488  1.9313 -1.7652
  188MOL    C6534099   4.191   4.523   4.967  0.0546  0.2728 -0.8450
  188MOL    C6634100   4.324   4.465   5.015 -0.0620  0.9543  0.4025
  188MOL    C6734101   4.348   4.473   5.165 -0.3533 -0.4463 -0.5482
  188MOL    H6834102   4.172   4.618   5.017 -0.9276  1.5365 -3.5419
  188MOL    H6934103   4.117   4.451   5.000 -1.4966  1.2601 -2.1131
  188MOL    H7034104   4.400   4.527   4.967 -1.7549  2.9896  0.2696
  188MOL    H7134105   4.268   4.438   5.230 -0.8876  0.6597 -0.5948
  188MOL    H7234106   4.444   4.427   5.189 -0.6505 -0.1922  1.1562
  188MOL    H7334107   4.350   4.577   5.197  0.1296 -0.4269 -0.6341
  188MOL    C7434108   4.342   4.318   4.967  0.4124 -0.0556  0.2962
  188MOL    C7534109   4.491   4.273   4.941 -0.2712  0.2384  0.0226
  188MOL    C7634110   4.517   4.143   5.019  0.0653  0.9034  0.8339
  188MOL    H7734111   4.286   4.257   5.038  1.4996 -1.2332  0.1544
  188MOL    H7834112   4.288   4.296   4.874 -0.2498  0.6045  0.5233
  188MOL    H7934113   4.562   4.346   4.981  0.5907 -1.9678  2.6705
  188MOL    H8034114   4.498   4.153   5.126  1.3569 -1.9106  1.3858
  188MOL    H8134115   4.457   4.063   4.977  0.7558 -0.2591  2.0350
  188MOL    H8234116   4.619   4.104   5.011 -0.2311  0.5229 -1.1170
  188MOL    C8334117   4.520   4.263   4.793  0.1351 -0.0213  0.5599
  188MOL    C8434118   4.669   4.241   4.763 -0.6069 -0.2340 -0.5680
  188MOL    C8534119   4.687   4.205   4.615  0.8192 -0.5371 -0.3711
  188MOL    H8634120   4.465   4.177   4.755 -0.9932  1.5795 -1.5749
  188MOL    H8734121   4.500   4.360   4.748  0.3246 -0.4114 -0.3719
  188MOL    H8834122   4.707   4.157   4.821 -1.3489 -0.7764 -0.8508
  188MOL    H8934123   4.654   4.288   4.554  0.6732  0.1495  0.6264
  188MOL    H9034124   4.786   4.168   4.592  0.5792 -0.9100 -0.8172
  188MOL    H9134125   4.621   4.132   4.568 -1.3794  1.8639 -1.1612
  188MOL    C9234126   4.758   4.366   4.792  0.2763 -0.4014  0.4005
  188MOL    C9334127   4.907   4.349   4.809 -0.1108  0.2854 -0.5276
  188MOL    C9434128   4.991   4.473   4.785  0.0084 -0.4185 -0.4016
  188MOL    H9534129   4.742   4.442   4.715  1.3035 -0.7467 -0.1711
  188MOL    H9634130   4.732   4.417   4.884 -1.2665  0.5995 -0.5704
  188MOL    H9734131   4.945   4.288   4.727  2.9911 -1.0523  1.7736
  188MOL    H9834132   5.098   4.454   4.789  0.2564  1.0534  0.2654
  188MOL    H9934133   4.981   4.497   4.679  2.0262 -0.1595 -0.5423
  188MOL   H10034134   4.979   4.557   4.853 -0.9320  1.2919 -2.6073
  188MOL   C10134135   4.959   4.279   4.942  0.0193  0.6870  0.9530
  188MOL   C10234136   5.112   4.241   4.951  0.0029 -0.3071 -0.0431
  188MOL   C10334137   5.146   4.215   5.100 -0.1706  0.7225 -0.0432
  188MOL   H10434138   4.931   4.349   5.020 -0.4401 -0.1945  1.5914
  188MOL   H10534139   4.899   4.189   4.955  0.3872 -0.2294 -3.0266
  188MOL   H10634140   5.181   4.322   4.929  0.3260 -0.4520  0.4378
  188MOL   H10734141   5.249   4.190   5.126  0.6614  2.2929 -1.7213
  188MOL   H10834142   5.129   4.307   5.156 -0.2717  0.1157  0.9316
  188MOL   H10934143   5.085   4.134   5.140  1.1393  0.0285  0.5815
  188MOL   C11034144   5.148   4.132   4.850 -0.4285 -0.2374 -0.3203
  188MOL   C11134145   5.272   4.173   4.760  0.2368 -0.1684  0.0991
  188MOL   C11234146   5.403   4.153   4.839  0.0712 -0.0797 -0.9256
  188MOL   H11334147   5.187   4.045   4.903 -0.9261  0.6796  1.5995
  188MOL   H11434148   5.065   4.101   4.787 -1.3923  1.8042 -0.0634
  188MOL   H11534149   5.264   4.275   4.724  0.8633  0.0039  0.4429
  188MOL   H11634150   5.491   4.181   4.781  0.6625  2.5070  1.1221
  188MOL   H11734151   5.405   4.212   4.931  1.0268 -2.0300  0.3415
  188MOL   H11834152   5.411   4.047   4.861  0.1658  0.1148  0.0115
  188MOL   C11934153   5.277   4.089   4.629  0.3842 -0.1966 -0.0581
  188MOL   C12034154   5.177   4.145   4.522  0.9014 -0.5848 -0.0808
  188MOL   C12134155   5.216   4.281   4.456 -0.5524  0.6134  0.6488
  188MOL   H12234156   5.378   4.074   4.590  1.0854  1.6554  0.9800
  188MOL   H12334157   5.251   3.986   4.652 -0.7276  0.1904  0.4183
  188MOL   H12434158   5.080   4.143   4.572  1.7942 -0.7469  1.7117
  188MOL   H12534159   5.139   4.314   4.386 -1.0829  2.3605  2.0002
  188MOL   H12634160   5.222   4.368   4.522 -0.8495  0.5178  0.8013
  188MOL   H12734161   5.309   4.265   4.402 -0.7557  2.2894 -0.2247
  188MOL   C12834162   5.150   4.044   4.417 -0.8451  0.3746  1.0987
  188MOL   C12934163   5.045   3.934   4.445  0.6538  0.1471 -0.1443
  188MOL   C13034164   4.908   3.988   4.401 -0.4143  0.0615  0.6858
  188MOL   H13134165   5.132   4.084   4.317 -2.2578 -3.1524 -0.1467
  188MOL   H13234166   5.248   3.997   4.406 -1.7217 -1.7049  1.9530
  188MOL   H13334167   5.053   3.902   4.549  4.1611 -1.6189 -0.8638
  188MOL   H13434168   4.908   4.072   4.331  1.3566  0.2163  0.8319
  188MOL   H13534169   4.842   3.904   4.379  1.4665 -1.7696  1.8128
  188MOL   H13634170   4.864   4.027   4.493 -0.0728  1.2006  0.3753
  188MOL   C13734171   5.070   3.815   4.360  0.1853  0.3704 -0.0700
  188MOL   C13834172   5.192   3.724   4.406  0.3639  0.5415 -0.5892
  188MOL   C13934173   5.178   3.665   4.554  0.0218 -0.1905 -0.0229
  188MOL   H14034174   4.986   3.745   4.363 -2.4263  3.3937 -0.2552
  188MOL   H14134175   5.075   3.845   4.256  1.5249  0.2388 -0.0469
  188MOL   H14234176   5.278   3.791   4.405 -0.2541  1.3486  0.3312
  188MOL   H14334177   5.076   3.629   4.564 -0.5008  1.2593 -0.0106
  188MOL   H14434178   5.253   3.594   4.586 -0.6542  0.3646  2.8917
  188MOL   H14534179   5.196   3.744   4.627  1.7075 -0.7198  0.1394
  188MOL   C14634180   5.219   3.603   4.309  0.2656 -0.4292  0.0736
  188MOL   C14734181   5.251   3.640   4.168  0.1557  0.2582  0.2568
  188MOL   C14834182   5.373   3.733   4.156  0.0838  0.0764  0.1223
  188MOL   H14934183   5.303   3.557   4.360  0.6820  0.5970  0.3365
  188MOL   H15034184   5.134   3.535   4.314  0.0695 -0.1733  0.2633
  188MOL   H15134185   5.167   3.700   4.132 -0.9150 -0.6415  1.2196
  188MOL   H15234186   5.367   3.825   4.214  1.8471 -0.3145  0.9434
  188MOL   H15334187   5.464   3.679   4.180 -0.4699 -1.8261 -1.8864
  188MOL   H15434188   5.386   3.768   4.053 -0.2219  0.3015  0.1602
  188MOL   C15534189   5.263   3.515   4.088 -0.2274 -0.2344  0.3336
  188MOL   C15634190   5.248   3.523   3.928 -0.5338 -0.2574  0.5926
  188MOL   C15734191   5.278   3.384   3.871 -0.3352  0.1649  0.3177
  188MOL   H15834192   5.358   3.468   4.112  1.5714  0.8561 -4.3298
  188MOL   H15934193   5.176   3.454   4.113 -1.5360  0.7368 -1.7553
  188MOL   H16034194   5.311   3.604   3.889 -0.2846 -0.0383  1.4251
  188MOL   H16134195   5.352   3.329   3.929  1.0762 -0.2591 -1.8246
  188MOL   H16234196   5.191   3.321   3.890  0.2306 -1.3603 -1.8986
  188MOL   H16334197   5.310   3.367   3.768  0.3158 -1.0544  0.7137
  188MOL   C16434198   5.106   3.565   3.895  0.1875  0.0031  0.4163
  188MOL   C16534199   5.080   3.587   3.738  0.0125  0.0403  0.1848
  188MOL   C16634200   4.938   3.599   3.704 -0.4600  0.6455 -0.5185
  188MOL   H16734201   5.041   3.493   3.946  0.5209 -1.0202 -0.5742
  188MOL   H16834202   5.087   3.656   3.951 -3.3558 -0.9982  0.9870
  188MOL   H16934203   5.110   3.492   3.694 -3.6030 -0.5203 -1.2205
  188MOL   H17034204   4.889   3.663   3.777  0.0133  0.4968 -0.0686
  188MOL   H17134205   4.915   3.624   3.600 -0.8427  2.5088 -0.0144
  188MOL   H17234206   4.877   3.511   3.721 -1.8309  0.9319 -3.6248
  188MOL   C17334207   5.177   3.696   3.681 -0.1978 -0.3394 -0.3823
  188MOL   C17434208   5.139   3.762   3.550 -0.0695  0.5131  0.1836
  188MOL   C17534209   5.237   3.858   3.490 -0.9437 -0.4671 -0.0002
  188MOL   H17634210   5.177   3.777   3.754  1.0462 -0.6941  0.0320
  188MOL   H17734211   5.283   3.670   3.670  0.5476  2.0351  0.9978
  188MOL   H17834212   5.039   3.806   3.556  0.3854  1.2566  3.1409
  188MOL   H17934213   5.334   3.814   3.467 -1.9649 -1.9057 -1.7166
  188MOL   H18034214   5.197   3.886   3.393  1.1415  3.2180  0.1061
  188MOL   H18134215   5.253   3.943   3.556 -0.6868 -0.8044  0.3776
  188MOL   H18234216   5.109   3.676   3.490 -2.3017  0.9837  0.5906
  189MOL     C134217   6.645   2.030   4.781 -0.5906 -0.4992 -0.1701
  189MOL     C234218   6.718   1.900   4.805  0.5205 -0.1327 -0.3787
  189MOL     C334219   6.658   1.827   4.929  0.5133  0.0768 -0.9245
  189MOL     H434220   6.543   2.009   4.751 -0.8247  1.0563 -0.5011
  189MOL     H534221   6.692   2.089   4.702  2.3758 -1.4985  0.7562
  189MOL     H634222   6.817   1.930   4.838  0.9136 -1.5540 -0.2692
  189MOL     H734223   6.707   1.729   4.937  0.4956  0.0733 -0.8654
  189MOL     H834224   6.685   1.875   5.023  0.3758 -0.6497 -0.5115
  189MOL     H934225   6.551   1.808   4.920  0.5394 -0.7073  0.2721
  189MOL    H1034226   6.643   2.092   4.871 -0.9246 -1.5365  0.5357
  189MOL    C1134227   6.709   1.814   4.681 -0.6767  0.2847 -0.0823
  189MOL    C1234228   6.792   1.860   4.558  0.0770 -0.1498 -0.5013
  189MOL    C1334229   6.939   1.909   4.587 -0.5981 -0.1323 -0.3745
  189MOL    H1434230   6.740   1.711   4.699  0.7152  0.7899  0.4802
  189MOL    H1534231   6.605   1.808   4.649 -0.4032  2.1040 -1.3575
  189MOL    H1634232   6.749   1.951   4.516 -1.7826 -0.8611 -0.1645
  189MOL    H1734233   6.940   1.997   4.652 -1.0218 -0.3695 -0.0408
  189MOL    H1834234   6.998   1.842   4.650  1.0493  3.3727  1.9764
  189MOL    H1934235   6.998   1.925   4.497 -0.9679 -0.4441 -0.6763
  189MOL    C2034236   6.789   1.758   4.436 -0.7420 -0.0764 -0.8228
  189MOL    C2134237   6.657   1.738   4.356 -0.0163 -0.2212 -0.2373
  189MOL    C2234238   6.623   1.858   4.273 -0.7749  0.2204  0.9749
  189MOL    H2334239   6.858   1.802   4.364  1.1422 -0.6739  0.5660
  189MOL    H2434240   6.834   1.663   4.465 -0.5037 -0.5732 -2.8028
  189MOL    H2534241   6.580   1.727   4.433  2.4957 -0.3871  2.3643
  189MOL    H2634242   6.544   1.837   4.201  1.6588  1.8670 -2.2848
  189MOL    H2734243   6.592   1.940   4.338  0.3033  1.6202 -0.2380
  189MOL    H2834244   6.702   1.899   4.210 -1.0391  1.2714  1.3218
  189MOL    C2934245   6.661   1.606   4.273  0.2228  0.1602 -0.5979
  189MOL    C3034246   6.528   1.533   4.268 -0.3794 -0.3365  0.6945
  189MOL    C3134247   6.488   1.502   4.123  0.5971  0.2124  0.8507
  189MOL    H3234248   6.706   1.620   4.175 -0.2269 -0.3300 -0.8786
  189MOL    H3334249   6.739   1.539   4.311  0.9879  2.5669  2.2774
  189MOL    H3434250   6.448   1.592   4.312 -1.1739 -0.1719 -0.9417
  189MOL    H3534251   6.393   1.450   4.115  0.6684  0.5038 -2.4238
  189MOL    H3634252   6.486   1.600   4.075  3.1071 -0.2744 -0.3448
  189MOL    H3734253   6.562   1.442   4.070 -0.1434  0.4050 -0.4200
  189MOL    C3834254   6.534   1.396   4.338 -0.2218  0.3672 -0.2542
  189MOL    C3934255   6.572   1.398   4.492  0.2485  0.0303  0.8259
  189MOL    C4034256   6.491   1.490   4.584  0.1237  0.0111 -0.4331
  189MOL    H4134257   6.438   1.345   4.325  0.0540  0.2013 -1.7057
  189MOL    H4234258   6.605   1.329   4.289 -0.4349  1.1529 -1.6846
  189MOL    H4334259   6.675   1.433   4.498  1.0869 -2.0098 -0.7863
  189MOL    H4434260   6.529   1.592   4.585  2.3627 -0.8105 -0.5177
  189MOL    H4534261   6.388   1.488   4.547 -0.0569  0.6104  0.0157
  189MOL    H4634262   6.504   1.461   4.688  3.9659  2.2005 -0.2279
  189MOL    C4734263   6.566   1.260   4.543 -0.7745  0.7218  0.0478
  189MOL    C4834264   6.671   1.231   4.650  0.3531 -0.3906 -0.5720
  189MOL    C4934265   6.624   1.132   4.752 -0.0078  0.0101 -0.0147
  189MOL    H5034266   6.461   1.239   4.564 -0.4956  0.5667  1.3073
  189MOL    H5134267   6.581   1.197   4.456 -1.8705 -1.3607  1.3311
  189MOL    H5234268   6.704   1.321   4.701  0.5961 -0.0757 -1.2801
  189MOL    H5334269   6.526   1.168   4.781 -0.4633  1.9596 -3.6636
  189MOL    H5434270   6.631   1.029   4.716  1.0990 -0.2787  0.9866
  189MOL    H5534271   6.685   1.128   4.842 -0.8585  0.2276  0.5665
  189MOL    C5634272   6.806   1.165   4.595  0.0606 -0.0819 -0.0351
  189MOL    C5734273   6.893   1.252   4.500 -0.0325 -0.7432 -0.2900
  189MOL    C5834274   6.947   1.382   4.562  0.3684 -0.8150 -0.7396
  189MOL    H5934275   6.868   1.129   4.677  2.0303  1.8281 -0.6158
  189MOL    H6034276   6.768   1.080   4.538 -1.8168 -0.3317  1.5471
  189MOL    H6134277   6.838   1.275   4.409 -0.5972 -1.7799 -0.2250
  189MOL    H6234278   7.019   1.351   4.638  2.2994  0.7874 -1.8757
  189MOL    H6334279   6.999   1.441   4.487 -1.4456 -0.6558 -1.9095
  189MOL    H6434280   6.870   1.447   4.603  1.8403  0.2307  0.4108
  189MOL    C6534281   7.019   1.174   4.450 -0.0558  0.7363 -0.3383
  189MOL    C6634282   6.985   1.057   4.351 -0.2594  0.2422  0.5770
  189MOL    C6734283   6.931   1.115   4.218  0.1428  0.2909  0.2565
  189MOL    H6834284   7.089   1.241   4.400  1.7424 -0.8845 -0.0745
  189MOL    H6934285   7.063   1.131   4.540 -1.1820 -3.7330 -1.7786
  189MOL    H7034286   6.911   0.983   4.381  0.2911 -0.5618  0.0009
  189MOL    H7134287   6.959   1.220   4.205  0.8393  0.2434  1.3542
  189MOL    H7234288   6.952   1.055   4.129  0.6662  1.5870 -0.5104
  189MOL    H7334289   6.822   1.109   4.223  0.0356 -0.9287 -2.4934
  189MOL    C7434290   7.106   0.969   4.307 -0.4892  0.6139 -0.4014
  189MOL    C7534291   7.196   0.913   4.419 -0.7655 -0.5030 -0.0265
  189MOL    C7634292   7.124   0.788   4.482  0.1547  0.7606 -0.2889
  189MOL    H7734293   7.073   0.882   4.249  0.2200 -0.7808  1.2470
  189MOL    H7834294   7.160   1.041   4.245 -1.6156  0.4675 -1.5779
  189MOL    H7934295   7.213   0.984   4.500  0.2657 -0.1382 -0.5513
  189MOL    H8034296   7.113   0.703   4.415 -1.0996  0.9220 -0.3093
  189MOL    H8134297   7.169   0.745   4.572  2.1978  2.4141 -0.4834
  189MOL    H8234298   7.017   0.805   4.500 -0.7703 -2.3016 -2.4412
  189MOL    C8334299   7.333   0.871   4.367 -0.4889  0.0658  0.2443
  189MOL    C8434300   7.438   0.986   4.343  0.2454 -0.2381  0.4913
  189MOL    C8534301   7.452   1.099   4.456 -0.5805  0.5617 -0.1647
  189MOL    H8634302   7.369   0.809   4.448 -0.0790 -0.7989 -0.5917
  189MOL    H8734303   7.319   0.816   4.274  1.0391 -0.1692  0.1500
  189MOL    H8834304   7.399   1.032   4.252  0.9577 -2.9109 -1.2213
  189MOL    H8934305   7.517   1.176   4.415 -0.7525 -0.8139 -3.1719
  189MOL    H9034306   7.358   1.148   4.481 -0.0344  0.3075  2.5070
  189MOL    H9134307   7.493   1.056   4.547  0.6798  0.8054 -0.6096
  189MOL    C9234308   7.572   0.913   4.305  0.7829  0.1168  0.0405
  189MOL    C9334309   7.681   1.000   4.252 -0.2729 -0.0322 -0.3466
  189MOL    C9434310   0.122   0.916   4.240 -0.1000  0.2488  0.2420
  189MOL    H9534311   7.612   0.871   4.397  1.8224  1.5479  0.2564
  189MOL    H9634312   7.563   0.830   4.234 -0.2503  0.1694  0.1133
  189MOL    H9734313   0.003   1.071   4.333 -2.6279 -0.9267  1.0639
  189MOL    H9834314   0.144   0.857   4.329 -1.9972 -0.1771  0.4405
  189MOL    H9934315   0.121   0.839   4.163 -1.7430  0.7474 -0.2452
  189MOL   H10034316   0.212   0.977   4.232  0.0167  0.2951  1.6333
  189MOL   C10134317   7.653   1.078   4.129  0.1556  0.4396 -0.4059
  189MOL   C10234318   7.625   1.227   4.144  0.7060  0.1331  0.3573
  189MOL   C10334319   0.055   1.310   4.174 -0.4992  0.0749 -0.4221
  189MOL   H10434320   0.025   1.058   4.047 -1.7942  0.2185 -2.0608
  189MOL   H10534321   7.565   1.039   4.077  1.1934 -1.1908 -0.9690
  189MOL   H10634322   7.556   1.238   4.228 -1.4517  0.0996 -1.3626
  189MOL   H10734323   0.036   1.397   4.237 -0.3152 -0.3191  0.1739
  189MOL   H10834324   0.132   1.250   4.222 -1.8819 -0.7346  0.8019
  189MOL   H10934325   0.113   1.349   4.090 -0.6338 -1.0501 -1.0426
  189MOL   C11034326   7.557   1.278   4.017  0.0260 -0.5250  0.4229
  189MOL   C11134327   7.483   1.418   4.025  0.3102 -0.2968 -0.1217
  189MOL   C11234328   7.444   1.480   3.890 -0.7916 -0.1831 -0.1555
  189MOL   H11334329   7.630   1.274   3.936 -1.8290  0.8753 -1.3706
  189MOL   H11434330   7.468   1.223   3.986  0.3013 -1.1378  0.7066
  189MOL   H11534331   7.554   1.485   4.073  0.9477  0.4292 -2.0342
  189MOL   H11634332   7.522   1.494   3.815 -1.7796  2.6759 -0.7081
  189MOL   H11734333   7.384   1.404   3.840 -0.1177  1.0114 -2.8712
  189MOL   H11834334   7.382   1.568   3.901  1.8574  1.7376 -0.0225
  189MOL   C11934335   7.358   1.414   4.113 -0.1317 -0.5686  0.4449
  189MOL   C12034336   7.291   1.549   4.150  0.1458 -0.1820  0.4018
  189MOL   C12134337   7.151   1.515   4.211  0.1265 -0.0186  0.1013
  189MOL   H12234338   7.280   1.352   4.069  2.9143 -3.2630 -1.3945
  189MOL   H12334339   7.385   1.358   4.202  0.5945  0.3523  0.8125
  189MOL   H12434340   7.263   1.598   4.057  0.1771  0.9888  1.0030
  189MOL   H12534341   7.159   1.485   4.316  0.8410 -1.6494 -0.3978
  189MOL   H12634342   7.082   1.600   4.215 -0.5438 -0.5273 -0.5957
  189MOL   H12734343   7.102   1.433   4.160 -1.2565  1.0448 -0.3224
  189MOL   C12834344   7.373   1.651   4.223 -0.3291  0.6069  0.2475
  189MOL   C12934345   7.432   1.599   4.361  0.9593  1.0460 -0.4878
  189MOL   C13034346   7.582   1.639   4.362  0.8776 -0.1830  0.0473
  189MOL   H13134347   7.460   1.678   4.163  0.3653  1.8811  1.7975
  189MOL   H13234348   7.301   1.732   4.234 -0.8973 -0.0544  1.6113
  189MOL   H13334349   7.434   1.492   4.380 -1.0082  0.9522 -0.7710
  189MOL   H13434350   7.601   1.747   4.365 -0.7366  0.0725  1.8191
  189MOL   H13534351   7.650   1.607   4.441  2.3081 -0.0321 -1.1020
  189MOL   H13634352   7.638   1.613   4.272 -0.1549 -2.1581 -0.0570
  189MOL   C13734353   7.359   1.683   4.472 -0.4670  0.1744  0.5124
  189MOL   C13834354   7.395   1.660   4.612 -0.2347  0.3214 -0.0333
  189MOL   C13934355   7.328   1.754   4.704  0.1787 -0.0094 -0.0614
  189MOL   H14034356   7.375   1.788   4.450 -0.1303 -0.0425 -0.3251
  189MOL   H14134357   7.250   1.673   4.466 -0.3937 -0.4880  0.1580
  189MOL   H14234358   7.502   1.682   4.613 -0.0156 -0.7431  2.0001
  189MOL   H14334359   7.219   1.751   4.694  0.2834 -3.4768 -0.7120
  189MOL   H14434360   7.358   1.723   4.804  5.3809  1.9356 -0.8871
  189MOL   H14534361   7.373   1.853   4.709  1.5990 -0.6672  0.3999
  189MOL   C14634362   7.378   1.503   4.652  0.7564 -0.2141  0.0830
  189MOL   C14734363   7.444   1.446   4.779  0.1837 -0.2011 -0.1762
  189MOL   C14834364   7.414   1.294   4.784 -1.1572 -0.0003  0.3403
  189MOL   H14934365   7.270   1.488   4.647  0.7978 -0.1479 -1.3617
  189MOL   H15034366   7.412   1.441   4.569 -2.0958 -1.8195  0.0557
  189MOL   H15134367   7.391   1.490   4.863  1.0098  1.9323 -0.7385
  189MOL   H15234368   7.310   1.266   4.770 -1.0098 -0.6085  0.4602
  189MOL   H15334369   7.485   1.242   4.720 -1.7441  0.7410 -0.9293
  189MOL   H15434370   7.429   1.262   4.887 -3.0306 -1.4173  0.2058
  189MOL   C15534371   7.589   1.488   4.772  0.6848 -1.0288 -0.2477
  189MOL   C15634372   7.688   1.429   4.880 -0.8482  0.2231  0.0966
  189MOL   C15734373   0.140   1.442   4.842 -0.2064  0.0313  0.4219
  189MOL   H15834374   7.632   1.486   4.672 -1.8211 -1.4986 -1.3575
  189MOL   H15934375   7.592   1.595   4.789  1.7689 -0.6088 -2.9005
  189MOL   H16034376   7.668   1.323   4.895 -1.3657 -0.0972 -2.6796
  189MOL   H16134377   0.210   1.399   4.913  1.2847  1.2584 -0.2635
  189MOL   H16234378   0.159   1.393   4.746  0.7375 -1.6346  1.4399
  189MOL   H16334379   0.178   1.544   4.833  2.1343 -0.8285  0.2247
  189MOL   C16434380   7.668   1.501   5.011 -0.3858 -0.4441 -0.5721
  189MOL   C16534381   0.057   1.460   5.127 -0.3388  0.9184 -0.0730
  189MOL   C16634382   0.040   1.556   5.234  0.1823  0.2769 -0.3639
  189MOL   H16734383   7.688   1.607   4.990 -0.6954 -0.7693 -2.6001
  189MOL   H16834384   7.564   1.496   5.044  0.2060  0.4207  1.4762
  189MOL   H16934385   0.162   1.460   5.100 -1.0357 -1.9024 -3.2144
  189MOL   H17034386   0.054   1.660   5.205 -0.7872  0.4226 -0.3499
  189MOL   H17134387   7.641   1.553   5.286  0.0271  1.5865 -0.5661
  189MOL   H17234388   0.114   1.539   5.312  1.2706 -0.2156 -1.5025
  189MOL   C17334389   0.041   1.310   5.177 -0.8113 -0.0624  0.3106
  189MOL   C17434390   7.592   1.268   5.215  0.1691  1.0338  0.3520
  189MOL   C17534391   7.582   1.133   5.296 -0.2387  0.1726  0.0270
  189MOL   H17634392   0.083   1.238   5.107  0.6682 -0.4072  1.5364
  189MOL   H17734393   0.096   1.291   5.270 -0.2579 -2.8776 -0.5368
  189MOL   H17834394   7.520   1.260   5.134 -0.3339 -0.1216  0.8958
  189MOL   H17934395   7.618   1.046   5.241  1.2473  0.2502  0.8379
  189MOL   H18034396   7.632   1.135   5.393 -0.8768  2.2964  0.3312
  189MOL   H18134397   7.483   1.103   5.327 -0.1589  1.6823  1.8067
  189MOL   H18234398   7.547   1.348   5.274 -4.0813 -0.1789 -1.0628
  190MOL     C134399   3.519   0.238   7.146  0.1170  0.2548  0.2413
  190MOL     C234400   3.637   0.301   7.069 -0.8297  0.2959  0.0483
  190MOL     C334401   3.745   0.379   7.152 -0.5966 -0.5871 -0.6294
  190MOL     H434402   3.473   0.302   7.221 -2.7784 -1.9107  0.4008
  190MOL     H534403   3.559   0.156   7.206 -0.3422  1.5784  2.3918
  190MOL     H634404   3.592   0.377   7.005 -1.3491 -2.4880 -3.0332
  190MOL     H734405   3.819   0.409   7.078 -0.3628  0.9278  0.2018
  190MOL     H834406   3.701   0.462   7.208 -0.6044 -0.3949 -0.9200
  190MOL     H934407   3.800   0.310   7.216  1.0169  0.6829 -0.6063
  190MOL    H1034408   3.434   0.202   7.088  0.2525  0.1770  0.0886
  190MOL    C1134409   3.712   0.198   6.981  0.0697  0.3207 -0.2516
  190MOL    C1234410   3.623   0.122   6.878  0.1068  0.3118  0.5974
  190MOL    C1334411   3.597   0.204   6.748 -0.6827 -0.2070  0.7513
  190MOL    H1434412   3.796   0.245   6.928  0.7351 -0.4364  0.1216
  190MOL    H1534413   3.763   0.130   7.049 -1.2045 -0.2993  0.0931
  190MOL    H1634414   3.522   0.105   6.915 -0.4344  1.1189 -0.4994
  190MOL    H1734415   3.578   0.310   6.762 -1.1334 -0.4091  1.6439
  190MOL    H1834416   3.682   0.193   6.680 -1.5817 -0.5665 -0.3288
  190MOL    H1934417   3.512   0.158   6.696 -1.3571  1.9238 -0.0750
  190MOL    C2034418   3.683   7.683   6.840 -0.7982  0.1106 -0.1202
  190MOL    C2134419   3.639   7.610   6.703  0.1063 -0.1414  0.4495
  190MOL    C2234420   3.760   7.534   6.645 -0.7867 -0.0290 -0.1301
  190MOL    H2334421   3.792   7.694   6.835 -1.0056  1.5449 -3.0070
  190MOL    H2434422   3.668   7.614   6.923  0.6500  0.0078  0.0700
  190MOL    H2534423   3.623   7.683   6.623  0.4177 -0.2274  0.3081
  190MOL    H2634424   3.785   7.442   6.698 -1.4605 -0.8999 -1.3089
  190MOL    H2734425   3.726   7.485   6.554 -0.2926  1.7516 -1.2943
  190MOL    H2834426   3.846   7.598   6.624 -2.5786  2.0404 -1.3792
  190MOL    C2934427   3.508   7.530   6.719 -0.4359 -0.4084 -0.1994
  190MOL    C3034428   3.429   7.492   6.594  0.3214 -0.1548 -0.5666
  190MOL    C3134429   3.325   7.391   6.638  1.3624  0.3432  0.2522
  190MOL    H3234430   3.542   7.443   6.776 -0.6524  0.5406  1.3967
  190MOL    H3334431   3.437   7.581   6.784 -0.0735  1.1526 -1.0209
  190MOL    H3434432   3.506   7.456   6.526  0.4895 -0.4741 -0.2065
  190MOL    H3534433   3.369   7.304   6.686  1.2214  0.1945  0.1102
  190MOL    H3634434   3.253   7.435   6.707  0.0881  0.2267 -0.9860
  190MOL    H3734435   3.259   7.351   6.561  1.5455 -3.1438  1.8494
  190MOL    C3834436   3.344   7.618   6.535  0.3332 -0.2533  0.2571
  190MOL    C3934437   3.241   7.589   6.420  0.3716  0.4497 -0.4838
  190MOL    C4034438   3.092   7.571   6.460 -0.7954 -0.4943  0.0428
  190MOL    H4134439   3.302   7.682   6.612  0.6518 -1.5387  1.5314
  190MOL    H4234440   3.427   7.677   6.495  0.6269 -0.2811  0.8205
  190MOL    H4334441   3.265   7.493   6.375  2.6204  0.8346 -0.1758
  190MOL    H4434442   3.048   7.651   6.520 -0.3574 -0.3782  0.2056
  190MOL    H4534443   3.033   7.535   6.376  0.9999  0.2296 -1.5435
  190MOL    H4634444   3.081   7.488   6.530 -0.8289 -0.3735  0.1803
  190MOL    C4734445   3.245   7.694   6.307 -0.1231 -0.0564 -0.2052
  190MOL    C4834446   3.379   0.032   6.236  0.4514  0.8620  0.0167
  190MOL    C4934447   3.428   7.598   6.153 -0.4786  0.0594 -0.5640
  190MOL    H5034448   3.154   7.677   6.248  0.0612  0.2966 -0.5949
  190MOL    H5134449   3.217   0.088   6.359  1.0243 -0.8576  1.8508
  190MOL    H5234450   3.452   0.061   6.313  1.6612 -1.0081 -0.3707
  190MOL    H5334451   3.524   7.620   6.106  0.2617 -2.2526 -0.1639
  190MOL    H5434452   3.439   7.518   6.225 -1.7676 -1.1790 -1.7222
  190MOL    H5534453   3.360   7.569   6.073 -0.5024 -0.4998 -0.3430
  190MOL    C5634454   3.359   0.157   6.146 -0.6680 -0.0258  0.7466
  190MOL    C5734455   3.351   0.303   6.199 -0.2672  0.3519  0.3402
  190MOL    C5834456   3.472   0.346   6.284 -0.1800  0.3175 -0.1666
  190MOL    H5934457   3.440   0.151   6.074 -2.2727 -2.6549 -0.8918
  190MOL    H6034458   3.276   0.124   6.084 -0.6372 -1.7617  1.6001
  190MOL    H6134459   3.268   0.312   6.268 -0.0496 -0.0697  0.6630
  190MOL    H6234460   3.466   0.450   6.314  2.4372 -0.3889  3.1063
  190MOL    H6334461   3.489   0.295   6.379  0.7686  0.3298 -0.3199
  190MOL    H6434462   3.562   0.341   6.222  0.1145 -1.4144  0.3827
  190MOL    C6534463   3.334   0.413   6.085 -0.3311  0.7510 -0.5292
  190MOL    C6634464   3.225   0.378   5.985 -0.1012 -0.0541  0.0353
  190MOL    C6734465   3.089   0.358   6.058 -0.2761 -0.5292  0.0660
  190MOL    H6834466   3.313   0.509   6.131  2.9249  1.3334 -0.1125
  190MOL    H6934467   3.424   0.419   6.024  0.1542 -1.0312 -0.0322
  190MOL    H7034468   3.252   0.295   5.920 -0.8975  1.9632 -2.9532
  190MOL    H7134469   3.048   0.450   6.100  0.8748 -0.5669  1.3001
  190MOL    H7234470   3.008   0.323   5.995 -0.7300 -1.3451  1.0779
  190MOL    H7334471   3.087   0.283   6.137 -0.4841 -0.7154 -0.1160
  190MOL    C7434472   3.202   0.486   5.889  0.3714 -0.7707  0.3132
  190MOL    C7534473   3.323   0.524   5.802 -0.1037  0.6539  0.1678
  190MOL    C7634474   3.366   0.408   5.717  0.0428  0.3807 -0.0568
  190MOL    H7734475   3.119   0.458   5.824  2.3007  0.3766 -2.8025
  190MOL    H7834476   3.160   0.570   5.943 -0.5061 -0.9316 -0.1187
  190MOL    H7934477   3.417   0.535   5.855  1.1192  0.6557 -1.9531
  190MOL    H8034478   3.296   0.374   5.641  1.5260  1.5040 -1.9646
  190MOL    H8134479   3.448   0.429   5.648  1.4695 -2.2328  0.7852
  190MOL    H8234480   3.399   0.324   5.777  0.1600  0.0837 -0.5356
  190MOL    C8334481   3.307   0.651   5.726  0.0465  0.2024  0.0560
  190MOL    C8434482   3.298   0.785   5.799  0.1731  0.1348 -0.4726
  190MOL    C8534483   3.428   0.806   5.874  0.3243  0.1467 -0.6781
  190MOL    H8634484   3.397   0.662   5.665  0.6315 -0.8295  0.7101
  190MOL    H8734485   3.217   0.634   5.666 -0.0037  2.0925 -0.4205
  190MOL    H8834486   3.218   0.792   5.872  2.1656  1.4069  1.6335
  190MOL    H8934487   3.440   0.732   5.953  1.4050  0.9864 -0.0336
  190MOL    H9034488   3.523   0.802   5.820  0.4113 -1.6472 -0.4125
  190MOL    H9134489   3.429   0.906   5.917  0.1857 -0.0828 -0.1357
  190MOL    C9234490   3.293   0.905   5.697  0.2416 -0.4865  0.0075
  190MOL    C9334491   3.163   0.935   5.629 -1.2329 -0.2129 -0.0294
  190MOL    C9434492   3.067   0.992   5.736 -0.3177 -0.1552  0.4663
  190MOL    H9534493   3.339   0.998   5.730  0.1317 -0.2071 -0.6120
  190MOL    H9634494   3.365   0.864   5.626 -0.0451 -0.4921 -0.2812
  190MOL    H9734495   3.115   0.847   5.587 -0.1098 -0.9829  0.2611
  190MOL    H9834496   3.101   1.084   5.783  1.0294 -0.3959  0.0103
  190MOL    H9934497   2.967   1.021   5.706  0.3691 -0.2302 -2.0698
  190MOL   H10034498   3.062   0.921   5.819  0.7315  0.4504  1.0697
  190MOL   C10134499   3.171   1.039   5.521  0.2361 -0.1544  0.3952
  190MOL   C10234500   3.215   0.997   5.378  0.4778  1.2520  0.6121
  190MOL   C10334501   3.114   0.903   5.317 -0.0424 -0.2697  0.7289
  190MOL   H10434502   3.074   1.088   5.512 -0.2919 -1.3697 -0.6860
  190MOL   H10534503   3.236   1.116   5.563 -1.4861  1.6404 -0.1544
  190MOL   H10634504   3.306   0.938   5.385 -0.1260 -0.1563 -2.2337
  190MOL   H10734505   3.014   0.945   5.320 -0.1991 -0.6928  1.2844
  190MOL   H10834506   3.142   0.876   5.215  0.3891  0.8964  0.5287
  190MOL   H10934507   3.111   0.810   5.373  1.2860 -0.9556 -0.3185
  190MOL   C11034508   3.241   1.125   5.288  0.6237 -0.4926 -0.3759
  190MOL   C11134509   3.278   1.115   5.134  0.0760  0.8569  0.0141
  190MOL   C11234510   3.154   1.138   5.036 -0.5638  0.4606  0.3457
  190MOL   H11334511   3.161   1.198   5.300  0.3640 -0.8638  0.1513
  190MOL   H11434512   3.321   1.184   5.333  1.5827 -1.5815 -0.6286
  190MOL   H11534513   3.303   1.009   5.123  2.1010  1.3456 -0.1372
  190MOL   H11634514   3.112   1.238   5.041 -1.5485  0.0971 -0.3855
  190MOL   H11734515   3.155   1.109   4.931 -0.4728  2.4402 -0.2120
  190MOL   H11834516   3.069   1.086   5.080 -0.1965 -0.2684  0.2090
  190MOL   C11934517   3.390   1.201   5.083  0.3025  0.0993  0.2839
  190MOL   C12034518   3.526   1.140   5.092 -0.0858  0.3355 -0.6776
  190MOL   C12134519   3.576   1.123   5.236  0.3510 -0.0678  0.3730
  190MOL   H12234520   3.364   1.241   4.985 -2.0695 -1.3356  0.2796
  190MOL   H12334521   3.381   1.297   5.134 -2.0479  0.6499 -1.1008
  190MOL   H12434522   3.583   1.223   5.049  0.2835 -1.0231 -2.9284
  190MOL   H12534523   3.567   1.219   5.287  1.5809  0.6854 -0.8084
  190MOL   H12634524   3.517   1.050   5.291 -1.0572 -0.7288 -1.9242
  190MOL   H12734525   3.682   1.106   5.222 -0.4098 -2.4567 -3.2269
  190MOL   C12834526   3.553   1.009   5.008 -0.1314  0.2753  0.2236
  190MOL   C12934527   3.518   1.015   4.860  0.6883  0.4074 -0.1617
  190MOL   C13034528   3.625   1.094   4.781  0.0013 -0.0579  0.4073
  190MOL   H13134529   3.661   0.997   5.016 -0.2567 -2.0476 -1.1169
  190MOL   H13234530   3.487   0.928   5.040  0.4966 -0.8483 -1.2376
  190MOL   H13334531   3.420   1.061   4.849  0.5303 -0.2271 -1.5075
  190MOL   H13434532   3.597   1.126   4.681  1.0236  0.2418  0.2084
  190MOL   H13534533   3.662   1.186   4.826  1.6479 -1.3003  1.6551
  190MOL   H13634534   3.714   1.036   4.757 -1.3457 -3.0515  2.3002
  190MOL   C13734535   3.505   0.875   4.794 -0.0793 -0.0483  0.2070
  190MOL   C13834536   3.436   0.875   4.655 -0.2745 -0.1447 -0.3365
  190MOL   C13934537   3.474   0.745   4.576  0.4549 -0.2820  0.9410
  190MOL   H14034538   3.604   0.832   4.780  0.7859  1.9796 -0.0829
  190MOL   H14134539   3.459   0.805   4.864  0.2734  0.9299  1.4542
  190MOL   H14234540   3.457   0.965   4.597 -0.0645 -1.7991 -2.8847
  190MOL   H14334541   3.466   0.657   4.640  0.2388  0.2176  1.6163
  190MOL   H14434542   3.399   0.738   4.497 -0.1439 -1.0116  1.5643
  190MOL   H14534543   3.575   0.751   4.536 -0.7787  0.5516 -2.2289
  190MOL   C14634544   3.288   0.879   4.671 -1.2570  0.3236  0.2116
  190MOL   C14734545   3.214   0.770   4.754 -0.2319 -0.2934  0.2219
  190MOL   C14834546   3.154   0.830   4.889 -0.5976 -1.0197 -0.0369
  190MOL   H14934547   3.249   0.980   4.686  2.5269  1.9999 -0.5315
  190MOL   H15034548   3.247   0.887   4.570 -0.4959  2.8672  0.0671
  190MOL   H15134549   3.289   0.693   4.774 -0.2724 -0.6150 -0.8241
  190MOL   H15234550   3.120   0.744   4.947  0.5228 -0.8613  0.8785
  190MOL   H15334551   3.224   0.893   4.944 -2.2892 -1.0946  2.2700
  190MOL   H15434552   3.076   0.900   4.861  0.0098 -0.5854 -0.6563
  190MOL   C15534553   3.102   0.702   4.664 -0.4306 -0.4658 -0.0845
  190MOL   C15634554   3.039   0.572   4.715  0.3552 -0.3770 -0.4408
  190MOL   C15734555   2.887   0.579   4.685 -0.5321  0.1614  0.1666
  190MOL   H15834556   3.023   0.775   4.645 -0.1112 -0.1758 -0.3146
  190MOL   H15934557   3.147   0.691   4.565  0.2331 -0.3897  0.2002
  190MOL   H16034558   3.049   0.556   4.823  2.6430 -0.7037 -0.6724
  190MOL   H16134559   2.827   0.502   4.733  0.8409 -1.3611 -0.5282
  190MOL   H16234560   2.846   0.676   4.713 -0.5933  0.0660  0.4028
  190MOL   H16334561   2.862   0.566   4.579 -1.6515  2.7014  0.0767
  190MOL   C16434562   3.086   0.454   4.629 -0.2319 -0.4550  0.1941
  190MOL   C16534563   3.232   0.405   4.649  0.0970  0.2300  0.2170
  190MOL   C16634564   3.243   0.372   4.794 -0.1440  0.0969 -0.2636
  190MOL   H16734565   3.026   0.364   4.647  0.7064 -1.1039  0.0895
  190MOL   H16834566   3.071   0.472   4.523 -3.5206  0.1426  0.7093
  190MOL   H16934567   3.296   0.490   4.627 -0.4060 -0.4610 -4.4569
  190MOL   H17034568   3.347   0.343   4.810 -0.0567 -0.6966 -2.0912
  190MOL   H17134569   3.223   0.453   4.863  0.3256  0.0041 -0.0171
  190MOL   H17234570   3.184   0.281   4.811  1.0761 -0.4087  1.3789
  190MOL   C17334571   3.279   0.288   4.558  0.9189  0.6290 -0.6922
  190MOL   C17434572   3.259   0.307   4.407  0.0554 -0.0293  0.5131
  190MOL   C17534573   3.303   0.182   4.327  0.0768  0.2662  0.1861
  190MOL   H17634574   3.379   0.257   4.587  0.6453 -0.9958 -1.4435
  190MOL   H17734575   3.215   0.203   4.584 -0.4995  1.3115 -1.8624
  190MOL   H17834576   3.314   0.398   4.381 -2.2122  1.5131  0.9768
  190MOL   H17934577   3.407   0.153   4.341  0.2288  0.5945 -0.2564
  190MOL   H18034578   3.243   0.098   4.360 -0.1715  1.0002  1.6525
  190MOL   H18134579   3.288   0.181   4.219  0.3762  2.6282  0.0817
  190MOL   H18234580   3.155   0.329   4.383 -0.6355 -2.4120  1.2342
  191MOL     C134581   0.545   1.256   4.991  0.9180  0.6304  0.2543
  191MOL     C234582   0.461   1.166   5.076 -0.2117 -0.6164  0.3081
  191MOL     C334583   0.401   1.246   5.192 -0.1987 -0.3558 -0.1920
  191MOL     H434584   0.624   1.314   5.037  0.3705  0.1778  1.7833
  191MOL     H534585   0.480   1.332   4.947 -1.2903 -1.3558 -0.0423
  191MOL     H634586   0.529   1.094   5.122  0.9189 -0.3239 -0.8716
  191MOL     H734587   0.388   1.166   5.264  2.3507 -0.4980  0.1282
  191MOL     H834588   0.479   1.312   5.228 -0.4927  0.2510 -0.6447
  191MOL     H934589   0.307   1.292   5.160 -0.3336 -1.0090 -0.7287
  191MOL    H1034590   0.594   1.202   4.910 -0.2378  2.3787 -1.6465
  191MOL    C1134591   0.363   1.071   5.000 -0.2615 -0.6328 -0.7720
  191MOL    C1234592   0.424   0.985   4.892 -0.5420 -0.1069  0.1806
  191MOL    C1334593   0.537   0.890   4.950  0.2194 -0.0996  0.1754
  191MOL    H1434594   0.311   1.002   5.067  0.4284 -1.5845 -1.2032
  191MOL    H1534595   0.280   1.124   4.952  0.2622 -0.7239 -1.7962
  191MOL    H1634596   0.464   1.055   4.818 -0.2267  1.2006  1.5401
  191MOL    H1734597   0.576   0.844   4.860 -0.0277  0.5677 -0.2744
  191MOL    H1834598   0.617   0.949   4.995  0.8646 -1.2873  0.5922
  191MOL    H1934599   0.502   0.814   5.020  0.3843 -0.3250  0.0111
  191MOL    C2034600   0.310   0.904   4.818 -0.9174 -0.1156  0.4259
  191MOL    C2134601   0.198   0.986   4.748  0.3943 -0.4260 -0.3509
  191MOL    C2234602   0.251   1.106   4.656 -0.1983  0.3480  0.1741
  191MOL    H2334603   0.354   0.833   4.747 -1.4070  2.4054 -2.4865
  191MOL    H2434604   0.256   0.849   4.895 -0.9459 -1.0445 -0.2515
  191MOL    H2534605   0.134   1.027   4.826  1.0349  0.8542 -0.4956
  191MOL    H2634606   0.314   1.066   4.576  2.0928  2.0069  1.0783
  191MOL    H2734607   0.173   1.167   4.611 -1.1582 -0.1136  1.1822
  191MOL    H2834608   0.307   1.183   4.709  0.8908 -2.8102  3.8951
  191MOL    C2934609   0.113   0.899   4.655  0.6115  0.0860  0.0329
  191MOL    C3034610   0.033   0.783   4.720 -0.1822 -0.7725 -0.0969
  191MOL    C3134611   7.613   0.841   4.816  0.1462  0.2344 -0.5595
  191MOL    H3234612   0.044   0.959   4.596 -0.7027 -0.3537  1.0908
  191MOL    H3334613   0.170   0.848   4.578 -0.9874  0.1065 -1.1742
  191MOL    H3434614   0.110   0.723   4.768 -0.3139 -0.6294  0.2971
  191MOL    H3534615   7.655   0.922   4.875  0.9932 -0.7865  0.2430
  191MOL    H3634616   7.517   0.867   4.770 -0.8108 -1.7017  0.2885
  191MOL    H3734617   7.595   0.759   4.884  1.7920 -0.5836 -1.0882
  191MOL    C3834618   7.669   0.688   4.608 -0.4830 -0.9451 -0.4058
  191MOL    C3934619   7.635   0.544   4.659 -0.2165  0.2543 -0.1746
  191MOL    C4034620   7.492   0.544   4.719  0.1832 -0.1547  0.1865
  191MOL    H4134621   7.576   0.731   4.572  0.4970  0.7538 -0.9460
  191MOL    H4234622   0.043   0.680   4.525  2.2977 -0.0857  1.8175
  191MOL    H4334623   0.011   0.522   4.737 -0.1993  2.7456  0.5721
  191MOL    H4434624   7.487   0.441   4.752  3.3911 -0.9007 -1.4833
  191MOL    H4534625   7.471   0.626   4.788  0.0506  0.5381 -0.6616
  191MOL    H4634626   7.428   0.559   4.632 -0.9118 -0.9999  0.8493
  191MOL    C4734627   7.663   0.430   4.562  0.7799 -0.4458  0.3344
  191MOL    C4834628   0.108   0.382   4.562  0.3801  0.8695  0.3522
  191MOL    C4934629   0.127   0.286   4.678  0.2306  0.1900  0.1200
  191MOL    H5034630   7.608   0.342   4.595 -2.1140  0.8268 -0.9295
  191MOL    H5134631   7.626   0.453   4.462 -0.0657  0.3687  0.8252
  191MOL    H5234632   0.174   0.467   4.579  0.2376  0.8536  0.9769
  191MOL    H5334633   0.063   0.303   4.765 -0.0428 -1.2093  0.1902
  191MOL    H5434634   0.108   0.184   4.645  0.6450  0.3406 -0.5925
  191MOL    H5534635   0.230   0.273   4.713  0.0798 -0.4235  0.3286
  191MOL    C5634636   0.148   0.312   4.429  0.5212 -0.2952 -0.1996
  191MOL    C5734637   0.154   0.388   4.297 -0.3637  0.1115  0.5034
  191MOL    C5834638   0.235   0.514   4.307 -0.0573  1.0178 -0.1035
  191MOL    H5934639   0.249   0.272   4.442  0.5615  0.4697  2.0693
  191MOL    H6034640   0.077   0.232   4.409  1.0010 -0.7775 -0.0002
  191MOL    H6134641   0.048   0.405   4.278 -0.3234 -2.1880 -2.1602
  191MOL    H6234642   0.189   0.576   4.384  1.8843  1.9240  0.3694
  191MOL    H6334643   0.335   0.500   4.348 -0.4931 -0.8182  0.3639
  191MOL    H6434644   0.231   0.572   4.215 -2.3181  0.2756 -0.4874
  191MOL    C6534645   0.196   0.301   4.178 -0.0396 -0.6503 -0.0629
  191MOL    C6634646   0.152   0.358   4.039  0.3458  0.4631 -0.2890
  191MOL    C6734647   0.240   0.287   3.940  1.0230  0.2719  0.5196
  191MOL    H6834648   0.302   0.278   4.176  0.4406  1.3865  0.7543
  191MOL    H6934649   0.151   0.202   4.189  0.3257 -0.6800  1.2548
  191MOL    H7034650   0.176   0.464   4.049  3.4192 -0.2231  0.2556
  191MOL    H7134651   0.346   0.303   3.961  1.2563  0.5878 -0.8429
  191MOL    H7234652   0.219   0.180   3.940  2.3634 -0.0057 -0.3505
  191MOL    H7334653   0.210   0.325   3.842 -1.9595 -0.9477  0.9114
  191MOL    C7434654   7.694   0.336   4.006 -0.0665  0.2222 -0.6833
  191MOL    C7534655   7.644   0.410   3.877  0.1202 -0.5341 -0.2044
  191MOL    C7634656   7.639   0.320   3.758  0.3338  0.1825 -0.0919
  191MOL    H7734657   7.665   0.231   4.000 -0.4166  0.2964 -0.3170
  191MOL    H7834658   7.634   0.372   4.090  0.9497 -1.5011  0.8318
  191MOL    H7934659   0.019   0.489   3.861  0.1575  0.0470  2.5786
  191MOL    H8034660   7.560   0.250   3.784  1.7160 -1.3378  0.1095
  191MOL    H8134661   7.616   0.378   3.668 -1.3892  0.7738  0.7066
  191MOL    H8234662   0.025   0.253   3.734  0.4008  0.4003 -0.4762
  191MOL    C8334663   7.500   0.464   3.898 -0.7565 -0.2385  0.3786
  191MOL    C8434664   7.497   0.588   3.988 -0.3158 -0.1354 -0.0800
  191MOL    C8534665   7.547   0.716   3.919 -0.4778  0.3707 -0.3967
  191MOL    H8634666   7.460   0.494   3.801 -0.7573 -1.4143  0.0110
  191MOL    H8734667   7.428   0.387   3.924 -2.6463  1.1686 -0.5719
  191MOL    H8834668   7.565   0.574   4.071 -0.6818  0.7968  0.3764
  191MOL    H8934669   7.559   0.800   3.987  0.4899  1.6897 -2.1306
  191MOL    H9034670   7.642   0.701   3.869  0.9525  1.7370  1.8561
  191MOL    H9134671   7.483   0.753   3.839 -0.7461  2.2895  0.6871
  191MOL    C9234672   7.354   0.615   4.043  0.4226 -0.2282 -0.1084
  191MOL    C9334673   7.305   0.519   4.156  0.4801  0.3967 -0.5794
  191MOL    C9434674   7.405   0.524   4.276  0.2433 -0.5772  0.2412
  191MOL    H9534675   7.346   0.717   4.079 -2.9553 -0.4869 -0.0231
  191MOL    H9634676   7.288   0.633   3.958  2.0987  2.5420 -0.8785
  191MOL    H9734677   7.313   0.417   4.120  2.6570 -0.1897  1.4298
  191MOL    H9834678   7.362   0.452   4.345  0.1337 -1.9434 -1.2405
  191MOL    H9934679   7.504   0.480   4.262  0.7335  0.6216 -0.2209
  191MOL   H10034680   7.404   0.622   4.323 -0.9726  1.2028 -3.2944
  191MOL   C10134681   7.161   0.537   4.202  0.5596 -0.3034  0.4954
  191MOL   C10234682   7.062   0.457   4.116 -0.0790  0.1771  0.4592
  191MOL   C10334683   7.064   0.306   4.135  0.1155  0.9817  0.4971
  191MOL   H10434684   7.150   0.505   4.306 -1.0295  0.9624  0.7330
  191MOL   H10534685   7.132   0.641   4.215  1.1734 -0.3318  2.3878
  191MOL   H10634686   7.092   0.476   4.013  2.0531  1.0559  1.2284
  191MOL   H10734687   6.992   0.241   4.086 -0.1476  0.1997  1.9232
  191MOL   H10834688   7.160   0.261   4.107 -1.5548 -1.2275 -1.9073
  191MOL   H10934689   7.048   0.277   4.238  0.4989 -2.6941 -0.4200
  191MOL   C11034690   6.910   0.502   4.143 -0.7226 -0.3292  0.5470
  191MOL   C11134691   6.883   0.656   4.149  0.3571 -0.3684 -0.1483
  191MOL   C11234692   6.935   0.717   4.020  0.0151 -0.6650 -0.1564
  191MOL   H11334693   6.839   0.453   4.076 -0.4467  1.5571 -1.1597
  191MOL   H11434694   6.878   0.468   4.242 -1.3980 -0.9192  0.1321
  191MOL   H11534695   6.913   0.715   4.235 -0.6682 -0.1093  0.0380
  191MOL   H11634696   6.931   0.826   4.022 -1.9988 -0.6616 -2.8514
  191MOL   H11734697   7.042   0.692   4.017 -0.1544 -1.3889 -0.2931
  191MOL   H11834698   6.901   0.673   3.927 -2.6003  1.3336 -0.2014
  191MOL   C11934699   6.729   0.673   4.146  0.0826  0.0406 -0.8239
  191MOL   C12034700   6.652   0.649   4.275 -0.9029 -0.0588 -0.6628
  191MOL   C12134701   6.684   0.754   4.377 -0.5622  0.1163  0.1557
  191MOL   H12234702   6.705   0.772   4.108 -1.8344 -0.1338 -0.1248
  191MOL   H12334703   6.678   0.602   4.082 -1.2208  0.7323 -0.5811
  191MOL   H12434704   6.689   0.560   4.325  0.7629  1.4505  0.8643
  191MOL   H12534705   6.639   0.850   4.356  0.9272  1.5939  3.4288
  191MOL   H12634706   6.636   0.724   4.470 -1.8179 -2.7734 -1.3299
  191MOL   H12734707   6.791   0.769   4.392 -0.2722  0.5758 -2.1766
  191MOL   C12834708   6.505   0.632   4.256 -0.1715 -0.2209 -0.2928
  191MOL   C12934709   6.447   0.507   4.184  0.1359 -0.5454  0.6335
  191MOL   C13034710   6.462   0.373   4.251  0.0284 -0.2884 -0.1981
  191MOL   H13134711   6.468   0.651   4.357  0.6812  0.7635 -0.1556
  191MOL   H13234712   6.461   0.714   4.199 -1.6247 -1.7504 -1.4259
  191MOL   H13334713   6.503   0.500   4.090 -0.9772 -1.1912  0.0015
  191MOL   H13434714   6.478   0.293   4.178  1.1999  0.8202 -1.1888
  191MOL   H13534715   6.547   0.363   4.317 -0.2777  1.5142  0.4955
  191MOL   H13634716   6.379   0.353   4.319 -1.5968  1.1701 -1.6665
  191MOL   C13734717   6.305   0.531   4.150  0.3851  0.4406 -0.3159
  191MOL   C13834718   6.284   0.573   4.008 -0.5213  0.5322  0.0504
  191MOL   C13934719   6.297   0.450   3.913  0.5080 -0.2013 -0.1068
  191MOL   H14034720   6.240   0.446   4.170  0.2587  1.0334  1.9723
  191MOL   H14134721   6.264   0.614   4.208 -0.9165  0.4191 -1.1891
  191MOL   H14234722   6.356   0.653   3.992  1.1285 -1.1464 -1.1331
  191MOL   H14334723   6.398   0.423   3.883  1.1509  0.2746  1.5797
  191MOL   H14434724   6.256   0.361   3.962 -2.3558  1.5945  0.8571
  191MOL   H14534725   6.245   0.460   3.817  0.6969  0.4198 -0.1451
  191MOL   C14634726   6.145   0.637   3.984  0.1282  0.2090  0.2272
  191MOL   C14734727   6.128   0.786   4.016  0.4213 -0.5640 -0.6488
  191MOL   C14834728   6.202   0.878   3.913 -0.3841  0.0234  0.9815
  191MOL   H14934729   6.117   0.627   3.879  0.0430  0.2485  0.2454
  191MOL   H15034730   6.070   0.580   4.040  0.5072  0.6378  1.1690
  191MOL   H15134731   6.172   0.812   4.113 -1.0514 -2.5372  0.5870
  191MOL   H15234732   6.292   0.836   3.867  0.3731  0.9999  1.5380
  191MOL   H15334733   6.142   0.903   3.825  1.5310  0.7202 -0.1848
  191MOL   H15434734   6.237   0.972   3.956  2.1361 -0.5017  0.1952
  191MOL   C15534735   5.981   0.826   4.032 -0.7962  0.2697  0.0235
  191MOL   C15634736   5.955   0.976   4.078 -0.8440 -0.5125 -0.0907
  191MOL   C15734737   5.805   1.004   4.066  0.9942 -1.0429 -0.3381
  191MOL   H15834738   5.924   0.806   3.941  0.4056  0.1548 -0.7095
  191MOL   H15934739   5.953   0.758   4.112  0.8235 -1.8686 -1.1958
  191MOL   H16034740   5.997   1.037   3.998 -0.9479 -2.8907 -2.0166
  191MOL   H16134741   5.766   0.985   3.965  0.8947 -1.8102 -0.1626
  191MOL   H16234742   5.746   0.941   4.133 -1.5737  1.1723 -0.4421
  191MOL   H16334743   5.781   1.108   4.088 -0.3413 -1.3715 -0.1469
  191MOL   C16434744   6.010   1.006   4.219 -0.3910 -0.1132 -0.1666
  191MOL   C16534745   6.144   1.088   4.231  0.0794 -0.2170  0.9331
  191MOL   C16634746   6.110   1.232   4.270 -0.7969  0.0494  0.2794
  191MOL   H16734747   5.937   1.072   4.266 -1.7013 -2.0626  0.6072
  191MOL   H16834748   6.025   0.911   4.270  0.0429 -0.2197 -0.4878
  191MOL   H16934749   6.184   1.099   4.130 -2.0003  0.8044  0.1893
  191MOL   H17034750   6.048   1.265   4.186 -0.2398  0.5642  0.0671
  191MOL   H17134751   6.062   1.234   4.368  0.2820 -0.4620  0.8296
  191MOL   H17234752   6.201   1.290   4.259 -0.3285 -0.8827 -0.9486
  191MOL   C17334753   6.251   1.025   4.321 -0.3492 -0.1783  0.6391
  191MOL   C17434754   6.211   1.008   4.471  0.5490 -0.0130  0.0264
  191MOL   C17534755   6.294   0.904   4.549  1.0703  0.4240 -0.0432
  191MOL   H17634756   6.280   0.927   4.282  1.8310  0.6632  0.0345
  191MOL   H17734757   6.336   1.093   4.313 -0.3990 -0.1628  0.2250
  191MOL   H17834758   6.105   0.986   4.484  1.0301 -0.8310  3.1139
  191MOL   H17934759   6.294   0.807   4.499  0.2982  0.5786 -0.3456
  191MOL   H18034760   6.397   0.940   4.544  0.9903  0.3163 -3.1466
  191MOL   H18134761   6.257   0.894   4.651 -3.3089  2.8869 -1.2590
  191MOL   H18234762   6.226   1.108   4.512 -1.1188  0.4591 -0.4745
  192MOL     C134763   2.984   5.874   1.679 -0.0707 -0.1378  0.1255
  192MOL     C234764   2.878   5.985   1.701 -1.0419  0.3629  0.0748
  192MOL     C334765   2.884   6.039   1.848 -0.1702 -0.1156  0.2120
  192MOL     H434766   3.080   5.919   1.706 -0.2567  0.3991 -0.1043
  192MOL     H534767   2.984   5.845   1.574 -1.7853 -2.0212  0.6323
  192MOL     H634768   2.782   5.938   1.683 -0.6596 -0.3271 -0.1748
  192MOL     H734769   2.972   6.095   1.879 -0.1274 -0.2417  0.3154
  192MOL     H834770   2.793   6.096   1.871 -0.2257 -0.4302  0.7785
  192MOL     H934771   2.870   5.964   1.926  1.9337 -0.8957 -0.1475
  192MOL    H1034772   2.967   5.780   1.731 -0.1048 -0.7314 -0.9554
  192MOL    C1134773   2.888   6.093   1.591  0.0215 -0.7467  0.5572
  192MOL    C1234774   2.758   6.186   1.578 -0.5826  0.1271  0.3265
  192MOL    C1334775   2.807   6.314   1.508  0.3326  0.1059  0.0149
  192MOL    H1434776   2.970   6.159   1.619  0.1058 -0.8342  0.5163
  192MOL    H1534777   2.919   6.051   1.496 -1.6274 -0.9830  0.1094
  192MOL    H1634778   2.726   6.226   1.674 -0.6650  1.2722 -0.1652
  192MOL    H1734779   2.854   6.292   1.413  2.8678 -0.3434  1.3254
  192MOL    H1834780   2.728   6.381   1.474  0.6340  0.2445 -0.4097
  192MOL    H1934781   2.882   6.369   1.565  0.7709  1.6193 -1.9746
  192MOL    C2034782   2.638   6.110   1.510  0.0045  0.4017 -0.2692
  192MOL    C2134783   2.496   6.158   1.558  0.6845 -0.5474 -0.2694
  192MOL    C2234784   2.442   6.264   1.467 -0.0324 -0.3404 -0.1394
  192MOL    H2334785   2.628   6.110   1.401  1.0405 -3.4609 -0.4168
  192MOL    H2434786   2.645   6.003   1.530 -0.3609  0.5427  0.6284
  192MOL    H2534787   2.507   6.206   1.655  2.1409  1.5312 -1.4222
  192MOL    H2634788   2.406   6.218   1.376 -0.0757 -0.2072 -0.1901
  192MOL    H2734789   2.357   6.320   1.506  2.2185  3.0002  0.2083
  192MOL    H2834790   2.518   6.341   1.452 -0.8986  0.0757 -2.4754
  192MOL    C2934791   2.395   6.048   1.581  0.0491 -0.3569  0.2589
  192MOL    C3034792   2.252   6.085   1.619 -0.1003  0.2831 -0.2131
  192MOL    C3134793   2.155   5.978   1.588  0.1544 -0.5886  0.1427
  192MOL    H3234794   2.379   5.997   1.486  1.4380 -0.1831 -0.0752
  192MOL    H3334795   2.436   5.977   1.652  0.9203  0.3788  0.5044
  192MOL    H3434796   2.223   6.169   1.556 -1.8698 -1.2173 -1.4432
  192MOL    H3534797   2.185   5.893   1.649  2.6783  0.5424  0.5287
  192MOL    H3634798   2.052   6.003   1.615  0.5044 -0.6142  1.5604
  192MOL    H3734799   2.155   5.937   1.487 -0.0199 -1.3143  0.4330
  192MOL    C3834800   2.243   6.128   1.762 -0.1011 -0.0247  0.3087
  192MOL    C3934801   2.119   6.207   1.802 -0.1625 -0.1746  0.2472
  192MOL    C4034802   2.034   6.115   1.890  0.1529 -0.0418  0.4255
  192MOL    H4134803   2.277   6.042   1.820  3.7497  0.9729 -0.3266
  192MOL    H4234804   2.330   6.190   1.782 -0.6008 -0.2935  3.5992
  192MOL    H4334805   2.059   6.242   1.718  0.4952  3.7611  1.3216
  192MOL    H4434806   2.088   6.077   1.977 -1.2652 -2.6525  0.2345
  192MOL    H4534807   1.943   6.161   1.929 -0.1765 -0.5554  0.2742
  192MOL    H4634808   1.994   6.028   1.836  1.8152 -1.7018  1.7915
  192MOL    C4734809   2.161   6.334   1.877 -0.3959  0.8855 -0.4564
  192MOL    C4834810   2.214   6.441   1.785 -0.0468 -0.1865  0.3652
  192MOL    C4934811   2.104   6.538   1.742  0.0327  0.3234  0.1196
  192MOL    H5034812   2.076   6.374   1.932 -2.4272 -3.7970  0.0354
  192MOL    H5134813   2.227   6.302   1.957 -0.9851  0.3466 -0.1827
  192MOL    H5234814   2.264   6.392   1.701 -0.1579 -1.3791  0.9849
  192MOL    H5334815   2.062   6.598   1.823 -0.3384 -1.0853  0.9731
  192MOL    H5434816   2.143   6.612   1.672  0.0216 -1.7329 -2.1197
  192MOL    H5534817   2.016   6.490   1.700  0.0320 -0.0990  0.5957
  192MOL    C5634818   2.324   6.514   1.857 -0.0572  0.6922  0.0407
  192MOL    C5734819   2.386   6.639   1.781  0.0418  0.2824  0.1032
  192MOL    C5834820   2.491   6.700   1.870 -0.0857  0.5719 -0.4051
  192MOL    H5934821   2.292   6.534   1.959  0.4720 -1.4152  0.6295
  192MOL    H6034822   2.407   6.444   1.867 -0.6367  0.0160  0.0937
  192MOL    H6134823   2.309   6.717   1.776 -0.3140 -0.0733  0.0005
  192MOL    H6234824   2.566   6.625   1.895 -0.7039  0.2888  0.6185
  192MOL    H6334825   2.533   6.788   1.819 -0.7991  1.6381  0.8169
  192MOL    H6434826   2.449   6.726   1.967 -1.1089  0.3029 -0.7742
  192MOL    C6534827   2.443   6.625   1.638 -0.5613  0.1372  0.3644
  192MOL    C6634828   2.389   6.728   1.526 -0.3577  0.6567 -0.0263
  192MOL    C6734829   2.415   6.873   1.566  0.3623 -0.0244  0.7772
  192MOL    H6834830   2.550   6.640   1.650 -0.5788  0.6487 -0.1107
  192MOL    H6934831   2.415   6.526   1.603  0.5535  0.0461 -0.2984
  192MOL    H7034832   2.280   6.726   1.518 -0.4380  0.2081  1.1391
  192MOL    H7134833   2.375   6.936   1.487  0.6745  0.1701  0.7728
  192MOL    H7234834   2.369   6.885   1.664 -1.1426 -0.8055  0.1809
  192MOL    H7334835   2.522   6.885   1.583  0.7336  0.6940 -1.8015
  192MOL    C7434836   2.446   6.691   1.384 -0.8206  0.0301  0.6674
  192MOL    C7534837   2.352   6.707   1.266  0.4164 -0.1930 -0.2757
  192MOL    C7634838   2.428   6.760   1.150  0.0332 -0.1052 -0.1714
  192MOL    H7734839   2.533   6.754   1.369 -0.0572 -0.9861  0.8127
  192MOL    H7834840   2.483   6.588   1.388 -2.1301 -0.4488  0.7579
  192MOL    H7934841   2.283   6.788   1.287  0.2974 -0.4116  0.1739
  192MOL    H8034842   2.522   6.712   1.123 -0.1045 -1.0709  1.0029
  192MOL    H8134843   2.367   6.757   1.060  1.4579 -0.7314 -1.1350
  192MOL    H8234844   2.457   6.861   1.176 -2.6538  1.0723 -1.5764
  192MOL    C8334845   2.282   6.575   1.219 -0.8696  0.5098 -0.1987
  192MOL    C8434846   2.129   6.585   1.184  0.2698 -0.4289  0.6086
  192MOL    C8534847   2.095   6.690   1.078 -0.9088  0.0612  0.1382
  192MOL    H8634848   2.341   6.528   1.139 -0.0746  1.5341 -0.2131
  192MOL    H8734849   2.290   6.505   1.302 -1.1918  0.9315  0.1900
  192MOL    H8834850   2.080   6.621   1.275  0.8711 -1.2974  1.2829
  192MOL    H8934851   2.160   6.776   1.096  1.5318 -1.5334 -0.7518
  192MOL    H9034852   2.126   6.650   0.981  1.6389 -3.6127  2.3349
  192MOL    H9134853   1.989   6.713   1.087 -0.4732  3.2474 -2.0981
  192MOL    C9234854   2.074   6.449   1.133 -0.3441 -0.4720  0.2241
  192MOL    C9334855   2.103   6.327   1.222  0.7030  0.8058  0.2389
  192MOL    C9434856   2.071   6.347   1.373  0.0264 -0.0657  0.1507
  192MOL    H9534857   1.965   6.448   1.129 -0.3797 -0.1568  1.0313
  192MOL    H9634858   2.107   6.429   1.031 -3.1055 -0.2287 -0.7501
  192MOL    H9734859   2.210   6.317   1.207  0.8299  2.5805 -0.0995
  192MOL    H9834860   1.969   6.378   1.396  0.2056 -0.0652  0.9531
  192MOL    H9934861   2.092   6.251   1.421  1.1723  0.5422  0.9091
  192MOL   H10034862   2.142   6.418   1.418 -0.5626 -0.2131  1.3382
  192MOL   C10134863   2.031   6.196   1.176 -0.1488  0.0146 -0.3889
  192MOL   C10234864   2.100   6.061   1.214 -1.0445  0.3871  0.5031
  192MOL   C10334865   1.995   5.953   1.203  0.2002 -0.9114 -0.0408
  192MOL   H10434866   1.927   6.189   1.208 -0.4292  0.6216 -1.1725
  192MOL   H10534867   2.023   6.198   1.068 -0.9140 -0.0734 -0.3379
  192MOL   H10634868   2.152   6.058   1.310  1.7026 -1.7024 -0.9682
  192MOL   H10734869   1.914   5.967   1.273  0.3501 -0.5859  0.0705
  192MOL   H10834870   1.961   5.962   1.100 -0.8422  2.8544  0.5629
  192MOL   H10934871   2.026   5.850   1.221 -0.2491 -1.0416 -0.0322
  192MOL   C11034872   2.208   6.035   1.109  1.1209 -0.4739  0.1921
  192MOL   C11134873   2.335   5.956   1.159 -0.0342 -0.5542 -0.3338
  192MOL   C11234874   2.293   5.823   1.221  0.3784  0.2707  0.0767
  192MOL   H11334875   2.162   5.977   1.029  1.0825  0.8859 -0.7871
  192MOL   H11434876   2.234   6.130   1.062  0.0506 -0.0497  0.4456
  192MOL   H11534877   2.373   6.019   1.239 -0.9225 -0.3630 -0.0477
  192MOL   H11634878   2.223   5.826   1.304  0.3705 -1.9537  0.2010
  192MOL   H11734879   2.245   5.766   1.141 -0.8646 -0.2415  1.1819
  192MOL   H11834880   2.376   5.770   1.267  1.1998  0.9021 -0.6514
  192MOL   C11934881   2.439   5.935   1.054 -0.0468  0.2785  0.1268
  192MOL   C12034882   2.508   6.056   0.992 -0.2176 -0.2186  0.5019
  192MOL   C12134883   2.539   6.174   1.090  0.0772  0.0507  0.4815
  192MOL   H12234884   2.525   5.884   1.096 -2.0439 -3.4851 -0.0825
  192MOL   H12334885   2.414   5.869   0.971  2.5891 -3.9290  2.5283
  192MOL   H12434886   2.433   6.096   0.924 -0.7160 -0.7497  0.7414
  192MOL   H12534887   2.592   6.130   1.175 -2.8256 -0.8721  1.8590
  192MOL   H12634888   2.600   6.250   1.040  0.1117  0.4491  1.1174
  192MOL   H12734889   2.457   6.227   1.138 -0.8947  0.4002 -1.5399
  192MOL   C12834890   2.632   6.019   0.899 -0.4134 -0.6826 -0.6334
  192MOL   C12934891   2.607   5.922   0.781 -0.5736  0.1940 -0.3771
  192MOL   C13034892   2.507   5.971   0.680 -0.1732 -0.7981  0.0922
  192MOL   H13134893   2.672   6.116   0.868 -0.2968  0.3260  2.5405
  192MOL   H13234894   2.712   5.999   0.970  1.0281  6.4250  0.0868
  192MOL   H13334895   2.562   5.832   0.823 -1.1819 -0.2129 -1.8954
  192MOL   H13434896   2.524   6.073   0.644  0.0328 -1.1826 -0.9342
  192MOL   H13534897   2.502   5.910   0.589  1.9614  1.3070 -1.5170
  192MOL   H13634898   2.405   5.977   0.718 -0.4456  1.0291 -0.8346
  192MOL   C13734899   2.725   5.870   0.702 -0.2957  0.3758  0.8109
  192MOL   C13834900   2.847   5.821   0.786  0.0551 -0.5932  0.4849
  192MOL   C13934901   2.944   5.933   0.831 -0.1026 -0.3886  0.0924
  192MOL   H14034902   2.688   5.783   0.648 -1.2688  1.0451  0.3720
  192MOL   H14134903   2.757   5.945   0.629 -3.1752 -0.1633 -1.1074
  192MOL   H14234904   2.912   5.771   0.713 -0.3791 -0.4148 -0.0274
  192MOL   H14334905   3.036   5.879   0.855  0.1989 -0.3816 -1.0203
  192MOL   H14434906   2.960   6.005   0.751  1.9794 -1.7361 -0.7543
  192MOL   H14534907   2.907   5.983   0.920 -2.7958  0.9135 -1.6800
  192MOL   C14634908   2.821   5.714   0.897  0.0872  0.6360 -0.1381
  192MOL   C14734909   2.751   5.582   0.863 -0.1319 -0.2771 -0.1651
  192MOL   C14834910   2.845   5.505   0.771 -0.4808  0.6918  0.5843
  192MOL   H14934911   2.914   5.679   0.941 -1.8297 -3.0552  1.2898
  192MOL   H15034912   2.761   5.760   0.976  0.3775  0.2160  0.3393
  192MOL   H15134913   2.659   5.595   0.805 -1.3113 -0.3913  1.6180
  192MOL   H15234914   2.913   5.564   0.710  0.8245  2.2069  3.3802
  192MOL   H15334915   2.910   5.438   0.827 -1.8267 -0.2402  1.0598
  192MOL   H15434916   2.796   5.436   0.703  0.6551 -0.3480  0.8177
  192MOL   C15534917   2.714   5.500   0.983 -0.4367  0.5018  0.1857
  192MOL   C15634918   2.601   5.555   1.075  0.4508  0.3576 -0.2137
  192MOL   C15734919   2.475   5.502   1.018  0.0309 -0.2332  0.1757
  192MOL   H15834920   2.685   5.403   0.941  0.6951  0.1994  0.0975
  192MOL   H15934921   2.803   5.489   1.044  0.3503  2.3101 -0.6043
  192MOL   H16034922   2.606   5.664   1.082 -0.1128  0.4510 -1.1716
  192MOL   H16134923   2.392   5.550   1.070  0.9598  1.0107  0.5270
  192MOL   H16234924   2.473   5.539   0.915  0.1275  0.3162  0.3722
  192MOL   H16334925   2.476   5.393   1.027 -0.1944 -0.4362 -1.8601
  192MOL   C16434926   2.601   5.519   1.224 -0.2602  0.1353 -0.3216
  192MOL   C16534927   2.720   5.584   1.296 -0.4127 -0.2418  0.1461
  192MOL   C16634928   2.682   5.728   1.339  0.0171 -0.4324 -0.5851
  192MOL   H16734929   2.505   5.542   1.269  0.8922  0.8941  1.7927
  192MOL   H16834930   2.601   5.410   1.236 -3.2553  0.1231 -0.1134
  192MOL   H16934931   2.810   5.584   1.235  1.0697 -0.9541  2.2695
  192MOL   H17034932   2.620   5.780   1.266 -0.2619  1.7634  1.1738
  192MOL   H17134933   2.633   5.728   1.436  1.8691 -0.6718  0.3686
  192MOL   H17234934   2.768   5.792   1.358  0.2663 -1.3325  1.4768
  192MOL   C17334935   2.759   5.507   1.427 -0.0180  0.2211  0.2451
  192MOL   C17434936   2.877   5.407   1.413 -0.5751  0.5796  0.2481
  192MOL   C17534937   2.904   5.344   1.547 -0.0863 -0.4562 -0.6756
  192MOL   H17634938   2.791   5.578   1.502 -1.4075  1.0183  0.1096
  192MOL   H17734939   2.677   5.457   1.480 -0.4012  0.7432  0.1480
  192MOL   H17834940   2.964   5.456   1.370  0.2857  0.1136  1.4589
  192MOL   H17934941   2.953   5.408   1.620 -1.6097  0.6744 -0.6122
  192MOL   H18034942   2.813   5.307   1.593  1.2303 -0.6383  1.8256
  192MOL   H18134943   2.969   5.256   1.540 -1.9472 -1.7554 -2.1300
  192MOL   H18234944   2.860   5.325   1.343  0.9571  0.5537 -0.0937
  193MOL     C134945   7.528   6.540   1.545  0.2440 -0.6695 -0.1587
  193MOL     C234946   7.475   6.434   1.634  0.3088 -0.7554 -0.5840
  193MOL     C334947   7.426   6.488   1.774  0.4306 -0.7097  0.3518
  193MOL     H434948   7.465   6.628   1.531  0.4804 -0.5309 -0.3641
  193MOL     H534949   7.562   6.501   1.449 -1.5868 -0.5262 -0.8878
  193MOL     H634950   7.558   6.364   1.648  1.7728  0.9711 -0.5144
  193MOL     H734951   7.405   6.408   1.845 -1.0574 -2.2211 -1.7132
  193MOL     H834952   7.506   6.550   1.812  0.0105 -1.5470  2.7086
  193MOL     H934953   7.334   6.543   1.756  0.6851 -0.8715 -1.6254
  193MOL    H1034954   7.621   6.577   1.589  1.5348  0.8714 -3.9347
  193MOL    C1134955   7.364   6.365   1.558  0.6989  0.0610  0.3170
  193MOL    C1234956   7.328   6.223   1.608  0.4241  1.1072  0.2730
  193MOL    C1334957   7.176   6.198   1.588  0.2403  0.7400 -0.1647
  193MOL    H1434958   7.271   6.422   1.559 -0.0955 -1.1758 -0.7190
  193MOL    H1534959   7.402   6.352   1.457  1.5200  0.1427  0.6157
  193MOL    H1634960   7.342   6.212   1.716  1.9878 -1.4842 -0.1624
  193MOL    H1734961   7.139   6.201   1.485  0.2727 -0.1450 -0.2077
  193MOL    H1834962   7.146   6.107   1.640  0.0448 -0.1737 -1.8094
  193MOL    H1934963   7.124   6.276   1.642 -1.6040 -1.0751  0.7197
  193MOL    C2034964   7.415   6.120   1.533  0.4320 -0.1208  0.4650
  193MOL    C2134965   7.418   5.984   1.607  0.5651 -0.1635  0.9511
  193MOL    C2234966   7.419   5.871   1.507 -0.0051  0.3794  0.5198
  193MOL    H2334967   7.380   6.115   1.429  0.4680  0.5468  0.4235
  193MOL    H2434968   7.516   6.159   1.525  0.2939  0.1674  0.0874
  193MOL    H2534969   7.319   5.979   1.654  0.0519  1.5054  0.1164
  193MOL    H2634970   7.351   5.892   1.424  2.7660 -0.1102 -1.9492
  193MOL    H2734971   7.516   5.862   1.458 -1.4490 -1.0292 -2.2385
  193MOL    H2834972   7.393   5.771   1.541 -1.5131  0.6188  0.0963
  193MOL    C2934973   7.532   5.976   1.711  0.5814 -0.0385 -0.2865
  193MOL    C3034974   7.541   5.848   1.805 -0.7974  0.5427 -0.0512
  193MOL    C3134975   7.674   5.853   1.888 -0.6083 -0.2033  0.0886
  193MOL    H3234976   7.629   5.994   1.664  0.8530 -1.1546 -0.1736
  193MOL    H3334977   7.525   6.054   1.786 -1.5093  0.1991 -0.6883
  193MOL    H3434978   7.532   5.767   1.732 -2.0767  0.0899  0.5878
  193MOL    H3534979   0.001   5.755   1.930  0.1565  0.3349  0.9253
  193MOL    H3634980   0.061   5.889   1.829 -0.4765 -0.4653  0.1144
  193MOL    H3734981   7.670   5.923   1.972 -2.5698  2.4050 -2.0933
  193MOL    C3834982   7.416   5.826   1.896 -0.4530 -0.5283 -0.1715
  193MOL    C3934983   7.423   5.683   1.962  0.4488 -0.3059 -1.1879
  193MOL    C4034984   7.382   5.695   2.109 -0.0170 -0.7539  0.6787
  193MOL    H4134985   7.429   5.905   1.970 -1.1531 -0.3735 -0.2081
  193MOL    H4234986   7.326   5.838   1.836 -1.3550 -0.7084  1.1394
  193MOL    H4334987   7.525   5.645   1.956 -0.1187 -1.9227 -0.8828
  193MOL    H4434988   7.274   5.703   2.123 -0.1974  1.1218 -1.5842
  193MOL    H4534989   7.413   5.607   2.167 -0.0736 -1.1512  0.1062
  193MOL    H4634990   7.431   5.783   2.148  2.5082 -0.6088 -2.6385
  193MOL    C4734991   7.342   5.583   1.887  0.0747 -0.6041  0.3632
  193MOL    C4834992   7.336   5.435   1.945 -0.6991 -0.0680 -0.3495
  193MOL    C4934993   7.215   5.359   1.888 -0.6570 -0.2171 -0.0254
  193MOL    H5034994   7.242   5.625   1.877  0.2404 -0.6515 -1.7447
  193MOL    H5134995   7.365   5.582   1.781  2.0167  2.8794  0.6872
  193MOL    H5234996   7.301   5.444   2.048 -3.6102 -3.0950 -0.9665
  193MOL    H5334997   7.197   5.283   1.963  0.5749  0.9392  1.4901
  193MOL    H5434998   7.130   5.427   1.882  1.0369  1.8730 -1.1313
  193MOL    H5534999   7.253   5.318   1.795  3.9424 -0.7044  1.9115
  193MOL    C5635000   7.459   5.341   1.913  0.0166 -0.1891 -0.6750
  193MOL    C5735001   7.598   5.365   1.978 -0.0074 -0.3274 -0.3774
  193MOL    C5835002   7.603   5.355   2.127 -0.1542 -0.4032  0.7598
  193MOL    H5935003   7.434   5.237   1.934 -2.2380  0.4602  0.0213
  193MOL    H6035004   7.481   5.338   1.807  0.5427 -0.3391 -0.5636
  193MOL    H6135005   7.637   5.463   1.951  2.1092 -1.2347 -0.6781
  193MOL    H6235006   0.005   5.347   2.173  0.1500 -0.6908  0.0643
  193MOL    H6335007   7.570   5.450   2.169  0.3417  0.5913 -1.0681
  193MOL    H6435008   7.546   5.268   2.160 -1.5073 -0.0053 -0.4642
  193MOL    C6535009   0.017   5.273   1.916  1.1223  0.0359 -0.2596
  193MOL    C6635010   0.164   5.315   1.939  0.1436  0.0411  0.0917
  193MOL    C6735011   0.259   5.200   1.987 -0.4947  0.0035 -0.8537
  193MOL    H6835012   0.015   5.179   1.971  1.0651  1.5815  2.4540
  193MOL    H6935013   7.697   5.252   1.810 -2.5281 -1.0448  0.4707
  193MOL    H7035014   0.165   5.385   2.023 -0.4613 -1.6493  1.5290
  193MOL    H7135015   0.283   5.119   1.919  3.6604  0.4228 -0.0036
  193MOL    H7235016   0.357   5.242   2.010 -0.9416  0.4824  0.2119
  193MOL    H7335017   0.225   5.146   2.076  0.6427  1.9669  0.8156
  193MOL    C7435018   0.223   5.388   1.821  0.1534  0.4015 -0.0818
  193MOL    C7535019   0.174   5.534   1.791  0.2467  0.3649  0.3652
  193MOL    C7635020   0.257   5.626   1.879 -0.1574 -0.2702  0.3099
  193MOL    H7735021   0.330   5.383   1.841  0.0123 -0.8083  0.3857
  193MOL    H7835022   0.204   5.339   1.726 -1.6408  3.3909 -1.3255
  193MOL    H7935023   0.072   5.551   1.826 -0.2481  0.4038 -1.0832
  193MOL    H8035024   0.222   5.728   1.895  0.4341 -0.2541  1.5781
  193MOL    H8135025   0.266   5.588   1.981  1.3298 -0.6437  0.0509
  193MOL    H8235026   0.359   5.636   1.844  0.0945 -0.8448  0.8728
  193MOL    C8335027   0.185   5.571   1.641 -0.2720  0.0040  0.3926
  193MOL    C8435028   0.079   5.518   1.543  0.6528  0.3134  0.9226
  193MOL    C8535029   7.630   5.580   1.545  0.2420  0.3119  0.6814
  193MOL    H8635030   0.166   5.677   1.629 -0.2775 -0.1524 -1.1130
  193MOL    H8735031   0.288   5.552   1.611 -0.3808 -1.2713  0.7776
  193MOL    H8835032   0.063   5.412   1.560  0.2624  0.5223  1.8570
  193MOL    H8935033   7.564   5.552   1.463  2.5216  1.0776 -1.4529
  193MOL    H9035034   7.588   5.565   1.645  1.2273  1.5520  1.3094
  193MOL    H9135035   7.639   5.689   1.545  0.0231  0.3443  1.8209
  193MOL    C9235036   0.125   5.531   1.390  0.3641  0.2323  0.5904
  193MOL    C9335037   0.275   5.503   1.347 -0.3796 -0.3397 -0.6418
  193MOL    C9435038   0.310   5.357   1.391 -0.2848 -0.5965  0.2421
  193MOL    H9535039   0.066   5.458   1.334  1.1518  1.6843 -2.2076
  193MOL    H9635040   0.103   5.632   1.355 -0.3579  0.0279  0.4446
  193MOL    H9735041   0.350   5.564   1.397 -1.4722 -0.2108  0.8435
  193MOL    H9835042   0.317   5.369   1.499 -0.6484 -1.0010  0.3144
  193MOL    H9935043   0.243   5.277   1.358 -2.5352  1.1351  0.4854
  193MOL   H10035044   0.405   5.331   1.345  0.8238  1.4438  1.3484
  193MOL   C10135045   0.287   5.524   1.192  0.4181 -0.7768  0.6826
  193MOL   C10235046   0.424   5.542   1.131  0.2520  0.2243 -0.2404
  193MOL   C10335047   0.428   5.497   0.986 -0.8380  0.3128  0.9627
  193MOL   H10435048   0.246   5.433   1.147 -0.3039  0.5165 -1.3436
  193MOL   H10535049   0.232   5.603   1.142  4.3513  1.1885 -0.6739
  193MOL   H10635050   0.489   5.476   1.188 -0.1676 -0.0486 -0.0707
  193MOL   H10735051   0.363   5.413   0.960  0.2134 -0.1392 -0.2158
  193MOL   H10835052   0.401   5.584   0.928 -0.7897  0.6328  1.4168
  193MOL   H10935053   0.530   5.480   0.951 -1.5543 -1.4904 -0.3480
  193MOL   C11035054   0.482   5.689   1.158  0.5749  0.6503  1.1702
  193MOL   C11135055   0.635   5.707   1.158  0.2281  1.2795 -0.3940
  193MOL   C11235056   0.661   5.851   1.199  0.0715  0.6381 -0.6481
  193MOL   H11335057   0.435   5.751   1.081 -0.1727 -0.0226  1.0913
  193MOL   H11435058   0.448   5.724   1.255  1.0161 -1.4979  2.1220
  193MOL   H11535059   0.675   5.681   1.060 -0.3842 -1.0345 -0.0626
  193MOL   H11635060   0.614   5.921   1.130  0.4057 -0.7655 -2.3322
  193MOL   H11735061   0.620   5.878   1.297  1.6721  1.8699 -0.2952
  193MOL   H11835062   0.764   5.887   1.188  0.9490 -1.4059  0.6148
  193MOL   C11935063   0.710   5.617   1.257 -0.6294 -0.1805 -0.1459
  193MOL   C12035064   0.865   5.641   1.256 -0.0243 -0.8190 -0.3653
  193MOL   C12135065   0.897   5.720   1.382 -0.0786 -0.4803 -0.4246
  193MOL   H12235066   0.684   5.627   1.362  0.6558  2.5652 -0.0309
  193MOL   H12335067   0.691   5.513   1.230  1.4322 -0.4507 -0.6476
  193MOL   H12435068   0.896   5.693   1.166 -0.5091 -0.9273 -0.5970
  193MOL   H12535069   1.004   5.733   1.398 -0.1651 -2.0384  1.4955
  193MOL   H12635070   0.858   5.821   1.371 -1.0358 -0.8630 -0.5661
  193MOL   H12735071   0.856   5.671   1.469  2.4246 -1.7986  0.0560
  193MOL   C12835072   0.949   5.509   1.267  0.1238  0.4346 -0.1724
  193MOL   C12935073   0.960   5.427   1.131 -0.1607 -1.0092  0.0774
  193MOL   C13035074   1.058   5.483   1.026 -0.1281 -0.1565  0.3233
  193MOL   H13135075   1.047   5.530   1.308  1.2306 -0.6272 -2.1913
  193MOL   H13235076   0.895   5.446   1.338 -3.3968  1.7564 -1.5233
  193MOL   H13335077   0.863   5.430   1.081  0.2623  0.5827 -0.6879
  193MOL   H13435078   1.038   5.579   0.978  1.1915 -0.0658 -0.0534
  193MOL   H13535079   1.159   5.489   1.066 -0.5561  3.7996  1.0287
  193MOL   H13635080   1.071   5.416   0.941 -0.6884  0.6469 -0.4088
  193MOL   C13735081   0.987   5.283   1.162  0.1066  0.0001  0.1805
  193MOL   C13835082   0.880   5.197   1.241  0.5361  0.2714 -0.5452
  193MOL   C13935083   0.738   5.187   1.178 -0.0748  0.1838  0.1494
  193MOL   H14035084   1.002   5.231   1.067 -0.7395 -0.6132  0.3795
  193MOL   H14135085   1.083   5.286   1.214 -1.1119  0.4237  2.4635
  193MOL   H14235086   0.870   5.247   1.338 -1.4161  0.0670 -0.6328
  193MOL   H14335087   0.726   5.104   1.108 -1.1049  0.0448  0.4832
  193MOL   H14435088   0.671   5.158   1.259  0.8337  0.3509  0.9687
  193MOL   H14535089   0.704   5.287   1.151 -2.8490 -0.3431  1.4560
  193MOL   C14635090   0.936   5.060   1.279  0.3453 -0.0275 -0.2355
  193MOL   C14735091   0.866   4.959   1.376 -0.0176 -0.2007 -0.6297
  193MOL   C14835092   0.952   4.832   1.378 -0.5761  0.4886  0.0694
  193MOL   H14935093   0.952   5.009   1.184  3.0164  2.4760 -1.1914
  193MOL   H15035094   1.036   5.086   1.315  0.7300 -0.8251 -0.7257
  193MOL   H15135095   0.769   4.936   1.334 -1.1183 -1.2041  2.3208
  193MOL   H15235096   0.901   4.745   1.418  0.3818 -0.3636 -0.5540
  193MOL   H15335097   0.952   4.800   1.274 -1.2220 -2.0354  0.8283
  193MOL   H15435098   1.052   4.848   1.420 -0.7059 -0.4776  0.7673
  193MOL   C15535099   0.859   5.022   1.519  0.4961  0.5386  0.8994
  193MOL   C15635100   0.773   4.939   1.624 -0.5457 -0.5391  0.0375
  193MOL   C15735101   0.869   4.846   1.708 -0.7159  0.2558 -0.4437
  193MOL   H15835102   0.958   5.040   1.561  0.5653 -0.8834  1.3611
  193MOL   H15935103   0.814   5.120   1.503  0.1041  0.2381  0.1416
  193MOL   H16035104   0.697   4.881   1.572  0.2447  0.1356 -1.9207
  193MOL   H16135105   0.957   4.897   1.746  0.8998 -3.1462  0.5727
  193MOL   H16235106   0.811   4.801   1.788 -1.4216  1.3825 -0.3057
  193MOL   H16335107   0.908   4.763   1.650 -0.6816  0.9035 -1.3713
  193MOL   C16435108   0.707   5.043   1.718  0.9879  1.0946  0.7299
  193MOL   C16535109   0.590   5.119   1.653 -0.3238 -0.4401 -0.4068
  193MOL   C16635110   0.471   5.025   1.632 -0.1265 -0.5021 -0.4527
  193MOL   H16735111   0.679   4.986   1.807  1.7314  0.9703  0.8902
  193MOL   H16835112   0.775   5.112   1.768  0.6140  2.2123 -0.3084
  193MOL   H16935113   0.610   5.148   1.550  0.3347 -0.5419 -0.3108
  193MOL   H17035114   0.442   4.983   1.728 -0.0916 -0.8186 -0.5814
  193MOL   H17135115   0.395   5.095   1.595 -0.7686 -2.1105 -2.2601
  193MOL   H17235116   0.489   4.943   1.563 -0.1888  0.3193 -1.4683
  193MOL   C17335117   0.547   5.235   1.745 -0.3814 -0.3313  0.1933
  193MOL   C17435118   0.640   5.354   1.740  0.1918 -0.3658  0.2370
  193MOL   C17535119   0.654   5.409   1.597  0.4492  0.1425  0.0399
  193MOL   H17635120   0.451   5.272   1.709 -1.5105 -0.8308  2.6189
  193MOL   H17735121   0.529   5.206   1.848 -0.7338 -1.2798 -0.1318
  193MOL   H17835122   0.740   5.342   1.783 -0.9709  1.1105  3.4761
  193MOL   H17935123   0.556   5.406   1.550  1.7581 -2.0934 -2.6927
  193MOL   H18035124   0.680   5.513   1.614  0.8089 -0.3116  2.4592
  193MOL   H18135125   0.732   5.352   1.548  1.7684  0.6473  1.5214
  193MOL   H18235126   0.595   5.439   1.791 -0.9743  2.0036 -4.4649
  194MOL     C135127   0.486   6.004   0.206  0.7452  0.2680  0.3155
  194MOL     C235128   0.431   5.900   0.101  0.4553 -0.9257 -0.5135
  194MOL     C335129   0.344   5.963   7.687  0.1897  0.0960 -0.1063
  194MOL     H435130   0.538   6.093   0.171 -0.7300  2.0443  2.5401
  194MOL     H535131   0.564   5.953   0.262  0.2293 -1.5993 -0.6160
  194MOL     H635132   0.361   5.830   0.146 -1.3656  0.1208 -1.6094
  194MOL     H735133   0.281   6.041   0.031 -0.1472  0.1670 -0.7447
  194MOL     H835134   0.402   6.024   7.617  0.0224  0.4152  0.0287
  194MOL     H935135   0.280   5.886   7.643 -0.3539 -0.0855  0.9837
  194MOL    H1035136   0.413   6.030   0.282 -0.5130  2.6191 -1.6230
  194MOL    C1135137   0.540   5.811   0.038  0.4431  0.0408 -0.6572
  194MOL    C1235138   0.490   5.678   7.671  0.0802 -0.4784 -0.0763
  194MOL    C1335139   0.605   5.649   7.574  0.1063 -0.1817 -0.0168
  194MOL    H1435140   0.601   5.875   7.672  0.4860  0.1452 -0.5135
  194MOL    H1535141   0.619   5.787   0.110  0.4865 -0.4063 -0.8557
  194MOL    H1635142   0.400   5.693   7.611  0.6048  1.9845 -0.3164
  194MOL    H1735143   0.615   5.724   7.496 -2.5935  1.1147  0.8003
  194MOL    H1835144   0.701   5.643   7.624  0.5095 -2.0267 -0.9757
  194MOL    H1935145   0.601   5.556   7.517 -0.6575  0.4200 -0.9528
  194MOL    C2035146   0.462   5.569   0.082 -0.1568  0.9094 -0.0112
  194MOL    C2135147   0.371   5.458   0.026  0.2141 -0.1866  0.2896
  194MOL    C2235148   0.379   5.333   0.116 -0.2503  0.3011 -0.6330
  194MOL    H2335149   0.558   5.518   0.097 -0.2694  0.6634 -0.1169
  194MOL    H2435150   0.412   5.613   0.168 -0.7621  0.8874 -0.3483
  194MOL    H2535151   0.415   5.430   7.627 -0.3179 -0.2088  0.0446
  194MOL    H2635152   0.344   5.245   0.062  1.3979 -1.7656  1.5311
  194MOL    H2735153   0.481   5.299   0.137 -1.0227 -1.5204  0.3521
  194MOL    H2835154   0.325   5.355   0.209  1.2803  2.8658 -0.3200
  194MOL    C2935155   0.221   5.489   0.010  0.7846  0.9133 -0.1003
  194MOL    C3035156   0.143   5.396   7.613 -0.3879  0.0969  0.0583
  194MOL    C3135157   0.015   5.338   7.683 -0.4202  0.1509  0.0942
  194MOL    H3235158   0.194   5.479   0.115  0.9865 -1.0075 -0.2096
  194MOL    H3335159   0.213   5.591   7.670  2.8496  0.9264 -0.5709
  194MOL    H3435160   0.205   5.312   7.581  0.6825  0.9028 -0.0102
  194MOL    H3535161   7.662   5.261   7.624 -2.1578  0.6202  0.9266
  194MOL    H3635162   0.039   5.305   0.086  2.3387 -0.6033 -0.7597
  194MOL    H3735163   7.630   5.409   7.682  0.1564  0.8469  1.2593
  194MOL    C3835164   0.089   5.475   7.491 -0.2672 -1.0273  0.0694
  194MOL    C3935165   0.198   5.535   7.399  0.2980  0.1555 -0.1208
  194MOL    C4035166   0.301   5.430   7.355 -0.5226  0.2129 -0.1098
  194MOL    H4135167   0.031   5.416   7.419  1.9218  1.8859 -4.2641
  194MOL    H4235168   0.020   5.554   7.519  0.3836 -0.6175  0.5368
  194MOL    H4335169   0.258   5.608   7.453  1.1146 -0.8820  0.3900
  194MOL    H4435170   0.264   5.362   7.278  0.1308 -2.7208  2.0777
  194MOL    H4535171   0.386   5.479   7.309 -0.8930  1.1860  0.2393
  194MOL    H4635172   0.331   5.374   7.443 -1.0578 -1.6256 -1.0468
  194MOL    C4735173   0.129   5.603   7.280 -0.4091  0.8875 -0.3186
  194MOL    C4835174   0.037   5.731   7.303 -0.2403 -0.6040 -0.3928
  194MOL    C4935175   0.121   5.853   7.345  0.2517 -0.4333 -0.2189
  194MOL    H5035176   0.204   5.650   7.216 -1.4659  2.0977 -0.6973
  194MOL    H5135177   0.084   5.523   7.223 -0.7080  1.1390 -0.4379
  194MOL    H5235178   7.658   5.708   7.377  3.0601  0.4506  3.5195
  194MOL    H5335179   0.200   5.864   7.270 -0.9879  3.3446 -1.0812
  194MOL    H5435180   0.068   5.948   7.353  4.8557  2.3732 -0.6522
  194MOL    H5535181   0.170   5.828   7.440  1.4158 -0.1335 -0.7292
  194MOL    C5635182   7.657   5.769   7.172  0.4007 -0.0252  0.2570
  194MOL    C5735183   7.547   5.664   7.130 -0.4442 -0.1257  0.1709
  194MOL    C5835184   7.418   5.686   7.214 -0.0827 -0.2310 -0.3794
  194MOL    H5935185   7.620   5.871   7.184 -0.4725 -0.3358  0.2800
  194MOL    H6035186   0.038   5.779   7.098  1.5394  1.3211  1.6292
  194MOL    H6135187   7.587   5.566   7.156  1.2870  0.3155 -0.7766
  194MOL    H6235188   7.417   5.783   7.264  1.7792 -1.5364  2.2714
  194MOL    H6335189   7.325   5.656   7.165 -0.9276  1.6587  0.0413
  194MOL    H6435190   7.423   5.624   7.303  0.8927  2.4699  1.4807
  194MOL    C6535191   7.505   5.678   6.981  0.1086 -0.9269  0.3633
  194MOL    C6635192   7.601   5.612   6.882  0.1050 -0.1325 -0.4115
  194MOL    C6735193   7.571   5.461   6.871  0.1884 -0.0427  0.4879
  194MOL    H6835194   7.402   5.665   6.948  0.1755  1.0167 -0.6980
  194MOL    H6935195   7.510   5.787   6.976 -0.6229 -0.8249  1.5441
  194MOL    H7035196   0.002   5.616   6.929 -0.2935 -2.8706  0.7747
  194MOL    H7135197   7.603   5.408   6.960  0.2460  0.2387  0.6321
  194MOL    H7235198   7.466   5.438   6.850  0.6929 -0.1950 -2.0241
  194MOL    H7335199   7.623   5.415   6.786 -1.7364 -0.9499 -0.2296
  194MOL    C7435200   7.597   5.666   6.739  0.0782  0.3194 -0.4632
  194MOL    C7535201   7.644   5.818   6.737 -0.9746  0.0493 -0.4383
  194MOL    C7635202   0.099   5.842   6.766 -0.3395 -0.6285  0.1641
  194MOL    H7735203   7.666   5.619   6.669 -0.6392  0.5800 -1.3597
  194MOL    H7835204   7.497   5.637   6.707 -0.5489 -0.5105  2.1381
  194MOL    H7935205   7.593   5.880   6.809 -0.7129  0.5471 -0.6787
  194MOL    H8035206   0.169   5.794   6.698  0.3648 -0.7692  0.9775
  194MOL    H8135207   0.121   5.949   6.773 -1.0001 -0.1377 -3.9671
  194MOL    H8235208   0.114   5.803   6.866  0.5678 -3.7381 -1.1350
  194MOL    C8335209   7.617   5.862   6.591 -0.0256 -0.2944 -0.6042
  194MOL    C8435210   7.615   6.014   6.565  0.2552  0.3336 -1.0390
  194MOL    C8535211   7.609   6.053   6.418  0.1929 -0.0980 -0.3145
  194MOL    H8635212   7.694   5.810   6.533 -0.4131 -0.8201 -0.6513
  194MOL    H8735213   7.517   5.826   6.568 -0.0560 -0.7597  0.2527
  194MOL    H8835214   0.004   6.059   6.615 -1.0081  0.7967  0.8136
  194MOL    H8935215   7.514   6.032   6.371 -0.9869  0.2954  1.8399
  194MOL    H9035216   7.623   6.157   6.389  2.5700 -0.3871 -0.3156
  194MOL    H9135217   7.689   6.003   6.363 -0.7162 -0.5333 -1.2433
  194MOL    C9235218   7.488   6.077   6.642  0.2378 -0.5693 -1.1356
  194MOL    C9335219   7.524   6.205   6.717  0.0858  0.1586 -0.2803
  194MOL    C9435220   7.535   6.322   6.614  0.0368 -0.5336 -0.6197
  194MOL    H9535221   7.407   6.104   6.574  2.4550  0.7914 -3.3154
  194MOL    H9635222   7.429   6.007   6.701  0.4139  0.9343  0.8848
  194MOL    H9735223   7.618   6.192   6.770 -1.2104 -1.6711  1.6373
  194MOL    H9835224   7.439   6.336   6.563 -0.6444  1.5400  1.1404
  194MOL    H9935225   7.559   6.409   6.674 -0.4033 -0.9837  0.2265
  194MOL   H10035226   7.623   6.313   6.551  1.7270 -0.8396  1.7097
  194MOL   C10135227   7.417   6.249   6.825  0.1043 -0.0779  0.0772
  194MOL   C10235228   7.399   6.144   6.944 -0.5776 -0.2703  0.3476
  194MOL   C10335229   7.526   6.122   7.029 -0.5109 -0.0841  0.5257
  194MOL   H10435230   7.451   6.344   6.866 -1.3817  1.2446 -1.6702
  194MOL   H10535231   7.323   6.269   6.774  0.0819 -1.9246 -0.6618
  194MOL   H10635232   7.369   6.054   6.892  0.6508  0.5780 -1.8877
  194MOL   H10735233   7.495   6.061   7.114  0.5856  0.5078  1.3463
  194MOL   H10835234   7.605   6.076   6.970  0.2928  0.9264  0.8064
  194MOL   H10935235   7.562   6.220   7.059  4.0454 -1.1421 -1.1283
  194MOL   C11035236   7.281   6.196   7.036  0.1590  0.0517 -0.0714
  194MOL   C11135237   7.194   6.072   7.076  0.5793  0.1384  0.1706
  194MOL   C11235238   7.143   6.089   7.220 -0.3811  0.1033  0.2256
  194MOL   H11335239   7.324   6.238   7.126  0.9511 -0.9053  0.0033
  194MOL   H11435240   7.217   6.273   6.991 -0.2709  1.2550  2.5202
  194MOL   H11535241   7.249   5.978   7.066 -1.2261 -0.9350  0.0401
  194MOL   H11635242   7.087   6.179   7.242  0.9838  1.4210 -1.5499
  194MOL   H11735243   7.089   5.998   7.247  0.1633 -0.4644 -0.5364
  194MOL   H11835244   7.227   6.113   7.285 -1.7818  1.2573  1.6188
  194MOL   C11935245   7.067   6.065   6.980 -0.3769  0.7306  0.3454
  194MOL   C12035246   7.098   6.045   6.825 -0.3240  0.6984  0.1003
  194MOL   C12135247   7.157   5.902   6.780 -0.5237 -0.5208 -0.5782
  194MOL   H12235248   6.995   5.990   7.013 -1.7047  0.1302 -3.6609
  194MOL   H12335249   7.005   6.154   6.997 -1.8059 -0.4057  1.2427
  194MOL   H12435250   7.172   6.120   6.796 -0.5222  0.6764 -0.4579
  194MOL   H12535251   7.195   5.923   6.680 -1.5080  1.1485 -0.6159
  194MOL   H12635252   7.237   5.875   6.850 -0.0200  0.5030 -0.7549
  194MOL   H12735253   7.073   5.833   6.784 -1.5012  0.7149  0.9602
  194MOL   C12835254   6.983   6.083   6.740  0.3688  0.2351 -0.5648
  194MOL   C12935255   6.992   6.090   6.587 -0.0932 -0.3632  0.7434
  194MOL   C13035256   6.859   6.143   6.532 -0.1216 -0.8155  0.5654
  194MOL   H13135257   6.903   6.014   6.766  0.0122  0.1920 -1.7483
  194MOL   H13235258   6.950   6.177   6.786 -0.9655 -2.2761  3.9004
  194MOL   H13335259   6.989   5.987   6.553 -1.7617  0.3360 -1.2924
  194MOL   H13435260   6.853   6.151   6.424  1.6955  1.2863  0.5792
  194MOL   H13535261   6.767   6.099   6.571 -1.4475  1.2888 -0.0907
  194MOL   H13635262   6.849   6.244   6.573 -1.2250 -1.2655  1.4463
  194MOL   C13735263   7.102   6.172   6.534 -0.1311 -0.2160  0.3215
  194MOL   C13835264   7.122   6.184   6.383 -0.6188 -0.5313 -0.2969
  194MOL   C13935265   7.253   6.256   6.352  0.2204  0.3839  0.1575
  194MOL   H14035266   7.086   6.269   6.582 -3.0319  0.5456 -2.0652
  194MOL   H14135267   7.198   6.131   6.566  0.2467  0.8534  0.5660
  194MOL   H14235268   7.047   6.252   6.343 -2.2692 -1.2229  1.6008
  194MOL   H14335269   7.341   6.191   6.358 -2.0761 -2.9277 -0.8029
  194MOL   H14435270   7.270   6.307   6.257  0.3942  3.1644  1.6269
  194MOL   H14535271   7.268   6.332   6.428  0.3373 -0.5528  1.0833
  194MOL   C14635272   7.120   6.043   6.306 -0.5504 -0.1074  0.3099
  194MOL   C14735273   7.141   6.054   6.151 -0.0929  0.1729 -0.3358
  194MOL   C14835274   7.174   5.919   6.091 -0.4580  0.1782  0.1163
  194MOL   H14935275   7.205   5.984   6.341  0.2651  0.3147 -0.9178
  194MOL   H15035276   7.022   5.998   6.318 -0.4369 -0.0166  1.7677
  194MOL   H15135277   7.219   6.128   6.138 -0.4331  0.5582 -0.1827
  194MOL   H15235278   7.267   5.885   6.138 -0.7140  0.6630  0.9851
  194MOL   H15335279   7.105   5.837   6.108 -1.5074  1.1750  0.7416
  194MOL   H15435280   7.197   5.913   5.985 -1.4024  0.0639 -0.0868
  194MOL   C15535281   7.010   6.100   6.078 -0.6243 -0.6725  0.1735
  194MOL   C15635282   7.015   6.145   5.933 -0.1565 -0.4357  0.5862
  194MOL   C15735283   6.975   6.033   5.836 -0.1011 -0.9209 -0.2044
  194MOL   H15835284   6.935   6.021   6.074 -1.3615  0.1351 -2.4468
  194MOL   H15935285   6.954   6.175   6.133 -2.9780 -1.6926 -0.8050
  194MOL   H16035286   7.121   6.169   5.934 -0.3069  0.2215  1.8412
  194MOL   H16135287   6.867   6.019   5.827 -0.3394  0.6470  0.1247
  194MOL   H16235288   7.004   6.049   5.733  0.3834 -2.7351 -0.3750
  194MOL   H16335289   7.010   5.936   5.871  1.2903 -0.1274  0.6518
  194MOL   C16435290   6.945   6.277   5.890 -0.7831 -1.4221 -0.3558
  194MOL   C16535291   7.000   6.415   5.940 -0.2681 -0.0105  0.4129
  194MOL   C16635292   6.996   6.433   6.093  0.3819  0.5184  0.6423
  194MOL   H16735293   6.949   6.285   5.781  0.5289  0.0179 -0.2282
  194MOL   H16835294   6.839   6.272   5.914 -0.5954  0.4910  1.0052
  194MOL   H16935295   6.932   6.488   5.895 -0.8811 -0.5369  0.4837
  194MOL   H17035296   6.895   6.403   6.122  0.8009 -2.1303 -0.4770
  194MOL   H17135297   7.074   6.380   6.146 -0.6373 -1.1177  0.5366
  194MOL   H17235298   7.011   6.539   6.115  0.8445  0.8318 -1.0503
  194MOL   C17335299   7.134   6.451   5.879  0.0735  1.2083  0.1471
  194MOL   C17435300   7.137   6.465   5.721  0.9978 -0.2022 -0.3922
  194MOL   C17535301   7.265   6.531   5.670  0.0220 -0.3682 -0.3831
  194MOL   H17635302   7.160   6.541   5.934 -0.3636 -0.5236  3.3180
  194MOL   H17735303   7.205   6.375   5.912 -1.5917  0.4015  1.9596
  194MOL   H17835304   7.068   6.541   5.686  1.9886  0.4061 -1.0682
  194MOL   H17935305   7.274   6.535   5.561 -0.0864 -0.7185 -0.4076
  194MOL   H18035306   7.284   6.615   5.736  0.2070 -2.1630  1.9236
  194MOL   H18135307   7.335   6.452   5.696 -0.8709 -1.3273 -0.8293
  194MOL   H18235308   7.114   6.377   5.661 -2.0750 -0.1272  0.6252
  195MOL     C135309   0.446   6.771   6.858 -0.0163 -0.1909  0.2285
  195MOL     C235310   0.512   6.638   6.802 -0.8934  0.0936  0.6067
  195MOL     C335311   0.627   6.667   6.698  0.3669 -0.3562 -0.0839
  195MOL     H435312   0.523   6.846   6.879  0.5123 -0.5131 -0.5201
  195MOL     H535313   0.414   6.752   6.960  0.6331  0.3209  0.5339
  195MOL     H635314   0.436   6.578   6.752  0.3573 -0.6290 -0.4562
  195MOL     H735315   0.665   6.576   6.650 -0.3885  0.4757 -2.3535
  195MOL     H835316   0.590   6.732   6.618  1.0576 -0.2280 -0.2992
  195MOL     H935317   0.708   6.722   6.745  0.1913 -0.9800  0.9594
  195MOL    H1035318   0.371   6.822   6.798 -0.0884 -0.3721  0.1662
  195MOL    C1135319   0.581   6.554   6.910  0.1906  0.9327 -0.2758
  195MOL    C1235320   0.587   6.405   6.873 -0.3074 -0.0179 -0.6640
  195MOL    C1335321   0.675   6.344   6.993 -0.5059  0.1498 -0.5163
  195MOL    H1435322   0.679   6.589   6.941  0.7261  0.8861 -1.9162
  195MOL    H1535323   0.521   6.568   7.000 -1.2142 -0.8720 -0.8879
  195MOL    H1635324   0.640   6.392   6.778  1.4099  2.0999 -0.0210
  195MOL    H1735325   0.614   6.314   7.078 -2.0559 -0.5272 -1.8250
  195MOL    H1835326   0.715   6.251   6.952 -1.0107 -0.1899 -0.2467
  195MOL    H1935327   0.758   6.404   7.029 -0.9034 -0.1216  0.8964
  195MOL    C2035328   0.454   6.334   6.876  0.3493  0.5146  0.1747
  195MOL    C2135329   0.449   6.179   6.878 -0.2636 -0.3201 -0.9477
  195MOL    C2235330   0.311   6.121   6.912 -0.1030  0.2844  0.0854
  195MOL    H2335331   0.415   6.361   6.973  0.0473 -1.0903  0.5217
  195MOL    H2435332   0.385   6.369   6.799  1.8025  0.1903 -1.3112
  195MOL    H2535333   0.513   6.149   6.961 -1.2343  1.2581  0.3810
  195MOL    H2635334   0.243   6.137   6.829  0.6386  0.7211 -0.4397
  195MOL    H2735335   0.316   6.015   6.938 -0.7931  0.6541  1.8076
  195MOL    H2835336   0.272   6.177   6.997  0.9352 -1.9072  2.0741
  195MOL    C2935337   0.507   6.126   6.749 -0.2641 -0.4292  0.3923
  195MOL    C3035338   0.569   5.989   6.761 -1.0581 -0.1359  1.1652
  195MOL    C3135339   0.576   5.923   6.626  0.1472  0.1268 -0.3230
  195MOL    H3235340   0.426   6.120   6.676 -0.0655  2.6516 -0.1536
  195MOL    H3335341   0.577   6.198   6.707  0.6466 -1.5974 -0.1081
  195MOL    H3435342   0.499   5.932   6.822 -1.0569  0.6519  1.9213
  195MOL    H3535343   0.474   5.906   6.590 -1.7613 -0.2918  4.9536
  195MOL    H3635344   0.628   5.982   6.550  0.8584 -0.3122 -0.1696
  195MOL    H3735345   0.624   5.826   6.631  0.4000  0.1792 -1.5937
  195MOL    C3835346   0.706   5.972   6.836  0.5098 -0.3930 -0.3642
  195MOL    C3935347   0.837   6.017   6.761  0.1757  0.2641  0.1214
  195MOL    C4035348   0.826   6.148   6.682  0.5251  0.0240 -0.1282
  195MOL    H4135349   0.710   6.002   6.940  0.3727 -3.0229  0.4329
  195MOL    H4235350   0.729   5.867   6.858  0.2946 -0.3206  0.2106
  195MOL    H4335351   0.855   5.955   6.673 -1.7253 -0.8289  0.4924
  195MOL    H4435352   0.742   6.140   6.613  1.3565  0.2482 -1.1640
  195MOL    H4535353   0.824   6.234   6.750 -0.0313  1.1995 -1.5903
  195MOL    H4635354   0.916   6.156   6.622 -0.2884  1.0390 -1.2426
  195MOL    C4735355   0.966   6.017   6.853 -0.1916 -0.0536  0.1739
  195MOL    C4835356   1.000   5.885   6.931 -0.0499  0.1584 -0.1900
  195MOL    C4935357   1.008   5.761   6.835  0.3039  0.0526  0.4255
  195MOL    H5035358   1.040   6.042   6.777 -1.4569 -0.6253 -1.2838
  195MOL    H5135359   0.971   6.108   6.913 -0.7243 -0.8562  1.4590
  195MOL    H5235360   0.917   5.858   6.996  0.9221  0.8402  1.3755
  195MOL    H5335361   0.992   5.667   6.889 -1.2186 -0.9950 -1.7693
  195MOL    H5435362   0.920   5.779   6.773  0.5958 -0.7497 -0.2312
  195MOL    H5535363   1.083   5.771   6.756 -0.7302  0.6823 -0.4947
  195MOL    C5635364   1.127   5.903   7.015 -0.0582 -0.3319  0.4021
  195MOL    C5735365   1.169   5.791   7.114  0.8113 -0.5906  0.4276
  195MOL    C5835366   1.306   5.823   7.182  0.2918 -0.3729  0.3677
  195MOL    H5935367   1.204   5.931   6.943 -0.6772 -1.0148 -0.5294
  195MOL    H6035368   1.109   5.994   7.073  2.7347  0.4745  0.1161
  195MOL    H6135369   1.186   5.693   7.070 -0.5708 -2.3203  3.5557
  195MOL    H6235370   1.341   5.741   7.245  2.4514  0.6662  0.5776
  195MOL    H6335371   1.386   5.836   7.109  0.8342  0.7195  1.1381
  195MOL    H6435372   1.286   5.910   7.245  1.8703  0.5527 -0.3878
  195MOL    C6535373   1.052   5.742   7.213 -0.3062 -0.5415 -0.3386
  195MOL    C6635374   1.088   5.618   7.300 -0.3667 -0.7085 -0.1115
  195MOL    C6735375   0.957   5.577   7.373  0.7679  0.2364 -0.4709
  195MOL    H6835376   1.031   5.823   7.284  2.2575 -1.2129  1.2510
  195MOL    H6935377   0.956   5.736   7.161 -0.4364  2.1578 -0.5070
  195MOL    H7035378   1.154   5.653   7.379  0.4883  3.0246 -2.3324
  195MOL    H7135379   0.881   5.540   7.305 -1.0873  3.5093 -0.3036
  195MOL    H7235380   0.981   5.516   7.461 -0.0827  0.9517  0.2759
  195MOL    H7335381   0.923   5.669   7.421  0.3660  0.2345 -0.7461
  195MOL    C7435382   1.153   5.497   7.220  0.2300 -0.1075  0.0890
  195MOL    C7535383   1.176   5.365   7.297 -0.1274  0.1778 -1.1960
  195MOL    C7635384   1.185   5.246   7.201  0.2083  0.0712 -0.0594
  195MOL    H7735385   1.080   5.481   7.140 -0.3826 -1.6976  0.9377
  195MOL    H7835386   1.247   5.528   7.174  0.3218 -0.4338  0.0567
  195MOL    H7935387   1.086   5.339   7.352  1.7934 -0.1637  1.9321
  195MOL    H8035388   1.205   5.151   7.251  1.8758  0.5554  0.2092
  195MOL    H8135389   1.094   5.235   7.142  0.5979 -0.9493 -0.4820
  195MOL    H8235390   1.263   5.266   7.128  1.6923 -2.6234  0.7087
  195MOL    C8335391   1.293   5.384   7.393 -0.2478  1.0624  0.3177
  195MOL    C8435392   1.303   5.266   7.494  0.2773 -0.5585 -0.0385
  195MOL    C8535393   1.442   5.245   7.561 -0.9848  0.0944  0.0284
  195MOL    H8635394   1.391   5.396   7.346  0.8237 -1.0772  1.9046
  195MOL    H8735395   1.287   5.478   7.448  0.5616  1.3517 -0.0704
  195MOL    H8835396   1.298   5.173   7.438  0.3225 -2.1905  2.5583
  195MOL    H8935397   1.519   5.260   7.485 -0.3700 -1.5992  0.2826
  195MOL    H9035398   1.460   5.320   7.638  0.0745  2.2915 -2.3073
  195MOL    H9135399   1.457   5.141   7.592 -0.5077 -0.4463 -1.9593
  195MOL    C9235400   1.190   5.273   7.596 -0.1777  0.3907  0.2020
  195MOL    C9335401   1.096   5.157   7.565 -0.1551 -0.0702 -0.3905
  195MOL    C9435402   1.159   5.024   7.621 -0.6350 -0.8963 -0.2888
  195MOL    H9535403   1.221   5.279   0.003 -0.8538 -0.2165  0.4370
  195MOL    H9635404   1.142   5.369   7.575  1.5259  0.8061 -2.0177
  195MOL    H9735405   1.096   5.149   7.456  1.9676  1.4207 -0.5315
  195MOL    H9835406   1.167   5.001   0.030  0.5860 -4.6597 -1.1061
  195MOL    H9935407   1.098   4.940   7.587 -1.7365 -0.5629  0.8318
  195MOL   H10035408   1.257   5.003   7.576  0.1041 -1.5431  1.5778
  195MOL   C10135409   0.962   5.168   7.630  0.5591 -0.0828 -0.0629
  195MOL   C10235410   0.848   5.114   7.536  0.4719  0.1679  0.0488
  195MOL   C10335411   0.718   5.088   7.611 -0.2786 -0.7185 -0.1919
  195MOL   H10435412   0.971   5.110   0.024  0.0713  0.0075  0.0450
  195MOL   H10535413   0.940   5.273   7.650 -0.4594 -0.5135  1.1398
  195MOL   H10635414   0.888   5.017   7.504  1.8992 -0.0113  2.2828
  195MOL   H10735415   0.651   5.041   7.539  1.0919 -1.2148 -1.1677
  195MOL   H10835416   0.724   5.024   0.002 -0.6855 -1.0085 -0.3707
  195MOL   H10935417   0.672   5.182   7.640  0.2717 -0.9916  1.6929
  195MOL   C11035418   0.818   5.206   7.418 -1.1361 -0.1184  0.6217
  195MOL   C11135419   0.751   5.132   7.305  0.6473  0.7224 -0.0774
  195MOL   C11235420   0.645   5.220   7.235 -0.2138  0.5667 -0.5338
  195MOL   H11335421   0.750   5.285   7.449 -2.1515 -0.7315  0.0091
  195MOL   H11435422   0.911   5.257   7.393 -1.4949 -0.6733 -2.0111
  195MOL   H11535423   0.704   5.041   7.342 -1.0433  1.2079 -1.0079
  195MOL   H11635424   0.684   5.309   7.185 -0.9875  1.6460  0.7487
  195MOL   H11735425   0.609   5.157   7.154 -1.3569 -0.2146  0.5802
  195MOL   H11835426   0.560   5.238   7.300 -1.7181 -0.1421 -2.2829
  195MOL   C11935427   0.856   5.081   7.208 -0.2170  0.4815 -0.5051
  195MOL   C12035428   0.858   4.931   7.171  0.4503 -0.8754 -0.0793
  195MOL   C12135429   0.716   4.893   7.116 -0.2306  0.1541 -0.0405
  195MOL   H12235430   0.854   5.139   7.116 -2.0752  2.7420  0.9319
  195MOL   H12335431   0.953   5.094   7.257 -0.5879 -0.9202  0.6352
  195MOL   H12435432   0.868   4.869   7.261 -0.2828 -0.9662 -0.0563
  195MOL   H12535433   0.707   4.785   7.105 -1.3584  0.1141  1.0963
  195MOL   H12635434   0.634   4.922   7.182  0.1454  0.6878  0.1918
  195MOL   H12735435   0.704   4.958   7.029  1.5340 -1.0914 -1.2407
  195MOL   C12835436   0.959   4.882   7.072 -0.2383  0.7098  0.1240
  195MOL   C12935437   1.111   4.906   7.095  0.6342  0.2034 -0.1483
  195MOL   C13035438   1.154   4.851   7.234  0.2611 -0.4199 -0.3817
  195MOL   H13135439   0.954   4.774   7.062 -0.9552  0.8875 -1.7372
  195MOL   H13235440   0.934   4.929   6.977 -2.2588  0.1500  0.3736
  195MOL   H13335441   1.107   5.015   7.100 -3.3925  0.1191 -0.1185
  195MOL   H13435442   1.085   4.877   7.314  0.0965  1.0330 -0.9781
  195MOL   H13535443   1.153   4.743   7.249  1.2457 -0.4138 -0.2489
  195MOL   H13635444   1.251   4.886   7.269 -0.6948  2.5015 -0.5298
  195MOL   C13735445   1.192   4.849   6.977  0.4925 -0.9731 -0.4242
  195MOL   C13835446   1.345   4.867   6.975  0.0588  0.1226 -0.1434
  195MOL   C13935447   1.400   4.770   6.865 -0.6501 -0.3403  0.1363
  195MOL   H14035448   1.183   4.740   6.968 -1.7393 -0.7640 -0.8990
  195MOL   H14135449   1.163   4.881   6.876  0.1592 -1.1179 -0.3740
  195MOL   H14235450   1.384   4.843   7.074 -2.1356  1.2662  1.0415
  195MOL   H14335451   1.365   4.667   6.879  1.5061 -1.0402  0.6094
  195MOL   H14435452   1.369   4.786   6.762 -0.8104 -0.7147  0.1234
  195MOL   H14535453   1.508   4.765   6.875 -0.7218  1.7023  2.2640
  195MOL   C14635454   1.388   5.017   6.951  0.0392  0.0685 -0.0354
  195MOL   C14735455   1.542   5.046   6.966  0.1186 -0.0175  0.0870
  195MOL   C14835456   1.569   5.175   6.888 -0.8989  0.0357  0.1026
  195MOL   H14935457   1.366   5.056   6.852 -1.3654  1.0445  0.6502
  195MOL   H15035458   1.339   5.074   7.030 -0.3435 -1.4194  0.8418
  195MOL   H15135459   1.595   4.961   6.923  1.2966  0.5462  0.4115
  195MOL   H15235460   1.519   5.267   6.920  2.6184  2.0633 -0.0188
  195MOL   H15335461   1.674   5.204   6.889 -0.6590 -0.8227  1.1038
  195MOL   H15435462   1.543   5.150   6.785  1.6412 -1.7519 -0.1262
  195MOL   C15535463   1.585   5.054   7.113  0.1263 -0.6840 -0.8521
  195MOL   C15635464   1.742   5.045   7.134 -0.0485 -0.2491  0.5107
  195MOL   C15735465   1.773   5.085   7.286 -0.5336 -0.3316 -0.0061
  195MOL   H15835466   1.558   5.154   7.147  1.1090 -0.5504 -0.4347
  195MOL   H15935467   1.534   4.981   7.176 -0.1855 -1.1513 -1.6449
  195MOL   H16035468   1.794   5.114   7.068 -2.6429  0.6895 -0.6198
  195MOL   H16135469   1.697   5.047   7.355 -0.9834 -2.0016 -1.3905
  195MOL   H16235470   1.867   5.060   7.334 -0.7442 -0.2176  0.4686
  195MOL   H16335471   1.764   5.194   7.293 -1.7715 -0.5410  2.2377
  195MOL   C16435472   1.795   4.906   7.109  0.2421  0.3894  0.6861
  195MOL   C16535473   1.945   4.894   7.103 -0.3036 -0.1228  0.2947
  195MOL   C16635474   1.985   4.751   7.145 -0.0064 -0.6343  0.4464
  195MOL   H16735475   1.765   4.838   7.188  0.0843 -1.8980 -1.2966
  195MOL   H16835476   1.765   4.850   7.021  1.3308 -1.2652  1.3353
  195MOL   H16935477   1.981   4.970   7.173  1.0529 -0.5298  0.0608
  195MOL   H17035478   1.961   4.720   7.247 -0.2409 -0.0137  0.5803
  195MOL   H17135479   1.951   4.678   7.071 -1.6787  1.2575 -0.6744
  195MOL   H17235480   2.093   4.745   7.162 -0.2653  0.0118  2.4543
  195MOL   C17335481   2.002   4.943   6.972  0.0533  0.2740  0.6452
  195MOL   C17435482   2.155   4.947   6.957 -0.4168 -0.5171 -0.2584
  195MOL   C17535483   2.211   4.957   6.813 -0.1932  0.5635 -0.1880
  195MOL   H17635484   1.970   4.889   6.883  0.7797  0.6653  0.1341
  195MOL   H17735485   1.953   5.038   6.952  0.9793  0.5304 -0.4939
  195MOL   H17835486   2.204   4.857   6.995  1.3709  0.4404 -0.2731
  195MOL   H17935487   2.182   5.048   6.761  0.0082  0.1824 -0.9808
  195MOL   H18035488   2.320   4.946   6.811 -0.4943 -3.5245  0.8593
  195MOL   H18135489   2.167   4.877   6.754 -1.7453  0.1643  1.4709
  195MOL   H18235490   2.186   5.026   7.026 -1.7555  0.6895 -1.0106
  196MOL     C135491   7.427   7.694   1.795  0.4301  0.0173 -0.8030
  196MOL     C235492   7.535   7.675   1.901  0.0350  1.0952  0.7980
  196MOL     C335493   7.671   0.058   1.867  0.3105 -0.2957 -0.0925
  196MOL     H435494   7.459   7.665   1.695 -0.0816  1.6932 -1.4769
  196MOL     H535495   7.408   0.103   1.782  0.4985  0.0080 -0.9713
  196MOL     H635496   7.577   7.576   1.884 -0.2150  1.3577 -1.4707
  196MOL     H735497   0.047   0.037   1.945 -1.1640 -0.7757  1.1978
  196MOL     H835498   0.027   0.026   1.778 -0.4214  2.6049 -1.6262
  196MOL     H935499   7.648   0.164   1.874  2.2479  0.1404 -0.2024
  196MOL    H1035500   7.333   7.647   1.825  0.7282  0.0802  0.2696
  196MOL    C1135501   7.490   0.010   2.042 -0.4685 -0.0397 -0.2609
  196MOL    C1235502   7.359   7.644   2.100  0.8137  0.3226  0.5654
  196MOL    C1335503   7.355   7.496   2.088 -0.0058  0.3088  0.2632
  196MOL    H1435504   7.576   7.686   2.106 -0.0072 -1.2778 -1.2738
  196MOL    H1535505   7.481   0.118   2.057  0.5866 -0.0976  0.8944
  196MOL    H1635506   7.274   7.678   2.040  0.8770 -0.5230 -0.0055
  196MOL    H1735507   7.380   7.460   1.988 -0.6560  1.1925 -0.2240
  196MOL    H1835508   7.436   7.460   2.152  0.8673 -3.0900 -2.5964
  196MOL    H1935509   7.260   7.455   2.122  1.0772 -2.8884 -0.3415
  196MOL    C2035510   7.326   7.677   2.254 -0.7516 -1.1894 -0.2200
  196MOL    C2135511   7.327   0.134   2.290 -0.0955  0.4175 -0.6032
  196MOL    C2235512   7.206   0.197   2.217  0.2873 -0.2344 -0.1981
  196MOL    H2335513   7.235   7.630   2.293  0.1883 -0.5449  2.8899
  196MOL    H2435514   7.406   7.634   2.314 -0.6173  0.3787  0.7529
  196MOL    H2535515   7.418   0.175   2.246  0.7860  0.4295  1.1759
  196MOL    H2635516   7.108   0.155   2.238 -0.8269 -0.5249 -5.2178
  196MOL    H2735517   7.211   0.304   2.240 -0.5121  0.4857 -3.1792
  196MOL    H2835518   7.207   0.196   2.108 -2.2940  2.5015 -0.3271
  196MOL    C2935519   7.328   0.143   2.442  0.7720 -0.4178 -0.1519
  196MOL    C3035520   7.338   0.286   2.499 -0.3215 -0.5347  0.5932
  196MOL    C3135521   7.280   0.286   2.644  0.0528  0.7151 -0.4610
  196MOL    H3235522   7.234   0.093   2.462 -0.2227  0.2215 -3.0749
  196MOL    H3335523   7.414   0.092   2.486 -0.4928 -2.7290 -0.3084
  196MOL    H3435524   7.276   0.350   2.436  0.4931 -0.1673  0.1561
  196MOL    H3535525   7.282   0.387   2.684 -1.0592  1.2718 -1.7626
  196MOL    H3635526   7.174   0.258   2.639  0.4619 -0.7546 -1.3801
  196MOL    H3735527   7.327   0.218   2.714 -0.5861 -1.2811 -1.9079
  196MOL    C3835528   7.488   0.340   2.500 -0.0388  0.6780  1.2294
  196MOL    C3935529   7.513   0.494   2.545 -0.3880  0.0862 -0.4487
  196MOL    C4035530   7.659   0.522   2.529 -0.4923  0.0107  0.7882
  196MOL    H4135531   7.547   0.272   2.562 -0.4000 -0.1782  0.6438
  196MOL    H4235532   7.536   0.323   2.403 -1.1204 -0.0564  0.8115
  196MOL    H4335533   7.476   0.498   2.648 -0.3897  1.9626 -0.5084
  196MOL    H4435534   7.691   0.536   2.426 -0.7224  0.1539  0.7363
  196MOL    H4535535   7.691   0.613   2.581 -0.9002  1.6077 -1.6790
  196MOL    H4635536   0.023   0.439   2.564  0.0726  0.8640  1.8601
  196MOL    C4735537   7.442   0.602   2.460  0.3193 -0.9989 -0.6965
  196MOL    C4835538   7.312   0.661   2.518  0.4287 -0.5726 -0.2899
  196MOL    C4935539   7.330   0.781   2.612 -0.4326  0.2563 -0.1971
  196MOL    H5035540   7.505   0.690   2.447 -0.3642 -0.5233 -0.8316
  196MOL    H5135541   7.442   0.561   2.359  2.3613 -0.6762 -0.8489
  196MOL    H5235542   7.283   0.579   2.584  2.2931  0.4705  1.8995
  196MOL    H5335543   7.385   0.856   2.555  1.7608 -0.5572  0.7994
  196MOL    H5435544   7.234   0.814   2.651 -0.4071 -1.2596  1.2106
  196MOL    H5535545   7.399   0.748   2.690 -0.4375 -1.1509 -0.7630
  196MOL    C5635546   7.216   0.681   2.397  0.0063 -0.3851 -0.0674
  196MOL    C5735547   7.073   0.721   2.431  0.3784  0.7276  0.5133
  196MOL    C5835548   7.052   0.877   2.430 -0.3423 -0.7552 -0.2653
  196MOL    H5935549   7.257   0.751   2.325  0.7681  1.0631  1.7442
  196MOL    H6035550   7.205   0.588   2.341 -1.3365  0.3433 -1.0263
  196MOL    H6135551   7.056   0.671   2.526  3.1195  1.2342  1.3226
  196MOL    H6235552   6.948   0.902   2.450 -0.0688 -0.6252  1.0524
  196MOL    H6335553   7.120   0.934   2.494 -1.1417 -0.8882  0.7215
  196MOL    H6435554   7.067   0.921   2.332 -0.4779 -3.3381 -1.4692
  196MOL    C6535555   6.954   0.655   2.346 -0.1206 -0.4422 -0.2609
  196MOL    C6635556   6.955   0.496   2.331  0.1431 -0.3834 -0.8606
  196MOL    C6735557   6.985   0.429   2.466  0.0486 -0.1364 -0.0489
  196MOL    H6835558   6.859   0.674   2.396 -0.8635  1.0488 -2.1803
  196MOL    H6935559   6.954   0.694   2.245 -2.2218  0.7488  0.1755
  196MOL    H7035560   7.033   0.470   2.259 -0.9148 -3.5969 -0.9537
  196MOL    H7135561   6.996   0.321   2.455 -1.2068 -0.4234  1.4706
  196MOL    H7235562   7.080   0.460   2.510  0.3922 -2.9599  1.3099
  196MOL    H7335563   6.911   0.435   2.545 -0.4494 -0.9251 -0.4416
  196MOL    C7435564   6.832   0.435   2.269 -0.0779 -0.2279  0.4177
  196MOL    C7535565   6.766   0.494   2.137  0.6902  0.3997  0.5300
  196MOL    C7635566   6.863   0.489   2.015  0.3711 -0.0954  0.2362
  196MOL    H7735567   6.833   0.326   2.273  1.1946 -0.2111  0.6530
  196MOL    H7835568   6.756   0.447   2.347  1.2408  2.4273  1.3335
  196MOL    H7935569   6.734   0.598   2.145 -1.8162 -0.2937  0.1047
  196MOL    H8035570   6.805   0.512   1.925  2.4368 -1.5957 -1.5218
  196MOL    H8135571   6.943   0.562   2.026  0.7242 -0.5080  0.3706
  196MOL    H8235572   6.904   0.391   1.993  0.6623  0.6079 -2.5778
  196MOL    C8335573   6.638   0.404   2.105  0.2413  0.0426 -0.1766
  196MOL    C8435574   6.500   0.455   2.168 -0.4255  0.0487 -0.5621
  196MOL    C8535575   6.455   0.586   2.102  0.4266 -0.3145 -0.3767
  196MOL    H8635576   6.629   0.389   1.998 -0.6226  0.4225 -0.1610
  196MOL    H8735577   6.662   0.305   2.142 -0.8069 -0.1451  0.0291
  196MOL    H8835578   6.503   0.492   2.270 -1.8807 -0.4673 -0.3204
  196MOL    H8935579   6.354   0.618   2.125  0.0194 -0.8119 -1.4265
  196MOL    H9035580   6.517   0.670   2.131  0.5700 -0.6044  0.1686
  196MOL    H9135581   6.478   0.571   1.997  1.2877  0.4741 -0.3096
  196MOL    C9235582   6.384   0.351   2.160  0.1538 -0.3478  0.3131
  196MOL    C9335583   6.396   0.258   2.286 -0.4045  1.1947  0.0414
  196MOL    C9435584   6.332   0.318   2.406  0.0539 -0.7611 -0.3571
  196MOL    H9535585   6.283   0.390   2.146  0.7768  0.5244 -1.9024
  196MOL    H9635586   6.399   0.295   2.067  0.1435  1.0334 -0.5306
  196MOL    H9735587   6.501   0.241   2.310 -0.6335 -1.5594 -0.8375
  196MOL    H9835588   6.238   0.368   2.381  1.6158  2.7439  0.5211
  196MOL    H9935589   6.309   0.245   2.483  0.3384 -0.3074  0.1590
  196MOL   H10035590   6.390   0.400   2.447 -0.5431 -0.2864 -0.4436
  196MOL   C10135591   6.337   0.114   2.271  0.5100  0.1968  0.1212
  196MOL   C10235592   6.410   0.020   2.171 -0.3802 -0.4240 -0.4070
  196MOL   C10335593   6.558   0.009   2.186 -0.2290 -0.6086 -0.6440
  196MOL   H10435594   6.346   0.067   2.368  3.6440  1.4648  0.5206
  196MOL   H10535595   6.229   0.110   2.258  0.3047  0.8992  1.5591
  196MOL   H10635596   6.382   0.059   2.073 -1.5698  0.7104  0.3736
  196MOL   H10735597   6.608   0.098   2.149 -2.1831  0.2936 -1.1874
  196MOL   H10835598   6.589   7.686   2.289 -0.6742  2.6185  0.1895
  196MOL   H10935599   6.596   7.621   2.131 -1.0697  0.2921 -2.6725
  196MOL   C11035600   6.354   7.574   2.168  0.3255 -0.5851  0.1507
  196MOL   C11135601   6.199   7.553   2.157 -0.4331 -0.2599  0.2725
  196MOL   C11235602   6.145   7.613   2.027 -0.4727 -0.4913 -0.3770
  196MOL   H11335603   6.400   7.509   2.093  0.6671 -0.9042  0.6332
  196MOL   H11435604   6.383   7.529   2.263  0.9636  0.4421  0.4557
  196MOL   H11535605   6.144   7.602   2.238  1.2075  1.2272  0.5285
  196MOL   H11635606   6.188   7.564   1.940 -0.9637  0.8856 -1.4063
  196MOL   H11735607   6.041   7.581   2.016 -0.0475 -1.8575 -0.4771
  196MOL   H11835608   6.154   0.024   2.019  1.3440 -0.7558 -2.4042
  196MOL   C11935609   6.161   7.401   2.154 -0.5510  0.1380  0.2403
  196MOL   C12035610   6.059   7.349   2.251  0.8877 -0.6169  0.1085
  196MOL   C12135611   6.117   7.356   2.390  0.0547  0.2619 -0.1719
  196MOL   H12235612   6.138   7.372   2.051  0.8272 -1.6192  0.4062
  196MOL   H12335613   6.253   7.345   2.172 -0.2385  0.9241  1.1777
  196MOL   H12435614   6.036   7.247   2.220  1.0607 -0.9041  0.8938
  196MOL   H12535615   6.225   7.342   2.394  0.1551  1.1173  0.4144
  196MOL   H12635616   6.104   7.461   2.417 -1.9729  0.3705 -1.4793
  196MOL   H12735617   6.066   7.302   2.470 -0.8000  2.7237  1.0144
  196MOL   C12835618   5.926   7.428   2.241  0.8726 -0.1608  0.4676
  196MOL   C12935619   5.812   7.348   2.295  0.0761 -0.2124 -0.3214
  196MOL   C13035620   5.722   7.429   2.388  0.6817 -0.2292 -0.1819
  196MOL   H13135621   5.929   7.520   2.298 -1.6075  0.1874  0.0624
  196MOL   H13235622   5.902   7.455   2.138  1.1008  0.3492  0.5503
  196MOL   H13335623   5.858   7.273   2.360 -1.7786  0.5057  1.8631
  196MOL   H13435624   5.649   7.362   2.436  0.7145  0.5982  1.0312
  196MOL   H13535625   5.782   7.483   2.461  1.1527 -0.4205 -0.4300
  196MOL   H13635626   5.667   7.505   2.334 -0.9039 -0.7896  0.5888
  196MOL   C13735627   5.737   7.279   2.183  0.6020 -0.4856 -0.5361
  196MOL   C13835628   5.630   7.177   2.223  0.5961  0.2195  0.1416
  196MOL   C13935629   5.541   7.140   2.095  0.6036  0.0367 -0.3997
  196MOL   H14035630   5.692   7.352   2.116  1.3686 -2.0993 -2.8717
  196MOL   H14135631   5.803   7.218   2.121 -0.9337 -1.9751 -0.7292
  196MOL   H14235632   5.575   7.232   2.299 -0.5739  0.4763 -0.8737
  196MOL   H14335633   5.501   7.230   2.049  0.5816 -1.0734 -2.6174
  196MOL   H14435634   5.590   7.082   2.016 -0.1971 -1.5668  0.2581
  196MOL   H14535635   5.449   7.087   2.119  0.2970  1.3518  1.4211
  196MOL   C14635636   5.693   7.051   2.289 -1.0517 -0.2278 -0.8742
  196MOL   C14735637   5.588   6.965   2.369 -0.2404  0.0864 -1.1634
  196MOL   C14835638   5.546   6.836   2.294 -0.0307 -0.4212  0.0228
  196MOL   H14935639   5.747   6.990   2.216 -0.8372 -0.3870 -0.5807
  196MOL   H15035640   5.778   7.072   2.354  0.1469 -2.5109 -1.6328
  196MOL   H15135641   5.495   7.019   2.387  1.1769  2.3378 -0.3365
  196MOL   H15235642   5.633   6.784   2.255  0.7344  0.8399  0.0364
  196MOL   H15335643   5.488   6.763   2.351  2.2846  0.1120  3.2266
  196MOL   H15435644   5.480   6.858   2.210 -1.6641  3.6859  2.2254
  196MOL   C15535645   5.652   6.940   2.506  0.1703  0.2132  0.4964
  196MOL   C15635646   5.678   7.056   2.611 -0.5211 -0.0436  0.4661
  196MOL   C15735647   5.548   7.134   2.633  0.4103  0.2454  0.0739
  196MOL   H15835648   5.609   6.851   2.551  0.8164  0.4839  1.6731
  196MOL   H15935649   5.746   6.891   2.483 -0.3725  0.0996 -1.5752
  196MOL   H16035650   5.757   7.124   2.578 -1.1359  0.3537 -0.1965
  196MOL   H16135651   5.491   7.172   2.548  1.9177  2.4883  0.0296
  196MOL   H16235652   5.483   7.081   2.703  0.9379 -0.7122 -0.1592
  196MOL   H16335653   5.576   7.228   2.680  0.3642  0.2327  0.1258
  196MOL   C16435654   5.738   7.016   2.743  0.8109 -0.2264 -0.2159
  196MOL   C16535655   5.882   6.960   2.739 -0.3964 -0.2385  0.1812
  196MOL   C16635656   5.997   7.058   2.706  0.0503  0.7445 -0.1834
  196MOL   H16735657   5.732   7.102   2.810 -0.3406 -0.7358  0.3324
  196MOL   H16835658   5.661   6.947   2.774  1.0164  0.2235  1.3134
  196MOL   H16935659   5.885   6.872   2.675 -0.3496 -1.2519  1.5505
  196MOL   H17035660   5.994   7.102   2.606 -1.7803 -2.1094 -1.4510
  196MOL   H17135661   5.995   7.149   2.765 -0.3635  0.4899  0.1965
  196MOL   H17235662   6.097   7.016   2.699  0.3666  1.7497 -2.0649
  196MOL   C17335663   5.897   6.891   2.879  0.6496  0.1455  0.0785
  196MOL   C17435664   6.019   6.805   2.884 -0.1986 -0.3508  0.0803
  196MOL   C17535665   6.028   6.729   3.021 -0.2765  0.0458  0.3415
  196MOL   H17635666   5.904   6.973   2.951  1.8127 -0.8001  1.0550
  196MOL   H17735667   5.817   6.821   2.904  0.5546  0.6591  1.2570
  196MOL   H17835668   6.108   6.865   2.862  0.1678 -1.4517 -1.5828
  196MOL   H17935669   6.119   6.670   3.023  0.4526  1.1690  0.9185
  196MOL   H18035670   6.020   6.793   3.109 -2.3481 -1.5733  1.3580
  196MOL   H18135671   5.955   6.649   3.030 -0.0031 -0.0093  2.2670
  196MOL   H18235672   6.008   6.728   2.808 -1.6195 -1.1900  1.1180
  197MOL     C135673   6.386   3.603   6.027  0.0890  0.5808 -0.7681
  197MOL     C235674   6.348   3.709   6.134  0.8579 -0.2367  0.5402
  197MOL     C335675   6.304   3.648   6.269 -0.3796  0.9877  0.3337
  197MOL     H435676   6.311   3.526   6.042  1.0653  0.2572  3.0701
  197MOL     H535677   6.483   3.569   6.062 -0.4136 -1.1229 -0.9989
  197MOL     H635678   6.262   3.767   6.100 -0.9721 -1.6910  2.5055
  197MOL     H735679   6.378   3.586   6.321 -0.5604  1.2068  0.8580
  197MOL     H835680   6.273   3.731   6.332 -1.5729  0.1398  0.8728
  197MOL     H935681   6.218   3.583   6.253  0.9710 -0.7809  0.0018
  197MOL    H1035682   6.405   3.637   5.925 -1.1851 -2.8901 -2.2508
  197MOL    C1135683   6.473   3.807   6.139 -0.4239 -0.5499  0.5021
  197MOL    C1235684   6.452   3.957   6.175 -0.1548 -0.0799  0.3237
  197MOL    C1335685   6.448   3.983   6.329 -0.3577  0.2344  0.1369
  197MOL    H1435686   6.547   3.764   6.207  0.5210  0.9835  0.4732
  197MOL    H1535687   6.538   3.802   6.052  1.4276  2.4690  1.6453
  197MOL    H1635688   6.356   3.990   6.137 -0.9333 -1.5518  0.9766
  197MOL    H1735689   6.428   4.090   6.339 -1.5998  0.0551 -0.3055
  197MOL    H1835690   6.372   3.922   6.377 -0.5641 -0.4209 -1.0233
  197MOL    H1935691   6.543   3.957   6.376 -0.7674  0.9195  1.3623
  197MOL    C2035692   6.565   4.049   6.111 -0.0781  0.4744  0.2928
  197MOL    C2135693   6.539   4.094   5.965 -0.0847  0.2523  0.7073
  197MOL    C2235694   6.423   4.202   5.959  0.8000  0.1214 -0.2712
  197MOL    H2335695   6.565   4.143   6.166 -0.1794 -0.5147  2.0286
  197MOL    H2435696   6.664   4.005   6.122  0.4778  2.0204  1.6257
  197MOL    H2535697   6.509   4.009   5.905 -2.1540  1.6471 -0.3055
  197MOL    H2635698   6.442   4.288   6.022 -0.3098  1.1088 -1.2493
  197MOL    H2735699   6.413   4.258   5.866 -0.6966  3.4855  1.8168
  197MOL    H2835700   6.327   4.158   5.986  0.6017 -0.8132 -2.3587
  197MOL    C2935701   6.660   4.156   5.891 -0.2272  0.0520 -0.3654
  197MOL    C3035702   6.764   4.040   5.857  0.0659 -0.4145 -0.9569
  197MOL    C3135703   6.731   3.959   5.728 -0.0245 -0.3793 -0.2067
  197MOL    H3235704   6.645   4.203   5.794 -0.9172 -0.7886 -0.6743
  197MOL    H3335705   6.698   4.226   5.965 -0.5336 -0.3597  0.1807
  197MOL    H3435706   6.784   3.973   5.941  0.6727 -0.1471 -0.8847
  197MOL    H3535707   6.812   3.889   5.706  0.7622  1.0946 -2.2118
  197MOL    H3635708   6.633   3.912   5.734  0.9340 -2.3418  0.2800
  197MOL    H3735709   6.722   4.022   5.639  0.3638  0.1341  0.1189
  197MOL    C3835710   6.907   4.100   5.832 -0.1468  0.2150 -0.5645
  197MOL    C3935711   6.999   4.140   5.954 -0.0778  0.0282 -0.5862
  197MOL    C4035712   7.058   4.014   6.019  0.3769 -0.2396  0.7004
  197MOL    H4135713   6.968   4.034   5.770  1.0395 -0.3441  1.1637
  197MOL    H4235714   6.892   4.184   5.764  1.4662 -0.4407 -1.7746
  197MOL    H4335715   6.934   4.183   6.031  1.0028  1.8413 -0.6617
  197MOL    H4435716   7.122   3.958   5.951  2.7170  3.2623 -0.1358
  197MOL    H4535717   7.106   4.043   6.112  0.3250  0.3407  0.5523
  197MOL    H4635718   6.980   3.942   6.042  1.2948 -0.6488  2.6383
  197MOL    C4735719   7.114   4.242   5.919 -1.0492  0.0277 -0.6018
  197MOL    C4835720   7.089   4.391   5.943  0.1173  0.4586  0.8931
  197MOL    C4935721   7.216   4.482   5.950  0.0962  0.3584 -0.0185
  197MOL    H5035722   7.199   4.221   5.984 -0.3780 -0.3528 -1.5926
  197MOL    H5135723   7.141   4.243   5.814  0.1757 -1.9713 -0.3333
  197MOL    H5235724   7.043   4.400   6.041 -1.5457 -1.7419  0.3488
  197MOL    H5335725   7.211   4.580   5.997  0.9697  0.1935  0.4218
  197MOL    H5435726   7.287   4.421   6.005 -2.2409 -0.5032  2.1607
  197MOL    H5535727   7.266   4.492   5.853 -2.4225 -1.7603 -1.5960
  197MOL    C5635728   6.989   4.460   5.844  1.0494 -0.3945 -0.3961
  197MOL    C5735729   6.919   4.584   5.903  0.1979  0.6204  0.6286
  197MOL    C5835730   6.876   4.675   5.789  0.1945 -0.3413  0.0989
  197MOL    H5935731   7.050   4.491   5.759 -1.7567  0.6163 -2.1041
  197MOL    H6035732   6.924   4.390   5.792 -1.1814  2.0173 -0.9571
  197MOL    H6135733   6.997   4.638   5.957  0.4978  0.8275 -0.0093
  197MOL    H6235734   6.836   4.765   5.836 -1.9292 -1.0268 -0.3396
  197MOL    H6335735   6.960   4.713   5.730  0.0701 -2.3102 -1.3696
  197MOL    H6435736   6.802   4.628   5.726 -1.1948  0.5043  1.0749
  197MOL    C6535737   6.800   4.537   5.989  0.2567  0.4192 -0.0981
  197MOL    C6635738   6.709   4.641   6.065 -0.2520 -0.0277  0.2929
  197MOL    C6735739   6.570   4.574   6.094 -0.0112  0.4021  0.1735
  197MOL    H6835740   6.738   4.489   5.914 -0.0008  1.0275 -0.2738
  197MOL    H6935741   6.821   4.454   6.057 -0.2951 -0.4890 -1.0229
  197MOL    H7035742   6.688   4.722   5.995  1.2509  0.6494  0.6116
  197MOL    H7135743   6.532   4.535   5.999  3.1873 -2.2366 -0.1260
  197MOL    H7235744   6.596   4.485   6.152  0.3987  0.6545  0.3783
  197MOL    H7335745   6.491   4.634   6.139 -0.4108  0.5518 -0.7142
  197MOL    C7435746   6.769   4.681   6.205  0.4102  0.0945  0.3698
  197MOL    C7535747   6.687   4.787   6.278  0.0465 -0.7087  0.6537
  197MOL    C7635748   6.719   4.779   6.429  0.1951 -0.3844 -0.1957
  197MOL    H7735749   6.772   4.588   6.262 -0.3594 -0.5807 -0.6797
  197MOL    H7835750   6.875   4.703   6.191 -0.1988  1.7266 -2.0967
  197MOL    H7935751   6.581   4.762   6.278 -0.0872 -0.1647  1.1319
  197MOL    H8035752   6.723   4.682   6.477  1.1479 -0.6682 -0.8348
  197MOL    H8135753   6.806   4.835   6.463 -1.4764  1.3172  1.4098
  197MOL    H8235754   6.641   4.832   6.484  1.1654 -2.0977  2.9035
  197MOL    C8335755   6.717   4.930   6.218  0.5129 -0.1852  0.1619
  197MOL    C8435756   6.630   5.043   6.279 -0.1958  0.3498  0.0586
  197MOL    C8535757   6.658   5.185   6.207 -0.1230  0.1099 -0.0493
  197MOL    H8635758   6.823   4.942   6.244  0.0013  1.8986  1.4122
  197MOL    H8735759   6.714   4.937   6.110 -0.3910 -0.9997  0.1310
  197MOL    H8835760   6.656   5.051   6.384 -0.0110  4.2780 -0.1983
  197MOL    H8935761   6.639   5.260   6.284 -0.1313 -2.9017  3.0550
  197MOL    H9035762   6.759   5.203   6.171 -0.1599 -1.4016 -0.9598
  197MOL    H9135763   6.599   5.212   6.120  1.7495  4.0162 -0.2014
  197MOL    C9235764   6.477   5.008   6.285  0.2681 -0.7694 -0.1772
  197MOL    C9335765   6.379   5.117   6.325 -0.3572 -1.3487 -0.3533
  197MOL    C9435766   6.236   5.080   6.286  0.0760  0.7755  0.2155
  197MOL    H9535767   6.449   4.979   6.184  1.3447  3.7060 -1.8749
  197MOL    H9635768   6.459   4.925   6.353  0.1341 -0.0081  0.7311
  197MOL    H9735769   6.404   5.207   6.269  3.5080 -2.1794 -0.1034
  197MOL    H9835770   6.208   4.982   6.323  2.0704  0.5515  1.2249
  197MOL    H9935771   6.169   5.154   6.329  0.8497  0.1613  2.5286
  197MOL   H10035772   6.210   5.076   6.180 -1.3218  0.9847  0.5397
  197MOL   C10135773   6.393   5.142   6.477 -0.0336  0.5473  0.7281
  197MOL   C10235774   6.308   5.253   6.540  0.4066 -0.8674  0.0324
  197MOL   C10335775   6.346   5.278   6.686 -0.1108  0.1822  0.5336
  197MOL   H10435776   6.397   5.046   6.528  1.4317 -1.0822 -2.3394
  197MOL   H10535777   6.496   5.177   6.485  1.2813 -2.5982 -1.2620
  197MOL   H10635778   6.203   5.224   6.544 -0.0775  0.9584  0.9879
  197MOL   H10735779   6.298   5.364   6.731 -2.3088 -0.7707  0.0743
  197MOL   H10835780   6.334   5.191   6.751 -3.0922  1.7114  2.1019
  197MOL   H10935781   6.450   5.304   6.702 -0.0528 -0.4293  1.1726
  197MOL   C11035782   6.311   5.389   6.460 -0.0057 -0.5800 -0.5832
  197MOL   C11135783   6.201   5.495   6.501  0.3656  0.1428  0.0474
  197MOL   C11235784   6.261   5.637   6.466 -0.3416 -0.5225 -0.2331
  197MOL   H11335785   6.412   5.430   6.466 -1.7574  4.1500 -1.2181
  197MOL   H11435786   6.308   5.379   6.351 -0.3570 -1.1516 -0.5225
  197MOL   H11535787   6.191   5.496   6.609 -1.6588  1.7976 -0.1109
  197MOL   H11635788   6.189   5.714   6.497 -2.2018 -3.1423  2.2001
  197MOL   H11735789   6.356   5.666   6.513  0.2316  1.0565 -2.2693
  197MOL   H11835790   6.274   5.650   6.359 -0.8202 -0.7003 -0.3136
  197MOL   C11935791   6.067   5.465   6.430  0.6387  0.5431 -0.0914
  197MOL   C12035792   5.948   5.544   6.488 -0.1051 -0.3545 -1.0780
  197MOL   C12135793   5.845   5.550   6.380 -0.3573  0.3428 -0.1878
  197MOL   H12235794   6.079   5.495   6.326  0.0150 -2.1503 -0.9918
  197MOL   H12335795   6.056   5.357   6.442  1.0015  0.2686 -2.0089
  197MOL   H12435796   5.973   5.647   6.514 -1.3187 -0.0800 -0.9404
  197MOL   H12535797   5.763   5.617   6.408 -1.5916 -2.0342  2.1296
  197MOL   H12635798   5.878   5.619   6.302  1.2372  0.2006  0.3544
  197MOL   H12735799   5.809   5.452   6.348  0.2961 -0.3811  1.2839
  197MOL   C12835800   5.899   5.471   6.619 -0.2571 -0.0748  0.0581
  197MOL   C12935801   5.810   5.549   6.712 -0.1082 -0.0489  0.2034
  197MOL   C13035802   5.728   5.459   6.804  1.0815 -0.0370  0.0900
  197MOL   H13135803   5.860   5.372   6.596  0.1884  0.0531 -1.2717
  197MOL   H13235804   5.985   5.456   6.684  0.3199 -0.8698 -0.8840
  197MOL   H13335805   5.740   5.592   6.639  0.6787 -0.0178 -0.5396
  197MOL   H13435806   5.778   5.383   6.865  0.1816 -0.4094  0.3743
  197MOL   H13535807   5.650   5.504   6.865 -0.6154 -0.3431 -1.7832
  197MOL   H13635808   5.672   5.396   6.735  0.3437  3.9138 -3.0555
  197MOL   C13735809   5.898   5.652   6.793  1.3224 -0.5814 -0.7855
  197MOL   C13835810   5.831   5.788   6.826 -0.1894  0.1850  0.2559
  197MOL   C13935811   5.816   5.860   6.697  0.0452  0.0391  0.0137
  197MOL   H14035812   5.938   5.606   6.882  1.4559  0.1607 -0.4582
  197MOL   H14135813   5.984   5.675   6.731  2.1282 -3.1081 -0.6484
  197MOL   H14235814   5.905   5.829   6.894 -0.5137  0.2114  0.5956
  197MOL   H14335815   5.898   5.863   6.625  0.0671  0.4232  0.0520
  197MOL   H14435816   5.735   5.824   6.634  0.6867 -0.8546 -0.3193
  197MOL   H14535817   5.785   5.962   6.716 -0.9258 -0.2155 -0.2067
  197MOL   C14635818   5.706   5.780   6.909 -0.1250 -0.4347 -0.6326
  197MOL   C14735819   5.664   5.916   6.967 -0.4842 -1.0714 -0.6056
  197MOL   C14835820   5.532   5.906   7.035  0.3103  0.0247  0.2952
  197MOL   H14935821   5.629   5.743   6.842  0.1270  0.2136 -1.2890
  197MOL   H15035822   5.713   5.713   6.995  0.2773  1.5234  0.8839
  197MOL   H15135823   5.645   5.965   6.872 -1.4102 -0.2495 -0.0009
  197MOL   H15235824   5.459   5.878   6.959  0.2380 -1.3454  0.8531
  197MOL   H15335825   5.534   5.828   7.112  0.8971 -0.3408 -0.0845
  197MOL   H15435826   5.488   5.996   7.078 -1.1498 -1.0400  1.0724
  197MOL   C15535827   5.767   6.002   7.060  0.4236 -0.0070  0.2022
  197MOL   C15635828   5.852   6.113   6.986  0.5014  0.2877 -0.0050
  197MOL   C15735829   5.769   6.214   6.898 -0.1115 -0.0153 -0.3281
  197MOL   H15835830   5.707   6.060   7.130  0.6719  0.0540  0.3609
  197MOL   H15935831   5.831   5.936   7.117 -0.2632 -1.8502 -1.1099
  197MOL   H16035832   5.913   6.053   6.919 -0.0928  0.3057 -0.5647
  197MOL   H16135833   5.681   6.237   6.958  0.7095 -1.1511  1.3501
  197MOL   H16235834   5.804   6.314   6.872 -0.9050  0.6663  1.1862
  197MOL   H16335835   5.737   6.159   6.809  1.7519  0.5328 -1.3590
  197MOL   C16435836   5.946   6.193   7.079 -0.2050  0.4016  0.0300
  197MOL   C16535837   6.084   6.130   7.083 -0.5122  0.1531  0.0483
  197MOL   C16635838   6.166   6.159   6.953 -0.0885  0.6889  0.8469
  197MOL   H16735839   5.952   6.293   7.037 -0.1179  1.7982  3.1867
  197MOL   H16835840   5.902   6.206   7.178  0.0724 -4.2699  0.8915
  197MOL   H16935841   6.069   6.022   7.087  0.8299  0.0187  2.5005
  197MOL   H17035842   6.272   6.166   6.978  0.1440 -1.5811  0.6370
  197MOL   H17135843   6.153   6.082   6.877  2.9871 -0.0011  0.9379
  197MOL   H17235844   6.149   6.259   6.912 -1.4351  0.7006  1.4400
  197MOL   C17335845   6.157   6.166   7.214 -0.5930 -0.0355 -0.2001
  197MOL   C17435846   6.109   6.097   7.341 -0.6534  1.1020  0.7831
  197MOL   C17535847   6.196   6.126   7.463 -0.0477 -0.0046  0.0812
  197MOL   H17635848   6.262   6.141   7.202 -0.3548  0.4011  0.8980
  197MOL   H17735849   6.151   6.274   7.233 -0.9591 -0.1902  0.5893
  197MOL   H17835850   6.109   5.988   7.332 -0.0838  1.1668 -0.0654
  197MOL   H17935851   6.292   6.145   7.416  0.2219  1.2986  1.1145
  197MOL   H18035852   6.147   6.208   7.515  0.0623 -0.1451  0.4095
  197MOL   H18135853   6.198   6.038   7.529 -3.1453  0.7730  1.3022
  197MOL   H18235854   6.003   6.118   7.356 -1.1611  0.2765 -1.4245
  198MOL     C135855   4.649   5.129   1.381  0.6933 -0.3929  0.8775
  198MOL     C235856   4.620   5.110   1.528  0.3321  0.4130 -0.3614
  198MOL     C335857   4.468   5.138   1.554  0.4019 -0.0314  0.4282
  198MOL     H435858   4.755   5.113   1.359  0.5646  1.8179 -1.6751
  198MOL     H535859   4.621   5.232   1.359 -1.5097 -0.8372  1.5175
  198MOL     H635860   4.676   5.185   1.583  0.0543 -0.6240  1.3562
  198MOL     H735861   4.440   5.231   1.504  0.4749  0.6113  1.5708
  198MOL     H835862   4.412   5.055   1.511 -1.2650  1.7745 -0.9913
  198MOL     H935863   4.446   5.147   1.660  2.4118  0.8021  0.8119
  198MOL    H1035864   4.592   5.061   1.318  0.7120 -2.6900  3.2784
  198MOL    C1135865   4.670   4.973   1.580 -0.7102  0.0983  0.0722
  198MOL    C1235866   4.644   4.943   1.735 -0.4993  0.0499 -0.7555
  198MOL    C1335867   4.522   4.860   1.771 -0.6312 -0.2447  0.4370
  198MOL    H1435868   4.620   4.907   1.509 -0.7865  0.1001  0.1259
  198MOL    H1535869   4.775   4.956   1.554  0.0409  0.9312  2.4020
  198MOL    H1635870   4.619   5.036   1.787 -0.3109 -1.9421  3.0739
  198MOL    H1735871   4.435   4.925   1.771 -1.7266 -1.6430  2.6827
  198MOL    H1835872   4.500   4.771   1.713  0.3061  0.8763 -1.7196
  198MOL    H1935873   4.537   4.824   1.873  1.0617 -2.8196 -0.6810
  198MOL    C2035874   4.776   4.873   1.792 -0.4117 -0.4451  0.5803
  198MOL    C2135875   4.842   4.967   1.894 -0.0935 -0.4227  0.2457
  198MOL    C2235876   4.938   4.885   1.984  0.2907  0.1107 -0.1037
  198MOL    H2335877   4.758   4.773   1.831  1.4130 -0.0610  2.5308
  198MOL    H2435878   4.846   4.841   1.714 -1.3146  0.4479 -0.6214
  198MOL    H2535879   4.766   5.005   1.962 -0.4082  3.4948 -2.0961
  198MOL    H2635880   5.017   4.823   1.940 -0.1112  0.8880 -1.9629
  198MOL    H2735881   4.995   4.942   2.058 -0.0458 -1.3271  1.2899
  198MOL    H2835882   4.880   4.811   2.039 -0.9421  1.8791  1.0258
  198MOL    C2935883   4.915   5.080   1.822  0.5801 -0.1276  0.3738
  198MOL    C3035884   4.909   5.214   1.897 -0.3811  1.2098  0.9002
  198MOL    C3135885   4.953   5.203   2.047 -0.5299 -0.1659  0.5656
  198MOL    H3235886   5.021   5.060   1.803  0.4252  0.3104 -0.9507
  198MOL    H3335887   4.873   5.093   1.723  0.7598  2.1744  0.5711
  198MOL    H3435888   4.802   5.231   1.901 -0.6391  0.0390 -0.4969
  198MOL    H3535889   4.877   5.143   2.097 -1.0511  1.2791  1.5514
  198MOL    H3635890   5.049   5.152   2.057 -1.2319 -1.6154 -0.0453
  198MOL    H3735891   4.973   5.293   2.106  2.3776 -0.5720  0.2916
  198MOL    C3835892   4.983   5.323   1.822 -0.1650  0.4561 -0.0604
  198MOL    C3935893   4.911   5.378   1.693  0.3051 -0.2337  0.1776
  198MOL    C4035894   4.798   5.469   1.744 -0.8328 -0.5041  0.2074
  198MOL    H4135895   4.997   5.400   1.898 -2.3100  0.4681  0.3552
  198MOL    H4235896   5.082   5.282   1.803 -1.4858 -2.5051 -0.9038
  198MOL    H4335897   4.867   5.300   1.632  0.4240 -0.1109 -0.0623
  198MOL    H4435898   4.829   5.523   1.833  0.1230 -1.5944  0.5567
  198MOL    H4535899   4.755   5.529   1.664  3.9363 -1.5071 -3.2823
  198MOL    H4635900   4.707   5.412   1.765 -0.8815 -0.5365 -0.0873
  198MOL    C4735901   5.014   5.452   1.600 -0.4349  0.0701  0.0960
  198MOL    C4835902   5.127   5.358   1.539  0.4802  0.5003  0.0412
  198MOL    C4935903   5.074   5.231   1.464 -0.3663  0.3024  0.0577
  198MOL    H5035904   4.955   5.506   1.526  1.6397  2.2486 -0.0341
  198MOL    H5135905   5.068   5.532   1.652  0.5100 -0.1727 -0.5018
  198MOL    H5235906   5.184   5.325   1.625  0.4551  2.6808  0.9189
  198MOL    H5335907   4.991   5.251   1.396 -0.9186 -0.1135  0.6026
  198MOL    H5435908   5.142   5.177   1.397 -0.1728  0.3942  0.1785
  198MOL    H5535909   5.035   5.159   1.535 -1.0668  0.9374  0.3160
  198MOL    C5635910   5.221   5.434   1.438  0.6652  0.1667  0.1376
  198MOL    C5735911   5.297   5.547   1.513  0.4570  0.3343 -0.7060
  198MOL    C5835912   5.369   5.504   1.650 -0.6668  0.1385 -0.6705
  198MOL    H5935913   5.283   5.374   1.372  1.7821  0.5680  0.8077
  198MOL    H6035914   5.158   5.490   1.369  2.2249  2.0420  0.1892
  198MOL    H6135915   5.227   5.626   1.538 -2.2278 -2.4283  0.9242
  198MOL    H6235916   5.453   5.436   1.641 -0.6488  0.2834 -1.6533
  198MOL    H6335917   5.405   5.595   1.699  0.9964  0.2483 -2.0551
  198MOL    H6435918   5.302   5.454   1.720 -0.8881  0.1166 -0.8969
  198MOL    C6535919   5.413   5.598   1.424  0.8509 -0.1856 -0.5252
  198MOL    C6635920   5.367   5.648   1.288  0.1102  0.3759 -0.0343
  198MOL    C6735921   5.275   5.774   1.297  0.0184  0.3386  0.6790
  198MOL    H6835922   5.479   5.670   1.472  1.0919  0.8682 -2.3958
  198MOL    H6935923   5.484   5.515   1.415 -0.3269 -1.3965  1.1446
  198MOL    H7035924   5.308   5.570   1.239  0.4594 -0.1384  0.3654
  198MOL    H7135925   5.171   5.754   1.325 -0.6934 -0.3538 -2.3270
  198MOL    H7235926   5.316   5.842   1.372  2.0247  0.1662 -0.2387
  198MOL    H7335927   5.286   5.832   1.206 -1.1734  0.4714  0.6087
  198MOL    C7435928   5.486   5.669   1.185 -0.3108 -0.2519 -0.0232
  198MOL    C7535929   5.545   5.534   1.138 -0.2603 -0.1922  0.5820
  198MOL    C7635930   5.437   5.467   1.045 -0.1124 -0.0966  0.3303
  198MOL    H7735931   5.453   5.722   1.095  0.1034 -1.1367 -0.6991
  198MOL    H7835932   5.566   5.730   1.227  0.2813  0.7687 -2.5022
  198MOL    H7935933   5.564   5.473   1.226 -0.6809  0.3022  1.0224
  198MOL    H8035934   5.401   5.533   0.966 -1.8766 -1.5503 -0.1395
  198MOL    H8135935   5.473   5.374   1.001 -0.7339  0.1370 -0.6758
  198MOL    H8235936   5.347   5.425   1.092  0.4817  0.7516  2.2629
  198MOL    C8335937   5.685   5.552   1.057  0.5523 -0.1921  0.6315
  198MOL    C8435938   5.815   5.562   1.142  0.1131 -0.6508  0.0193
  198MOL    C8535939   5.843   5.425   1.203  0.4681  0.4185  0.1167
  198MOL    H8635940   5.701   5.476   0.981 -0.2630  0.4247 -0.1695
  198MOL    H8735941   5.676   5.639   0.992  0.4529 -0.4817  0.2561
  198MOL    H8835942   5.797   5.629   1.226  3.3356 -1.1436  1.1806
  198MOL    H8935943   5.816   5.350   1.129  0.1135  1.3385 -0.6948
  198MOL    H9035944   5.945   5.403   1.237  0.0363  0.7450  1.6629
  198MOL    H9135945   5.778   5.412   1.289 -0.2295 -1.4136 -0.6748
  198MOL    C9235946   5.937   5.603   1.057  0.4125  0.8511  0.3322
  198MOL    C9335947   5.924   5.743   0.985  0.5438  0.1778 -0.0788
  198MOL    C9435948   5.896   5.857   1.088  0.0553  0.1231  0.5359
  198MOL    H9535949   6.030   5.590   1.112 -0.6209 -0.2577  1.8592
  198MOL    H9635950   5.948   5.527   0.980  0.0194  1.1390 -0.0140
  198MOL    H9735951   5.846   5.739   0.909 -1.1181 -0.0152  1.5915
  198MOL    H9835952   5.798   5.846   1.134  0.3853 -0.4058  1.1111
  198MOL    H9935953   5.960   5.882   1.172  1.9261  0.2097 -0.8865
  198MOL   H10035954   5.900   5.950   1.031 -1.9317 -0.5007 -0.6966
  198MOL   C10135955   6.056   5.780   0.916 -0.8280  0.1647 -0.2032
  198MOL   C10235956   6.114   5.691   0.805 -0.4083 -0.5470 -0.1432
  198MOL   C10335957   6.020   5.693   0.679 -0.0633  0.4145  0.4422
  198MOL   H10435958   6.037   5.878   0.873 -2.2727 -0.0399 -0.0790
  198MOL   H10535959   6.126   5.779   1.000 -0.7397  3.3512 -0.1763
  198MOL   H10635960   6.107   5.591   0.848  1.7294  0.1414  1.8636
  198MOL   H10735961   6.081   5.634   0.610 -1.6692 -3.1875  1.9517
  198MOL   H10835962   5.928   5.639   0.702  1.0152 -2.2097 -1.1415
  198MOL   H10935963   6.005   5.795   0.644  0.2631 -0.3014 -1.8659
  198MOL   C11035964   6.264   5.712   0.780 -0.4478  0.2167 -0.2362
  198MOL   C11135965   6.308   5.848   0.713  0.3000 -0.7585 -0.1709
  198MOL   C11235966   6.333   5.953   0.816  0.2675 -0.7855 -1.5071
  198MOL   H11335967   6.326   5.696   0.868 -0.9358  1.7650  0.4055
  198MOL   H11435968   6.293   5.634   0.709 -1.5530 -0.5411  0.1328
  198MOL   H11535969   6.227   5.883   0.649  0.3062 -0.7500 -0.1741
  198MOL   H11635970   6.426   5.926   0.867 -0.1525  2.7027  1.2803
  198MOL   H11735971   6.348   6.049   0.766 -1.1070  0.3011  0.1168
  198MOL   H11835972   6.255   5.973   0.889  2.8632 -2.5176  1.8952
  198MOL   C11935973   6.432   5.832   0.620 -0.4865 -0.4945  0.2294
  198MOL   C12035974   6.410   5.773   0.478 -0.6171 -0.2334  0.2526
  198MOL   C12135975   6.308   5.853   0.390 -0.1977  0.2450  0.8734
  198MOL   H12235976   6.478   5.931   0.619 -0.9671 -0.2440  1.9900
  198MOL   H12335977   6.497   5.770   0.682 -0.6347  0.8075  1.7089
  198MOL   H12435978   6.361   5.679   0.506  0.3135  0.2086  3.6640
  198MOL   H12535979   6.213   5.870   0.440 -0.3188  0.5215  0.5527
  198MOL   H12635980   6.353   5.951   0.373  0.0521 -0.1554 -0.9403
  198MOL   H12735981   6.307   5.815   0.288  1.7895 -1.8894  1.6140
  198MOL   C12835982   6.540   5.744   0.400  1.1743  0.3240 -0.1229
  198MOL   C12935983   6.566   5.594   0.373  0.0317 -0.4947 -0.3240
  198MOL   C13035984   6.466   5.547   0.264  0.3513  0.1476  0.0193
  198MOL   H13135985   6.542   5.790   0.302  0.7397  0.5258 -0.0361
  198MOL   H13235986   6.624   5.773   0.463  1.1937 -1.0894  0.5310
  198MOL   H13335987   6.529   5.537   0.459  0.3282 -0.7268 -0.3500
  198MOL   H13435988   6.369   5.594   0.278 -0.4733 -1.5708  0.2542
  198MOL   H13535989   6.504   5.564   0.163 -0.4335  1.0672 -0.1258
  198MOL   H13635990   6.448   5.440   0.275  0.9202  0.1497  1.0425
  198MOL   C13735991   6.707   5.559   0.365 -0.0593  0.6967 -0.1677
  198MOL   C13835992   6.747   5.429   0.290 -0.7113  0.3307  0.2913
  198MOL   C13935993   6.855   5.458   0.182 -0.5242 -0.0522  0.3533
  198MOL   H14035994   6.760   5.629   0.302 -0.2640 -0.4889 -1.6899
  198MOL   H14135995   6.751   5.582   0.462 -0.1227  3.5706 -0.8026
  198MOL   H14235996   6.669   5.371   0.241 -1.0773 -0.4537  1.7567
  198MOL   H14335997   6.893   5.374   0.123  0.6417  0.6238  0.1272
  198MOL   H14435998   6.835   5.539   0.111 -1.1061  0.7496  1.4237
  198MOL   H14535999   6.940   5.498   0.237 -2.1567  0.2261  2.7112
  198MOL   C14636000   6.799   5.327   0.395  0.1635  0.3369 -0.2869
  198MOL   C14736001   6.688   5.260   0.485  0.2897 -0.1067  0.7501
  198MOL   C14836002   6.598   5.165   0.404  0.1519  0.5796  0.1481
  198MOL   H14936003   6.851   5.251   0.337 -1.0152 -1.3467  0.8160
  198MOL   H15036004   6.871   5.379   0.458  0.4080 -0.7688  0.3510
  198MOL   H15136005   6.616   5.331   0.526 -1.9172 -1.2913 -0.9618
  198MOL   H15236006   6.548   5.207   0.317 -0.3494 -0.2398  0.0297
  198MOL   H15336007   6.660   5.084   0.365 -1.1150  0.2005 -1.1268
  198MOL   H15436008   6.529   5.101   0.459  0.8665 -0.6576 -0.3611
  198MOL   C15536009   6.753   5.166   0.590 -0.4737 -0.5884 -0.6698
  198MOL   C15636010   6.824   5.238   0.709  0.1933  0.3816  0.5898
  198MOL   C15736011   6.723   5.337   0.764 -0.2058 -0.3337 -0.2885
  198MOL   H15836012   6.680   5.097   0.632 -0.4791  0.7237  1.5859
  198MOL   H15936013   6.827   5.098   0.548  0.5839  0.8894 -1.2687
  198MOL   H16036014   6.908   5.294   0.667  0.7870  1.0379  2.5914
  198MOL   H16136015   6.625   5.290   0.771 -0.3150 -0.0627  0.0480
  198MOL   H16236016   6.753   5.362   0.866  0.1533  2.1472 -0.9771
  198MOL   H16336017   6.724   5.428   0.704  0.4072 -0.7048 -0.8415
  198MOL   C16436018   6.881   5.131   0.804  0.1225 -1.3886  0.3230
  198MOL   C16536019   6.987   5.181   0.903 -1.2124  0.0040  0.2499
  198MOL   C16636020   6.965   5.102   1.033  0.0151 -0.0448 -0.1463
  198MOL   H16736021   6.798   5.091   0.863  0.2493 -2.6996 -0.3642
  198MOL   H16836022   6.916   5.043   0.750  1.5947 -2.9915  3.7784
  198MOL   H16936023   6.981   5.286   0.932 -1.4966 -0.3182  1.3916
  198MOL   H17036024   7.051   5.108   1.101  1.5235 -2.2645 -1.7877
  198MOL   H17136025   6.878   5.136   1.088  0.0037 -1.6088  0.8382
  198MOL   H17236026   6.927   5.000   1.024  2.0809 -0.7138 -1.8541
  198MOL   C17336027   7.127   5.141   0.860  0.3018  0.5283  0.3778
  198MOL   C17436028   7.198   5.241   0.759 -0.2739 -0.9985  0.0125
  198MOL   C17536029   7.326   5.190   0.704 -0.8390 -0.2588  0.1321
  198MOL   H17636030   7.193   5.128   0.946  1.7538 -0.8839 -0.8939
  198MOL   H17736031   7.109   5.040   0.821 -0.6902  0.9891 -0.3673
  198MOL   H17836032   7.220   5.333   0.813  0.7881  0.2729 -2.5389
  198MOL   H17936033   7.319   5.109   0.632 -1.6849 -1.5074  1.5845
  198MOL   H18036034   7.377   5.263   0.642  1.4017 -2.3235 -0.5584
  198MOL   H18136035   7.382   5.141   0.784 -0.5626 -1.9877 -1.0879
  198MOL   H18236036   7.130   5.281   0.684  0.0700  0.9873  0.7405
  199MOL     C136037   7.289   6.920   1.580  0.7728  0.6717 -0.1295
  199MOL     C236038   7.408   6.998   1.641 -0.0596  0.0367 -0.4479
  199MOL     C336039   7.492   7.050   1.524 -0.3207 -0.4367 -0.1683
  199MOL     H436040   7.226   6.867   1.652  0.6188  0.1422 -0.6535
  199MOL     H536041   7.334   6.837   1.526  0.8423 -0.6976  1.9561
  199MOL     H636042   7.461   6.926   1.702 -0.4624 -0.0700 -0.2222
  199MOL     H736043   7.428   7.101   1.451  0.3374  1.2949  0.4311
  199MOL     H836044   7.566   7.119   1.564  0.9631 -1.2137 -1.1747
  199MOL     H936045   7.543   6.967   1.476  0.6654 -0.8907  1.6239
  199MOL    H1036046   7.221   6.976   1.516  1.1018  1.0666 -0.1334
  199MOL    C1136047   7.376   7.113   1.740  0.0214 -0.5569  0.3287
  199MOL    C1236048   7.316   7.064   1.877  0.1561 -0.1682  0.2482
  199MOL    C1336049   7.426   7.030   1.975  0.2596  0.0838  0.1959
  199MOL    H1436050   7.473   7.160   1.755 -1.0321  1.1571  1.9032
  199MOL    H1536051   7.314   7.187   1.690  2.5354 -0.4520 -2.8177
  199MOL    H1636052   7.264   6.972   1.852  1.4795 -0.7715 -0.3087
  199MOL    H1736053   7.481   6.941   1.944  1.4967  0.7493  0.4390
  199MOL    H1836054   7.500   7.108   1.992 -0.4174  0.7996 -0.1206
  199MOL    H1936055   7.381   7.007   2.072 -3.7977  0.9500 -1.3987
  199MOL    C2036056   7.211   7.166   1.934  0.4394  0.6365  0.5383
  199MOL    C2136057   7.083   7.100   1.990  0.0770  0.2894  0.1505
  199MOL    C2236058   7.029   7.192   2.101  0.0332  0.5083  0.1921
  199MOL    H2336059   7.242   7.256   1.986 -0.1809  1.3274 -0.2747
  199MOL    H2436060   7.174   7.210   1.842  1.3879  1.5200  0.5734
  199MOL    H2536061   7.112   7.011   2.047  1.8577  1.2501  0.8113
  199MOL    H2636062   6.987   7.283   2.057  0.6774  0.0953 -1.3076
  199MOL    H2736063   6.951   7.153   2.167 -2.4138  1.4031 -2.0997
  199MOL    H2836064   7.108   7.217   2.172  0.3773 -0.9940  0.3596
  199MOL    C2936065   6.972   7.052   1.888  0.4855  0.1619  0.0624
  199MOL    C3036066   6.830   7.022   1.936  0.4871 -0.5742 -0.1463
  199MOL    C3136067   6.743   7.020   1.815  0.6555 -0.1300 -0.1804
  199MOL    H3236068   6.966   7.134   1.816  0.8726  1.8684  1.9515
  199MOL    H3336069   7.020   6.975   1.827  1.8771  0.7706  0.3644
  199MOL    H3436070   6.802   7.116   1.985  1.1496 -0.4272 -0.0556
  199MOL    H3536071   6.756   7.109   1.753  0.5125 -1.3467 -1.9756
  199MOL    H3636072   6.773   6.932   1.758 -1.5606 -1.2529  0.3314
  199MOL    H3736073   6.636   7.023   1.839  0.8607 -0.4498  0.7831
  199MOL    C3836074   6.803   6.906   2.035 -0.3004  0.0013  0.1751
  199MOL    C3936075   6.657   6.879   2.080  0.5130 -0.3238 -0.5692
  199MOL    C4036076   6.653   6.751   2.161  0.3915  0.0355 -0.1700
  199MOL    H4136077   6.853   6.818   1.994  1.3486  0.6191  0.7952
  199MOL    H4236078   6.859   6.932   2.125  1.7256  1.7071 -1.5460
  199MOL    H4336079   6.604   6.863   1.987 -1.1278  1.0229  0.1116
  199MOL    H4436080   6.687   6.767   2.263 -1.0139  1.3460  0.1190
  199MOL    H4536081   6.549   6.717   2.167  0.5714 -0.3954  0.5171
  199MOL    H4636082   6.717   6.672   2.121  0.4637  0.9291 -1.8925
  199MOL    C4736083   6.598   7.011   2.146  0.9761 -0.8391 -0.1028
  199MOL    C4836084   6.451   7.008   2.182  0.1322 -0.0554 -0.2749
  199MOL    C4936085   6.422   7.124   2.279 -0.1525  0.5454  0.0343
  199MOL    H5036086   6.656   7.018   2.238 -1.5563  2.0656  1.3700
  199MOL    H5136087   6.623   7.095   2.083 -0.4249 -0.2402  0.1369
  199MOL    H5236088   6.432   6.914   2.234  0.6004 -1.2716 -2.2566
  199MOL    H5336089   6.418   7.218   2.224  1.3025  0.6189  0.0385
  199MOL    H5436090   6.327   7.109   2.329 -0.2512  0.0163 -0.3063
  199MOL    H5536091   6.500   7.127   2.356  0.6453 -1.3402 -0.6623
  199MOL    C5636092   6.356   7.019   2.065  0.3459  0.2406  0.8607
  199MOL    C5736093   6.205   7.003   2.093 -0.3388 -0.1512  0.5900
  199MOL    C5836094   6.123   7.045   1.966  0.4385 -0.8332 -0.5027
  199MOL    H5936095   6.362   7.117   2.018  1.4261 -0.8593 -1.3846
  199MOL    H6036096   6.373   6.941   1.991 -0.4652 -0.2288  1.1537
  199MOL    H6136097   6.181   7.074   2.173  3.8423 -0.2325  2.0468
  199MOL    H6236098   6.141   7.141   1.917  1.4766 -1.2037 -0.8453
  199MOL    H6336099   6.151   6.969   1.894 -1.0708 -2.4874  0.6160
  199MOL    H6436100   6.015   7.039   1.984  0.9537 -0.3900  3.0228
  199MOL    C6536101   6.169   6.854   2.134 -0.2259 -0.5225 -0.0884
  199MOL    C6636102   6.159   6.825   2.288  0.9917  0.9781  0.7955
  199MOL    C6736103   6.030   6.898   2.345  0.1182 -0.7000  0.0444
  199MOL    H6836104   6.073   6.820   2.094 -0.6797 -0.9311  1.3052
  199MOL    H6936105   6.250   6.794   2.094  0.7224  0.0276  0.9968
  199MOL    H7036106   6.244   6.873   2.337  3.0661 -0.0427 -1.6941
  199MOL    H7136107   5.939   6.867   2.294  0.9732 -2.8496 -0.2095
  199MOL    H7236108   6.010   6.873   2.449 -0.2665  2.5301  0.7939
  199MOL    H7336109   6.051   7.005   2.339 -0.1481 -0.7559 -2.2488
  199MOL    C7436110   6.146   6.676   2.307 -0.1458  0.1054  0.0892
  199MOL    C7536111   6.279   6.598   2.304 -0.1061 -0.1976  0.0048
  199MOL    C7636112   6.372   6.640   2.410 -0.4436 -0.5332  0.3119
  199MOL    H7736113   6.102   6.656   2.405 -0.4530  0.3987  0.0103
  199MOL    H7836114   6.068   6.630   2.246  1.0987  0.0670 -1.5026
  199MOL    H7936115   6.327   6.620   2.209 -0.9564 -0.5488 -0.5171
  199MOL    H8036116   6.320   6.642   2.506 -1.8344  2.2136 -0.4467
  199MOL    H8136117   6.461   6.579   2.423 -1.0218 -1.5772 -0.5693
  199MOL    H8236118   6.417   6.738   2.392  1.6748 -1.7915 -1.4674
  199MOL    C8336119   6.251   6.449   2.314  0.1597 -0.5341 -0.2036
  199MOL    C8436120   6.367   6.355   2.303  0.9457 -0.2045  0.1417
  199MOL    C8536121   6.314   6.209   2.299  0.0194  0.0771  0.0159
  199MOL    H8636122   6.205   6.436   2.413  1.4897 -1.8678  0.2457
  199MOL    H8736123   6.185   6.424   2.231 -0.0485 -0.8205  0.0470
  199MOL    H8836124   6.416   6.356   2.400 -2.7661  0.3013  2.0751
  199MOL    H8936125   6.244   6.210   2.383  1.6389  2.5624  1.3685
  199MOL    H9036126   6.264   6.197   2.203  2.6525  1.3948 -1.5773
  199MOL    H9136127   6.385   6.131   2.327  1.2392  0.9406 -0.6595
  199MOL    C9236128   6.463   6.384   2.188 -0.5090  0.5442 -0.1491
  199MOL    C9336129   6.592   6.296   2.185 -0.2549 -0.2209  0.1639
  199MOL    C9436130   6.657   6.286   2.046  0.1735 -0.7702 -0.1472
  199MOL    H9536131   6.413   6.400   2.093  0.9634  0.5547 -0.9467
  199MOL    H9636132   6.507   6.483   2.206  1.8464 -0.5601  0.3632
  199MOL    H9736133   6.557   6.197   2.215 -0.3758 -0.2900 -0.2084
  199MOL    H9836134   6.715   6.376   2.026  1.7622 -1.6135  0.5647
  199MOL    H9936135   6.731   6.208   2.027  1.2294  0.2633 -0.3046
  199MOL   H10036136   6.581   6.276   1.969 -0.0003 -0.8919  0.0375
  199MOL   C10136137   6.706   6.338   2.291  0.8006  0.6475 -0.5825
  199MOL   C10236138   6.700   6.285   2.432 -0.1189 -0.4393 -0.4830
  199MOL   C10336139   6.722   6.136   2.427 -0.3202  0.3532  0.0645
  199MOL   H10436140   6.789   6.289   2.241 -0.4930 -0.5187 -1.6437
  199MOL   H10536141   6.736   6.442   2.289  0.3798  0.7769 -0.1906
  199MOL   H10636142   6.607   6.304   2.486  1.1040 -1.4415  2.0364
  199MOL   H10736143   6.817   6.106   2.381 -0.0385 -0.3961  1.0995
  199MOL   H10836144   6.723   6.080   2.521 -0.3432 -0.1186 -0.2110
  199MOL   H10936145   6.650   6.081   2.367  1.7849 -0.5936 -1.6767
  199MOL   C11036146   6.805   6.358   2.513 -0.0270  0.5298  0.6642
  199MOL   C11136147   6.799   6.342   2.666 -0.6462  0.5105 -0.0185
  199MOL   C11236148   6.904   6.232   2.704  1.2449  0.4110 -0.6833
  199MOL   H11336149   6.910   6.350   2.484 -0.3904 -1.1490 -0.2079
  199MOL   H11436150   6.785   6.464   2.496  0.0249  0.2969 -0.9029
  199MOL   H11536151   6.702   6.303   2.695  0.6514 -3.1420 -0.3522
  199MOL   H11636152   7.000   6.283   2.712 -0.1883  2.9636  0.8379
  199MOL   H11736153   6.889   6.193   2.805 -1.8280  1.1929 -0.7841
  199MOL   H11836154   6.909   6.157   2.625  0.1172  0.2342 -0.6075
  199MOL   C11936155   6.836   6.473   2.737  0.3851  0.0614 -0.0228
  199MOL   C12036156   6.729   6.590   2.729  0.0747  0.2315 -0.5220
  199MOL   C12136157   6.649   6.587   2.863  0.7222 -0.2088  0.3495
  199MOL   H12236158   6.851   6.453   2.843 -0.5102  1.4989  0.4011
  199MOL   H12336159   6.925   6.513   2.688  0.6663 -0.1504  0.3170
  199MOL   H12436160   6.661   6.583   2.644  0.3012 -1.5464 -0.5713
  199MOL   H12536161   6.690   6.620   2.959 -2.6948  2.3897  1.0164
  199MOL   H12636162   6.559   6.643   2.842 -0.3065 -0.8102  2.9621
  199MOL   H12736163   6.614   6.484   2.868 -0.8604  0.4197  4.0129
  199MOL   C12836164   6.803   6.729   2.717 -0.5224 -0.5451 -0.4807
  199MOL   C12936165   6.735   6.843   2.633  0.5058  0.2999 -0.4189
  199MOL   C13036166   6.592   6.879   2.673  0.4137  0.1076  0.4460
  199MOL   H13136167   6.822   6.770   2.816  1.0595  3.0771 -2.1683
  199MOL   H13236168   6.907   6.723   2.683  0.0356  0.9676  0.9363
  199MOL   H13336169   6.726   6.809   2.530 -1.2964  1.1785 -0.5920
  199MOL   H13436170   6.534   6.939   2.603  0.2933 -1.1366 -0.5476
  199MOL   H13536171   6.530   6.797   2.707  0.4851 -1.1681 -2.3617
  199MOL   H13636172   6.593   6.946   2.759  0.0797  0.1318  0.4308
  199MOL   C13736173   6.822   6.971   2.629 -0.9989  0.0510  0.1311
  199MOL   C13836174   6.950   6.978   2.543  0.0720 -0.2191  0.8270
  199MOL   C13936175   6.913   6.966   2.396  0.4114  0.0375  0.0741
  199MOL   H14036176   6.748   7.043   2.594 -2.7211 -0.8923  1.7189
  199MOL   H14136177   6.852   7.008   2.727  0.7894  0.0346 -0.3985
  199MOL   H14236178   7.015   6.894   2.567 -0.0520 -0.3498  0.7084
  199MOL   H14336179   6.882   6.863   2.377  1.0596  0.1036 -1.4114
  199MOL   H14436180   6.837   7.036   2.361  0.0494 -0.1590  0.4592
  199MOL   H14536181   7.005   6.982   2.340  0.6503 -0.5294  0.3019
  199MOL   C14636182   7.026   7.113   2.573 -0.6867  0.0172 -0.7362
  199MOL   C14736183   7.160   7.131   2.510 -0.0590 -0.6023 -0.7493
  199MOL   C14836184   7.202   7.275   2.535 -0.2874 -0.2179  0.6048
  199MOL   H14936185   6.966   7.203   2.560  0.0616  0.2520 -2.7159
  199MOL   H15036186   7.051   7.128   2.678  2.8105 -0.4218 -1.4334
  199MOL   H15136187   7.151   7.124   2.402 -0.9378  0.6445 -0.7696
  199MOL   H15236188   7.128   7.349   2.506  0.4502  0.6200  0.8525
  199MOL   H15336189   7.224   7.306   2.637  2.7379  1.1544 -0.3869
  199MOL   H15436190   7.295   7.293   2.480  0.0738 -0.2399  1.2061
  199MOL   C15536191   7.262   7.027   2.572 -0.2030 -0.0704  0.1625
  199MOL   C15636192   7.412   7.062   2.557 -0.8445 -0.0282  0.1684
  199MOL   C15736193   7.509   6.966   2.632 -0.0790 -0.2267  0.0070
  199MOL   H15836194   7.230   6.990   2.670 -0.5917 -0.6873 -0.1899
  199MOL   H15936195   7.252   6.940   2.507 -2.2863 -2.5149  3.5814
  199MOL   H16036196   7.432   7.149   2.620  2.3975 -0.3988 -0.2401
  199MOL   H16136197   7.479   6.964   2.737  0.6251  2.6829  0.3054
  199MOL   H16236198   7.511   6.866   2.588  0.8283 -0.7766  1.2786
  199MOL   H16336199   7.608   7.009   2.642  0.9658 -2.9547  2.2457
  199MOL   C16436200   7.453   7.088   2.411 -0.2160 -0.2138  0.1023
  199MOL   C16536201   7.590   7.147   2.393 -1.3078  0.0181  0.0270
  199MOL   C16636202   7.635   7.150   2.238 -0.1433 -0.5476  0.1459
  199MOL   H16736203   7.451   6.992   2.360  0.3545 -0.3641  0.3541
  199MOL   H16836204   7.384   7.149   2.353  0.0270 -0.5284 -0.5149
  199MOL   H16936205   7.668   7.088   2.441 -1.0072 -0.3987 -0.9544
  199MOL   H17036206   7.592   7.226   2.172 -0.1184 -0.1704  0.5658
  199MOL   H17136207   0.043   7.177   2.238 -0.1278 -0.5902 -0.5511
  199MOL   H17236208   7.625   7.055   2.186  1.1302 -0.7390  0.2214
  199MOL   C17336209   7.596   7.301   2.443  0.0245  0.5470  0.0853
  199MOL   C17436210   0.041   7.368   2.443 -0.7984 -0.1164  0.2252
  199MOL   C17536211   0.031   7.500   2.519 -0.2237 -0.1262 -0.0445
  199MOL   H17636212   7.518   7.360   2.394 -1.8817 -0.4544  1.8465
  199MOL   H17736213   7.566   7.296   2.548 -0.6863  3.1482  0.0417
  199MOL   H17836214   0.082   7.397   2.346 -0.3948 -0.6119  0.2487
  199MOL   H17936215   7.659   7.498   2.604 -0.2892 -0.3864 -0.1019
  199MOL   H18036216   0.131   7.530   2.548 -0.7561  1.3330  0.3204
  199MOL   H18136217   0.003   7.583   2.455  0.9127  0.5402  0.3180
  199MOL   H18236218   0.120   7.304   2.480  1.0092  1.2015 -1.2540
  200MOL     C136219   3.697   6.879   0.898 -0.3833 -0.1341  0.0677
  200MOL     C236220   3.707   7.026   0.938 -0.8854 -0.3924  0.2958
  200MOL     C336221   3.632   7.049   1.068 -0.6089 -0.2394  0.1870
  200MOL     H436222   3.721   6.825   0.990 -2.9716 -2.1542 -0.4032
  200MOL     H536223   3.772   6.850   0.824 -1.0847 -3.0688  0.4550
  200MOL     H636224   3.651   7.082   0.863 -0.6421  0.8356  1.0241
  200MOL     H736225   3.614   7.155   1.078 -2.3274 -0.2931 -1.9810
  200MOL     H836226   3.535   7.001   1.055 -1.4309  1.6591 -0.8895
  200MOL     H936227   3.676   6.999   1.154  0.4730 -0.9635 -0.7614
  200MOL    H1036228   3.602   6.847   0.856 -0.0122  0.6672 -1.4122
  200MOL    C1136229   3.852   7.079   0.954 -0.0049  0.1063  0.4389
  200MOL    C1236230   3.952   7.049   0.838 -0.3111  0.1600  0.6887
  200MOL    C1336231   3.900   7.079   0.698  0.3395  0.1137  0.0656
  200MOL    H1436232   3.843   7.186   0.972  1.5965  0.2299  0.5774
  200MOL    H1536233   3.911   7.039   1.037  0.1961  3.9170  2.2509
  200MOL    H1636234   3.965   6.941   0.843  0.3093  0.2044  0.1343
  200MOL    H1736235   3.982   7.063   0.628 -0.1181  0.3195 -0.5249
  200MOL    H1836236   3.822   7.012   0.663  0.7126  1.0301 -2.6835
  200MOL    H1936237   3.865   7.182   0.690  0.5647  0.1660 -0.2587
  200MOL    C2036238   4.080   7.135   0.855 -0.1352 -0.0851 -0.0754
  200MOL    C2136239   4.217   7.062   0.813  0.2690 -0.8497  0.1513
  200MOL    C2236240   4.311   7.165   0.748 -0.3205  0.5327 -0.0196
  200MOL    H2336241   4.060   7.233   0.812 -0.9305 -0.1863  0.0607
  200MOL    H2436242   4.093   7.159   0.960  1.8030  0.7498 -0.4898
  200MOL    H2536243   4.198   6.984   0.740  0.2833  1.0077 -1.8673
  200MOL    H2636244   4.266   7.215   0.663  1.0424  1.0398 -0.4692
  200MOL    H2736245   4.341   7.246   0.815  1.5947  0.0255 -0.2298
  200MOL    H2836246   4.395   7.116   0.697 -1.1677  1.1682 -2.0905
  200MOL    C2936247   4.293   6.998   0.933 -0.5835  0.1767 -0.1464
  200MOL    C3036248   4.417   6.909   0.900  0.0516 -0.6778 -0.1364
  200MOL    C3136249   4.458   6.845   1.035 -0.4079 -0.3250 -0.2158
  200MOL    H3236250   4.324   7.078   0.999  0.3909 -0.2015 -0.1361
  200MOL    H3336251   4.226   6.929   0.985 -0.3368 -2.2109 -2.8102
  200MOL    H3436252   4.495   6.972   0.857  0.3344 -1.5496 -0.9208
  200MOL    H3536253   4.487   6.918   1.110  0.5181  0.3495 -1.2236
  200MOL    H3636254   4.372   6.791   1.076 -2.6398  2.9842 -0.3364
  200MOL    H3736255   4.547   6.782   1.035  0.3516  0.6798  2.6658
  200MOL    C3836256   4.393   6.803   0.793 -0.8723  0.2052  0.0176
  200MOL    C3936257   4.492   6.679   0.794 -0.0756 -0.0378  0.1260
  200MOL    C4036258   4.439   6.573   0.699  0.3687  0.2337  0.1873
  200MOL    H4136259   4.289   6.779   0.815 -1.5317  2.9162  0.0736
  200MOL    H4236260   4.387   6.857   0.698  3.7717  0.7417 -0.1050
  200MOL    H4336261   4.494   6.635   0.894 -1.2893 -0.6593 -0.1220
  200MOL    H4436262   4.333   6.547   0.710  0.5738 -1.2919 -1.1951
  200MOL    H4536263   4.460   6.593   0.594 -0.6991  1.1658  0.1402
  200MOL    H4636264   4.500   6.488   0.729  0.0542 -0.5311 -1.2566
  200MOL    C4736265   4.634   6.718   0.753 -0.2167  0.2317 -0.0146
  200MOL    C4836266   4.741   6.605   0.746 -0.3699  0.0212  0.0366
  200MOL    C4936267   4.875   6.652   0.680  0.1582 -0.0217 -0.4013
  200MOL    H5036268   4.627   6.766   0.655 -1.2618 -2.2958 -1.2282
  200MOL    H5136269   4.668   6.801   0.814 -0.8636  0.0750  0.5582
  200MOL    H5236270   4.702   6.527   0.680 -1.6432  0.4383  0.2867
  200MOL    H5336271   4.867   6.734   0.608  1.2477  2.6295  2.3715
  200MOL    H5436272   4.946   6.681   0.758 -0.3536  0.0258  0.0502
  200MOL    H5536273   4.918   6.566   0.629  1.0841  0.0882  0.1827
  200MOL    C5636274   4.769   6.530   0.877 -0.0526  0.4077 -0.3772
  200MOL    C5736275   4.755   6.375   0.866  0.3390 -1.0389 -0.1217
  200MOL    C5836276   4.852   6.315   0.755 -0.2737  1.0179 -1.2185
  200MOL    H5936277   4.859   6.563   0.928  1.3440  1.1568 -3.2134
  200MOL    H6036278   4.698   6.570   0.949 -1.5748 -1.9219 -0.5075
  200MOL    H6136279   4.651   6.353   0.847 -0.1622 -0.1951  1.5162
  200MOL    H6236280   4.853   6.206   0.759 -0.5181  1.0040 -1.5790
  200MOL    H6336281   4.826   6.347   0.655  2.6707 -0.4903 -2.5528
  200MOL    H6436282   4.955   6.348   0.774 -0.3080  0.1745  0.6251
  200MOL    C6536283   4.798   6.304   1.005  0.1335  0.4022  0.1360
  200MOL    C6636284   4.684   6.250   1.094 -0.4914  0.4315 -0.1374
  200MOL    C6736285   4.617   6.364   1.185 -0.1492 -0.4927  0.4635
  200MOL    H6836286   4.867   6.221   0.989 -0.3564  0.6087 -3.4685
  200MOL    H6936287   4.855   6.376   1.062  1.1167 -1.5690  1.6968
  200MOL    H7036288   4.736   6.192   1.170 -0.4967  0.7336  0.0968
  200MOL    H7136289   4.688   6.439   1.221 -0.1317 -0.2497 -0.0779
  200MOL    H7236290   4.562   6.422   1.111  0.6961 -1.1273 -0.6778
  200MOL    H7336291   4.558   6.328   1.269 -1.1016  2.0112  0.9069
  200MOL    C7436292   4.574   6.167   1.023 -0.0649  0.5389  0.6893
  200MOL    C7536293   4.623   6.049   0.929 -0.1369  0.2269 -0.1245
  200MOL    C7636294   4.667   5.924   1.014 -0.7180 -0.5512  0.6928
  200MOL    H7736295   4.501   6.131   1.095  1.4427  0.6449  2.2927
  200MOL    H7836296   4.518   6.233   0.956 -0.2804 -1.2961 -0.9835
  200MOL    H7936297   4.709   6.080   0.870  0.0335  1.7810  0.9091
  200MOL    H8036298   4.707   5.853   0.942  0.5935  1.1334 -0.3000
  200MOL    H8136299   4.759   5.945   1.069 -0.5186  2.2611 -0.6136
  200MOL    H8236300   4.588   5.885   1.078  0.0658 -0.6916  1.5810
  200MOL    C8336301   4.508   5.997   0.836 -0.2284  0.2179  0.1593
  200MOL    C8436302   4.488   6.084   0.705 -0.6276 -0.1799  0.4041
  200MOL    C8536303   4.603   6.053   0.600  0.2716  0.1002  0.8627
  200MOL    H8636304   4.515   5.891   0.810  0.5466  0.5060 -0.8222
  200MOL    H8736305   4.409   6.002   0.881 -0.4411  0.3260 -0.3227
  200MOL    H8836306   4.479   6.192   0.720  0.7115 -0.2668  1.9789
  200MOL    H8936307   4.587   5.970   0.531 -0.0031  1.0424 -0.2286
  200MOL    H9036308   4.611   6.138   0.531 -3.2275  1.3418  1.8994
  200MOL    H9136309   4.706   6.047   0.637  0.0442 -1.9271  1.2037
  200MOL    C9236310   4.362   6.043   0.629 -0.1137  0.6122  0.6441
  200MOL    C9336311   4.216   6.054   0.693 -0.6134 -0.1024  0.4435
  200MOL    C9436312   4.129   6.165   0.630  0.0139 -0.0338 -0.6172
  200MOL    H9536313   4.359   6.103   0.538  0.3842 -0.6621 -0.2171
  200MOL    H9636314   4.383   5.944   0.589  0.8219  1.2300 -0.4189
  200MOL    H9736315   4.233   6.077   0.798  1.6213  0.2178  0.0499
  200MOL    H9836316   4.102   6.152   0.525 -1.4121 -0.3416 -0.2266
  200MOL    H9936317   4.038   6.176   0.689  1.0429  3.3509  0.4040
  200MOL   H10036318   4.180   6.261   0.632 -3.0794  1.6691  1.3831
  200MOL   C10136319   4.138   5.925   0.689  0.7160  0.7485 -0.4519
  200MOL   C10236320   4.195   5.811   0.773 -0.3362 -0.2519 -0.3874
  200MOL   C10336321   4.184   5.824   0.929 -0.4930 -0.5868  0.3268
  200MOL   H10436322   4.040   5.949   0.730  0.2181 -0.2521 -1.0370
  200MOL   H10536323   4.121   5.884   0.590 -0.6007  1.0189 -0.3450
  200MOL   H10636324   4.301   5.801   0.750 -0.3181  0.4351 -0.6027
  200MOL   H10736325   4.233   5.746   0.988  1.1243  0.5984  0.5830
  200MOL   H10836326   4.240   5.912   0.958 -0.4961  0.2640 -2.1222
  200MOL   H10936327   4.086   5.844   0.970 -0.7822  0.4400 -0.8247
  200MOL   C11036328   4.129   5.673   0.748  0.0132 -0.2548 -0.2478
  200MOL   C11136329   4.172   5.603   0.618 -0.4009 -0.5034  0.4160
  200MOL   C11236330   4.322   5.567   0.622 -0.0846  0.0880  0.4364
  200MOL   H11336331   4.163   5.605   0.826  0.3194  0.4950  0.2854
  200MOL   H11436332   4.020   5.673   0.750  0.0268 -1.5523  1.7306
  200MOL   H11536333   4.166   5.671   0.533 -0.6182 -1.6803 -0.5166
  200MOL   H11636334   4.351   5.507   0.536  2.0495  0.3301  0.9528
  200MOL   H11736335   4.389   5.653   0.626 -1.5925  1.1634  4.1599
  200MOL   H11836336   4.344   5.505   0.709 -0.0323 -0.6157 -0.0758
  200MOL   C11936337   4.086   5.480   0.589 -0.9401 -0.7779 -0.6304
  200MOL   C12036338   3.954   5.506   0.526 -0.2582 -0.4156  0.6597
  200MOL   C12136339   3.961   5.576   0.385 -0.4051  0.0812  0.2605
  200MOL   H12236340   4.141   5.420   0.516 -1.8792 -2.2908 -0.1224
  200MOL   H12336341   4.076   5.423   0.682 -0.0150  1.8241  1.1222
  200MOL   H12436342   3.894   5.578   0.582 -0.4870  1.0945 -1.4476
  200MOL   H12536343   4.057   5.543   0.345  1.1175  1.3948  2.6690
  200MOL   H12636344   3.877   5.563   0.317 -0.1025 -1.0390  0.1024
  200MOL   H12736345   3.963   5.684   0.401 -0.3706  0.5869 -2.9512
  200MOL   C12836346   3.875   5.373   0.518  0.1067  0.0168  0.4436
  200MOL   C12936347   3.836   5.320   0.658 -0.7334 -0.0335  0.1421
  200MOL   C13036348   3.776   5.431   0.747 -0.0474 -0.0358  0.1874
  200MOL   H13136349   3.793   5.379   0.445 -2.5457  0.0031  3.3363
  200MOL   H13236350   3.936   5.293   0.475  0.1127  0.1910  0.1244
  200MOL   H13336351   3.923   5.267   0.697 -1.1931  0.1101  1.3795
  200MOL   H13436352   3.706   5.497   0.696  2.4710  3.0614  0.5420
  200MOL   H13536353   3.735   5.393   0.841  0.4986  0.3183  0.5736
  200MOL   H13636354   3.852   5.497   0.789 -0.8916  0.7324  0.5132
  200MOL   C13736355   3.733   5.212   0.637  0.4120  0.0542  1.1474
  200MOL   C13836356   3.697   5.107   0.748 -0.4655  0.5244 -0.3804
  200MOL   C13936357   3.564   5.041   0.705 -0.2061 -0.0458 -0.1309
  200MOL   H14036358   3.639   5.267   0.628  0.3325 -0.0686  1.2219
  200MOL   H14136359   3.749   5.163   0.541 -1.4162 -0.1139  0.9131
  200MOL   H14236360   3.687   5.164   0.840 -2.7711  2.1006 -1.5392
  200MOL   H14336361   3.538   4.949   0.757  2.7626 -0.1795  1.2036
  200MOL   H14436362   3.477   5.107   0.712  0.1530  0.2206  2.2286
  200MOL   H14536363   3.558   5.016   0.599  2.3694  1.7226 -0.7435
  200MOL   C14636364   3.812   5.004   0.765 -0.2603 -0.2037 -0.2024
  200MOL   C14736365   3.792   4.897   0.884  0.0123 -0.4140  0.6662
  200MOL   C14836366   3.897   4.789   0.876  0.1199 -0.2347 -0.3515
  200MOL   H14936367   3.838   4.949   0.674 -2.1624  0.3583 -1.1252
  200MOL   H15036368   3.903   5.059   0.790 -0.4558 -0.0413  0.1487
  200MOL   H15136369   3.700   4.847   0.855  2.2772 -3.0497 -2.3093
  200MOL   H15236370   3.891   4.713   0.954 -0.8961 -0.6480 -0.8112
  200MOL   H15336371   3.891   4.729   0.785 -0.8686 -0.3782 -0.2080
  200MOL   H15436372   3.991   4.843   0.886 -0.3017  0.3247  0.7256
  200MOL   C15536373   3.794   4.974   1.019  0.3794  0.0484  0.0531
  200MOL   C15636374   3.651   5.008   1.065 -0.0454  0.3250 -0.4609
  200MOL   C15736375   3.560   4.888   1.077 -0.3493  1.0682  0.1445
  200MOL   H15836376   3.828   4.902   1.093  0.4746  1.1359  1.0939
  200MOL   H15936377   3.863   5.059   1.022 -0.0585  0.4652 -1.4417
  200MOL   H16036378   3.590   5.066   0.996 -1.1591  0.0731  0.3038
  200MOL   H16136379   3.525   4.837   0.987 -0.8584 -2.6277  2.3434
  200MOL   H16236380   3.609   4.810   1.134  0.7995  2.4398  1.0494
  200MOL   H16336381   3.462   4.909   1.120 -0.8209  0.3071 -0.5180
  200MOL   C16436382   3.653   5.086   1.199  0.3698  0.7752 -0.0167
  200MOL   C16536383   3.525   5.154   1.261  0.1238 -0.4561 -0.2684
  200MOL   C16636384   3.566   5.233   1.386  0.2835  0.5006  0.1821
  200MOL   H16736385   3.694   5.014   1.270 -0.6455  0.2299  0.0337
  200MOL   H16836386   3.731   5.162   1.191  1.4975 -0.6042 -2.5201
  200MOL   H16936387   3.454   5.083   1.302 -0.6662  0.4440 -0.0695
  200MOL   H17036388   3.614   5.162   1.453  1.6766  0.7246 -0.5403
  200MOL   H17136389   3.633   5.314   1.357  1.9593 -1.0700 -0.4359
  200MOL   H17236390   3.480   5.274   1.438 -1.7985  0.9331 -3.4722
  200MOL   C17336391   3.453   5.234   1.156 -0.4888 -0.4872 -0.1646
  200MOL   C17436392   3.531   5.344   1.079  0.0699  0.0263  0.6482
  200MOL   C17536393   3.450   5.399   0.961 -0.2133 -0.5286  0.2984
  200MOL   H17636394   3.415   5.167   1.078 -0.6710 -0.7614  0.1576
  200MOL   H17736395   3.363   5.275   1.201  1.7288  1.1450  3.0051
  200MOL   H17836396   3.621   5.300   1.036  0.3809  0.1504  1.1709
  200MOL   H17936397   3.479   5.343   0.873 -0.5881 -1.8951  1.0325
  200MOL   H18036398   3.342   5.388   0.968 -0.3256  0.2176 -0.1982
  200MOL   H18136399   3.477   5.502   0.940 -0.0507 -0.8761 -1.2458
  200MOL   H18236400   3.558   5.423   1.148  1.4854 -0.7844  1.0357
  201MOL     C136401   3.983   5.716   6.536  0.3182 -0.2829 -0.3684
  201MOL     C236402   3.839   5.717   6.485  0.1185  0.6908  0.5810
  201MOL     C336403   3.784   5.571   6.481  0.1775 -0.2645  0.0169
  201MOL     H436404   4.027   5.815   6.524 -0.1276 -0.1904 -1.3482
  201MOL     H536405   4.044   5.640   6.487 -0.3930 -2.4615  1.9894
  201MOL     H636406   3.854   5.758   6.385  2.6657 -1.4833 -0.0034
  201MOL     H736407   3.676   5.564   6.462 -0.1243  1.9577  0.7375
  201MOL     H836408   3.843   5.513   6.410  1.8682 -0.5585  1.6360
  201MOL     H936409   3.810   5.536   6.580 -0.7664 -0.4592  0.1979
  201MOL    H1036410   3.983   5.694   6.643  2.2914 -3.7808 -1.0298
  201MOL    C1136411   3.750   5.815   6.565  0.3834  0.4115 -0.0658
  201MOL    C1236412   3.699   5.771   6.706  0.6623  0.7442  0.0744
  201MOL    C1336413   3.784   5.825   6.826 -0.9906 -0.6325 -1.1470
  201MOL    H1436414   3.787   5.916   6.580 -0.9356  1.3353 -2.6413
  201MOL    H1536415   3.664   5.829   6.499 -0.9562  0.1731  1.5781
  201MOL    H1636416   3.713   5.664   6.720  2.4049  1.1585  1.7283
  201MOL    H1736417   3.761   5.759   6.910 -1.0661 -0.1357 -0.7741
  201MOL    H1836418   3.892   5.829   6.815 -0.8243  2.3737  0.9386
  201MOL    H1936419   3.757   5.928   6.849  1.1825 -0.2307 -0.2750
  201MOL    C2036420   3.552   5.799   6.729  0.3672 -0.2054 -0.4292
  201MOL    C2136421   3.449   5.733   6.637 -0.4812  0.4291 -0.5298
  201MOL    C2236422   3.441   5.584   6.667 -0.0157  0.0934 -0.2997
  201MOL    H2336423   3.542   5.780   6.836  0.6745  1.2637 -0.1178
  201MOL    H2436424   3.544   5.907   6.716 -4.1614 -0.7006 -2.7704
  201MOL    H2536425   3.491   5.744   6.537 -0.5721  2.3875 -0.3609
  201MOL    H2636426   3.356   5.534   6.621 -1.9405 -1.1315  4.2289
  201MOL    H2736427   3.534   5.536   6.637 -0.4586  0.3098 -2.0861
  201MOL    H2836428   3.430   5.568   6.774  1.7765  3.0943  0.4105
  201MOL    C2936429   3.310   5.799   6.656 -0.1935 -0.2421  0.0861
  201MOL    C3036430   3.208   5.760   6.547 -0.0751  0.4912 -0.7166
  201MOL    C3136431   3.073   5.822   6.582 -0.7740  0.3106 -0.5086
  201MOL    H3236432   3.272   5.768   6.753 -0.2622  4.0326  1.5435
  201MOL    H3336433   3.319   5.908   6.655 -1.3058 -0.1548 -2.9786
  201MOL    H3436434   3.192   5.653   6.563 -1.0695  0.8836  1.0242
  201MOL    H3536435   3.067   5.930   6.565  1.5555  0.6736  0.7253
  201MOL    H3636436   2.991   5.771   6.530 -1.1863 -0.5367  0.9262
  201MOL    H3736437   3.051   5.804   6.688  0.7108  1.7531  0.0646
  201MOL    C3836438   3.249   5.790   6.403  0.4574  0.6851 -0.3430
  201MOL    C3936439   3.176   5.703   6.296 -0.5469 -0.1150  0.1575
  201MOL    C4036440   3.150   5.774   6.167  0.1650  0.2738 -0.5325
  201MOL    H4136441   3.253   5.896   6.377  0.7062  1.3212  2.1285
  201MOL    H4236442   3.346   5.741   6.390 -0.1586 -1.2237  1.8274
  201MOL    H4336443   3.074   5.686   6.329 -0.7876  0.7662 -0.1329
  201MOL    H4436444   3.083   5.716   6.103 -0.1772  0.3614 -0.2539
  201MOL    H4536445   3.115   5.874   6.192  1.1912  0.6340 -0.5158
  201MOL    H4636446   3.249   5.778   6.123 -0.0093 -1.7897 -1.1790
  201MOL    C4736447   3.225   5.554   6.276 -0.0212 -0.2538 -0.0871
  201MOL    C4836448   3.121   5.447   6.229 -0.7863  0.1947  0.5106
  201MOL    C4936449   3.186   5.316   6.174 -0.3497 -0.2714  0.0718
  201MOL    H5036450   3.311   5.551   6.208 -0.1187 -0.9131 -0.1806
  201MOL    H5136451   3.273   5.514   6.366 -1.0981 -1.4749 -0.0457
  201MOL    H5236452   3.079   5.491   6.139  2.6170  3.4190  0.4013
  201MOL    H5336453   3.241   5.253   6.245 -0.8699 -1.8951 -0.9399
  201MOL    H5436454   3.119   5.246   6.125 -1.9363  0.8645  0.5557
  201MOL    H5536455   3.262   5.336   6.098  1.4725  1.5410  2.2828
  201MOL    C5636456   3.015   5.409   6.339  0.1396 -0.1400 -0.4142
  201MOL    C5736457   2.861   5.435   6.297 -0.3134  0.3771 -0.5720
  201MOL    C5836458   2.812   5.332   6.188 -0.2426  0.0060  0.1748
  201MOL    H5936459   3.033   5.311   6.383 -0.0106 -0.0260 -0.1041
  201MOL    H6036460   3.032   5.473   6.426  1.1997  0.6620 -1.1983
  201MOL    H6136461   2.850   5.523   6.234  0.6090 -0.5189 -2.0089
  201MOL    H6236462   2.861   5.365   6.096 -1.5972  0.9606 -0.2278
  201MOL    H6336463   2.836   5.230   6.217  0.3977 -0.7021 -2.6900
  201MOL    H6436464   2.707   5.333   6.156 -0.6845  1.1489  1.5984
  201MOL    C6536465   2.764   5.433   6.420 -0.1661  0.4527  0.4250
  201MOL    C6636466   2.769   5.552   6.523 -0.2467 -0.6317  0.0572
  201MOL    C6736467   2.731   5.682   6.441 -0.3274  0.0498 -0.2528
  201MOL    H6836468   2.657   5.430   6.397 -0.8417  0.1770  3.3651
  201MOL    H6936469   2.790   5.345   6.479  1.5075  0.9752  0.4982
  201MOL    H7036470   2.869   5.574   6.560 -0.0404  1.3258 -1.5786
  201MOL    H7136471   2.626   5.680   6.411 -0.0303 -4.0365 -1.3731
  201MOL    H7236472   2.743   5.771   6.503  1.4146  0.6063 -1.3733
  201MOL    H7336473   2.796   5.682   6.354 -0.2699 -0.7361 -0.2164
  201MOL    C7436474   2.665   5.556   6.635 -0.1624  0.1181 -0.1116
  201MOL    C7536475   2.686   5.449   6.747  0.0139 -1.0630  0.8668
  201MOL    C7636476   2.799   5.491   6.840  0.6276  0.3563 -0.2663
  201MOL    H7736477   2.669   5.655   6.679 -2.3763  1.1317 -2.1116
  201MOL    H7836478   2.566   5.548   6.590 -1.4809  0.6514  2.5664
  201MOL    H7936479   2.701   5.354   6.696  0.0930 -1.3998  1.5177
  201MOL    H8036480   2.838   5.417   6.910 -0.4232 -0.1832 -0.2314
  201MOL    H8136481   2.884   5.518   6.778  1.6120 -0.7600  0.5686
  201MOL    H8236482   2.777   5.580   6.899  0.9555 -0.2726  0.8139
  201MOL    C8336483   2.562   5.438   6.835  0.0224 -0.2662  0.3130
  201MOL    C8436484   2.440   5.355   6.778  0.6243  0.2373 -0.6130
  201MOL    C8536485   2.479   5.211   6.729  0.1140 -0.0050 -0.4211
  201MOL    H8636486   2.594   5.376   6.919 -0.2476  0.0204  0.6262
  201MOL    H8736487   2.531   5.536   6.872 -0.8822 -0.5960  0.4269
  201MOL    H8836488   2.397   5.408   6.693 -0.1579  1.4343  0.5144
  201MOL    H8936489   2.402   5.149   6.682 -1.7452 -0.0957  2.6302
  201MOL    H9036490   2.553   5.220   6.650  1.5290 -2.7594  0.5216
  201MOL    H9136491   2.536   5.153   6.801 -0.4528 -0.4350 -0.3109
  201MOL    C9236492   2.326   5.350   6.875 -0.7390  0.0407 -0.2836
  201MOL    C9336493   2.187   5.415   6.831  0.2967  0.0435 -0.1889
  201MOL    C9436494   2.088   5.371   6.945  0.6099  0.0786 -0.5349
  201MOL    H9536495   2.303   5.245   6.894 -2.4019  0.5134  0.3550
  201MOL    H9636496   2.362   5.396   6.967 -0.0581  1.3937 -1.2044
  201MOL    H9736497   2.164   5.362   6.739  0.1925  0.6523 -0.5175
  201MOL    H9836498   1.994   5.425   6.957 -0.6392 -2.4083  1.3032
  201MOL    H9936499   2.060   5.269   6.918  1.2449  0.6434 -3.5503
  201MOL   H10036500   2.112   5.369   7.051 -1.7615 -0.1169  0.0286
  201MOL   C10136501   2.192   5.570   6.814 -0.3099 -0.4841  0.0099
  201MOL   C10236502   2.128   5.628   6.691  0.5545  1.0252  0.5124
  201MOL   C10336503   2.218   5.606   6.568 -0.6486 -0.0155  0.2293
  201MOL   H10436504   2.141   5.620   6.896 -0.2061 -1.6514  0.7967
  201MOL   H10536505   2.289   5.619   6.804  0.0847 -1.2612 -0.0789
  201MOL   H10636506   2.121   5.737   6.697 -0.8390  0.9469  0.4455
  201MOL   H10736507   2.197   5.678   6.489  0.2762 -0.3259 -0.3141
  201MOL   H10836508   2.324   5.627   6.584 -0.2936 -1.1613 -0.5263
  201MOL   H10936509   2.215   5.508   6.520 -1.1535  0.9736 -1.8176
  201MOL   C11036510   1.984   5.563   6.666  0.0188 -0.3549 -0.6183
  201MOL   C11136511   1.910   5.612   6.541 -0.3099 -0.0972 -0.0183
  201MOL   C11236512   1.799   5.519   6.512 -0.2650 -0.2084 -0.9157
  201MOL   H11336513   1.994   5.454   6.657  1.0703 -0.2327 -0.9482
  201MOL   H11436514   1.916   5.591   6.746 -1.9389 -1.5161 -1.8256
  201MOL   H11536515   1.983   5.599   6.461 -0.5931  0.0515 -0.3011
  201MOL   H11636516   1.731   5.562   6.438 -1.2703  1.3350  0.8350
  201MOL   H11736517   1.837   5.435   6.454  1.1170  1.1596 -2.0388
  201MOL   H11836518   1.736   5.495   6.598  2.3288 -2.7835  0.3206
  201MOL   C11936519   1.882   5.766   6.546  0.1572 -0.6578  0.1771
  201MOL   C12036520   1.790   5.813   6.656 -0.4942  0.2218  0.1572
  201MOL   C12136521   1.865   5.903   6.756 -0.0277  0.5689  0.0730
  201MOL   H12236522   1.973   5.826   6.551 -0.8505  0.8527  0.8856
  201MOL   H12336523   1.837   5.800   6.453 -0.2794 -0.0690  0.6008
  201MOL   H12436524   1.756   5.722   6.707 -0.2932 -1.0382 -1.9066
  201MOL   H12536525   1.805   5.965   6.823 -2.6559 -0.8211 -0.9207
  201MOL   H12636526   1.941   5.845   6.808  0.8476  0.5954 -1.1436
  201MOL   H12736527   1.904   5.974   6.683  0.7373 -0.5883 -0.6657
  201MOL   C12836528   1.654   5.877   6.599 -0.4295 -0.2070 -0.1628
  201MOL   C12936529   1.540   5.855   6.710  0.1771 -0.3541 -0.2476
  201MOL   C13036530   1.420   5.959   6.690 -0.3131  0.4531 -0.1765
  201MOL   H13136531   1.677   5.983   6.586  2.3992 -0.6641  0.8462
  201MOL   H13236532   1.612   5.843   6.504 -0.1381  3.1076 -1.5482
  201MOL   H13336533   1.587   5.892   6.801 -0.4248 -1.2171  0.4205
  201MOL   H13436534   1.384   5.968   6.588 -1.6859  2.2255  0.4513
  201MOL   H13536535   1.334   5.933   6.752 -0.1177 -1.1247 -0.5500
  201MOL   H13636536   1.443   6.060   6.725  2.7677  0.0001 -0.7078
  201MOL   C13736537   1.487   5.704   6.722 -0.8100 -0.1777 -0.2860
  201MOL   C13836538   1.486   5.646   6.865  0.7177 -0.2634  0.3832
  201MOL   C13936539   1.413   5.509   6.867  0.1497  0.9190  0.5365
  201MOL   H14036540   1.388   5.689   6.677 -0.8584 -0.0959 -0.2064
  201MOL   H14136541   1.545   5.640   6.655  1.0120  1.0361  0.1164
  201MOL   H14236542   1.414   5.712   6.913  0.6138 -0.5990  0.6929
  201MOL   H14336543   1.382   5.480   6.967 -2.2887  0.1501 -0.4015
  201MOL   H14436544   1.317   5.526   6.817  0.1485  0.0973  0.2484
  201MOL   H14536545   1.453   5.428   6.806  1.5286  0.5795  1.8730
  201MOL   C14636546   1.622   5.646   6.939  0.5561 -0.8046 -0.1056
  201MOL   C14736547   1.631   5.619   7.092  0.0715  0.1100  0.1656
  201MOL   C14836548   1.645   5.468   7.130  0.7944 -0.2050 -0.3434
  201MOL   H14936549   1.684   5.574   6.886 -0.6443  0.6353 -3.6197
  201MOL   H15036550   1.674   5.741   6.920  1.5606 -1.7972 -2.6264
  201MOL   H15136551   1.540   5.651   7.143  0.0422  0.3602 -0.0371
  201MOL   H15236552   1.690   5.456   7.228 -0.0342 -1.5549 -0.1116
  201MOL   H15336553   1.549   5.417   7.122  0.4922  0.5124 -1.5295
  201MOL   H15436554   1.709   5.421   7.056  0.7178 -1.6082  0.4760
  201MOL   C15536555   1.755   5.697   7.150  0.6009  0.2463 -0.1956
  201MOL   C15636556   1.744   5.844   7.162  0.3228 -0.4471  0.2751
  201MOL   C15736557   1.665   5.879   7.286  0.0436 -0.3806 -0.3639
  201MOL   H15836558   1.774   5.665   7.252 -2.3763  2.9792  1.3036
  201MOL   H15936559   1.847   5.664   7.102  0.5373  1.6183 -1.2991
  201MOL   H16036560   1.690   5.890   7.080  0.4544  1.0146  0.9913
  201MOL   H16136561   1.643   5.985   7.273  1.1851 -0.0269  0.5304
  201MOL   H16236562   1.565   5.836   7.293  0.0590 -0.8478 -2.5926
  201MOL   H16336563   1.723   5.880   7.378 -0.4715 -0.1689 -0.0359
  201MOL   C16436564   1.895   5.893   7.156 -0.4805  0.1904  0.1697
  201MOL   C16536565   1.916   6.048   7.179  0.1834 -0.0843  0.1963
  201MOL   C16636566   2.065   6.093   7.190  0.0274 -0.3594 -0.1312
  201MOL   H16736567   1.953   5.831   7.224  1.0178 -1.1488 -2.2357
  201MOL   H16836568   1.929   5.873   7.054  1.0697 -0.8252  0.8768
  201MOL   H16936569   1.871   6.085   7.271  0.8551  0.8278  0.1691
  201MOL   H17036570   2.070   6.194   7.231  3.3468 -0.2629 -0.6515
  201MOL   H17136571   2.128   6.026   7.248  1.6846  0.4548 -0.9747
  201MOL   H17236572   2.124   6.114   7.101 -0.6998 -0.3836 -0.6193
  201MOL   C17336573   1.844   6.129   7.067  0.4051 -0.0817  0.3472
  201MOL   C17436574   1.789   6.266   7.117 -0.2513  0.1350  0.8100
  201MOL   C17536575   1.656   6.260   7.185  0.6166  0.5071  0.4158
  201MOL   H17636576   1.916   6.150   6.987  0.9526 -0.7212  0.6668
  201MOL   H17736577   1.774   6.073   7.004  0.5158  1.4956 -1.2416
  201MOL   H17836578   1.775   6.328   7.029  0.4328 -0.2715  0.4108
  201MOL   H17936579   1.582   6.199   7.134  0.7326 -0.8113  1.7843
  201MOL   H18036580   1.676   6.221   7.285  0.7025 -0.0449  0.1879
  201MOL   H18136581   1.615   6.357   7.214  2.5502  1.9768 -1.5843
  201MOL   H18236582   1.860   6.315   7.185  0.8775 -0.7270  0.2645
  202MOL     C136583   0.021   4.800   2.341 -0.0333 -0.5626 -0.1927
  202MOL     C236584   7.662   4.941   2.300 -0.9447  0.1381 -0.2743
  202MOL     C336585   0.060   5.057   2.343  0.4896  0.0147 -0.5603
  202MOL     H436586   7.648   4.723   2.310  1.5257 -2.1278  0.1099
  202MOL     H536587   0.043   4.798   2.447 -1.2884  1.2646  0.1213
  202MOL     H636588   7.562   4.953   2.340 -0.5308  0.0224  0.8272
  202MOL     H736589   0.041   5.089   2.446  0.0585  0.3555 -0.7390
  202MOL     H836590   0.157   5.009   2.342  0.4431 -0.3870  3.5100
  202MOL     H936591   0.062   5.138   2.270 -1.8195 -0.0272 -0.7140
  202MOL    H1036592   0.113   4.789   2.283 -0.0468 -0.1975 -0.2876
  202MOL    C1136593   7.626   4.928   2.150  0.5169 -0.0797  0.0750
  202MOL    C1236594   7.510   4.824   2.117  0.0006  0.2867 -0.3344
  202MOL    C1336595   7.374   4.866   2.176  0.0824 -0.6988 -0.8012
  202MOL    H1436596   7.607   5.026   2.107  0.7654  0.4157  1.0944
  202MOL    H1536597   0.022   4.900   2.102 -0.0840  0.5005 -1.4629
  202MOL    H1636598   7.534   4.721   2.145 -1.2944  0.3054  0.9334
  202MOL    H1736599   7.373   4.849   2.283  0.0826 -0.8319 -0.8231
  202MOL    H1836600   7.369   4.974   2.164 -1.8927 -0.5953  0.7813
  202MOL    H1936601   7.285   4.829   2.126 -1.9383  2.5558  0.2331
  202MOL    C2036602   7.484   4.825   1.970  0.1465  0.5319 -0.5744
  202MOL    C2136603   7.607   4.801   1.875  0.2073  0.7024  0.3411
  202MOL    C2236604   0.001   4.681   1.908  0.3093  0.0022 -0.3718
  202MOL    H2336605   7.396   4.765   1.945  0.3800 -0.2196  0.3871
  202MOL    H2436606   7.452   4.924   1.937 -1.5571  0.4598  0.7579
  202MOL    H2536607   7.658   4.897   1.863  0.8641  0.1736 -1.3453
  202MOL    H2636608   7.646   4.606   1.968 -1.3574  0.5896 -1.0767
  202MOL    H2736609   0.048   4.624   1.827  0.8736  0.1092 -0.1211
  202MOL    H2836610   0.081   4.713   1.974  0.5587 -0.8657 -0.2467
  202MOL    C2936611   7.545   4.774   1.734  0.5770  0.5121 -0.0149
  202MOL    C3036612   7.640   4.764   1.612  0.0874  0.7310 -0.2252
  202MOL    C3136613   7.606   4.633   1.536 -0.5116 -0.7464 -0.4693
  202MOL    H3236614   7.486   4.682   1.743 -2.9400  2.4770 -1.7284
  202MOL    H3336615   7.469   4.846   1.704 -1.1078 -1.4926 -0.7500
  202MOL    H3436616   0.044   4.766   1.652  1.6309  1.6207 -4.0423
  202MOL    H3536617   7.500   4.609   1.537 -0.8174  0.5434 -1.2209
  202MOL    H3636618   7.647   4.633   1.435  0.1496 -1.5505 -0.2124
  202MOL    H3736619   7.667   4.559   1.589 -0.0549 -1.0609 -1.4063
  202MOL    C3836620   7.630   4.879   1.513  0.8156  0.0988  0.0200
  202MOL    C3936621   7.675   5.018   1.561 -0.0099  0.4731 -0.3182
  202MOL    C4036622   0.127   5.024   1.593 -0.8579  0.1338 -0.9442
  202MOL    H4136623   7.685   4.854   1.422  1.1096 -1.7567  0.6829
  202MOL    H4236624   7.524   4.882   1.488 -0.3464 -2.5383  4.0733
  202MOL    H4336625   7.636   5.053   1.656  2.4686  0.6849  0.6562
  202MOL    H4436626   0.187   5.023   1.502  0.5862  0.1939  0.0022
  202MOL    H4536627   0.165   5.112   1.644 -3.4805  0.3794  0.6807
  202MOL    H4636628   0.151   4.944   1.663 -1.6872  1.5315  0.9572
  202MOL    C4736629   7.649   5.117   1.442  0.2835 -0.4594 -0.3180
  202MOL    C4836630   7.495   5.168   1.426  0.1069  0.8344  0.1655
  202MOL    C4936631   7.451   5.238   1.561 -0.6468  0.1848  0.8072
  202MOL    H5036632   0.005   5.211   1.453 -1.4478  0.2778  2.1718
  202MOL    H5136633   0.002   5.097   1.347  1.0270  0.2369 -0.0720
  202MOL    H5236634   7.430   5.081   1.425 -1.5639  2.0359  1.7650
  202MOL    H5336635   7.349   5.276   1.555 -0.7720 -0.1262  0.9397
  202MOL    H5436636   7.454   5.173   1.649 -1.3640 -0.6754  0.2021
  202MOL    H5536637   7.520   5.318   1.588 -1.7119  1.6430 -0.7119
  202MOL    C5636638   7.479   5.258   1.304  0.2710  0.1955  0.2436
  202MOL    C5736639   7.509   5.205   1.159 -0.3043 -0.1278 -0.9756
  202MOL    C5836640   7.421   5.088   1.138 -0.5396 -0.0085 -0.1474
  202MOL    H5936641   7.378   5.300   1.304  0.0800 -0.2638 -0.1372
  202MOL    H6036642   7.546   5.342   1.318 -0.3747  0.8558 -0.5549
  202MOL    H6136643   7.614   5.178   1.146 -0.2502 -0.9922  0.9536
  202MOL    H6236644   7.412   5.078   1.030 -1.3212 -1.0203 -0.0015
  202MOL    H6336645   7.457   4.995   1.181  3.2082  1.7723  0.7747
  202MOL    H6436646   7.317   5.104   1.168 -0.3707 -0.8419  0.9127
  202MOL    C6536647   7.479   5.306   1.048  0.2605  0.1372 -0.5425
  202MOL    C6636648   7.559   5.436   1.056  0.0654  0.0695  0.3896
  202MOL    C6736649   0.003   5.430   1.012  0.4461 -0.2615 -0.4921
  202MOL    H6836650   7.504   5.252   0.956  1.6683 -1.1608  0.5792
  202MOL    H6936651   7.372   5.316   1.031  0.1813 -0.6408 -0.5308
  202MOL    H7036652   7.566   5.473   1.158  0.9603  0.3446  0.2324
  202MOL    H7136653   0.051   5.528   1.012 -1.6197  0.7815  0.4230
  202MOL    H7236654   0.065   5.358   1.065 -0.9793  0.8552  2.8045
  202MOL    H7336655   0.003   5.392   0.910 -0.0376  0.4454 -0.7562
  202MOL    C7436656   7.488   5.543   0.978  0.2178 -0.3512  0.2452
  202MOL    C7536657   7.355   5.599   1.040  0.6662 -0.0838 -0.0922
  202MOL    C7636658   7.380   5.667   1.176 -0.4274 -0.4055 -0.4128
  202MOL    H7736659   7.547   5.632   0.957 -0.8586  0.3082 -0.0473
  202MOL    H7836660   7.470   5.502   0.878 -0.2987  1.3214 -0.3542
  202MOL    H7936661   7.286   5.516   1.051  0.5465 -0.0779 -0.7704
  202MOL    H8036662   7.396   5.588   1.250  0.2775 -1.0403 -1.2452
  202MOL    H8136663   7.458   5.743   1.181 -2.4630  1.6183  1.4035
  202MOL    H8236664   7.285   5.716   1.196 -0.1046  1.0570 -2.3463
  202MOL    C8336665   7.304   5.707   0.951  0.1084  0.6155 -0.6271
  202MOL    C8436666   7.214   5.658   0.836  0.2320  0.9433 -0.4844
  202MOL    C8536667   7.087   5.591   0.890 -0.6062 -0.1163  0.0190
  202MOL    H8636668   7.247   5.781   1.007 -1.6127  0.1842 -1.7548
  202MOL    H8736669   7.386   5.762   0.906  0.7846 -0.5705 -0.8558
  202MOL    H8836670   7.264   5.580   0.779 -3.7843 -2.2230  0.0662
  202MOL    H8936671   7.008   5.584   0.815  0.6271  0.0396 -1.3261
  202MOL    H9036672   7.102   5.488   0.923 -0.6571  0.6251  2.4644
  202MOL    H9136673   7.038   5.642   0.973 -1.4968  0.5174 -0.8879
  202MOL    C9236674   7.176   5.766   0.738  0.1577  0.6012 -0.0246
  202MOL    C9336675   7.105   5.725   0.613  0.8486 -0.3228  0.2164
  202MOL    C9436676   6.979   5.810   0.591 -0.4666  0.0603  0.4900
  202MOL    H9536677   7.114   5.839   0.791 -0.2849  0.6239 -0.5661
  202MOL    H9636678   7.274   5.809   0.718  0.3409 -0.0884 -0.6340
  202MOL    H9736679   7.071   5.622   0.625  0.5730 -0.2088  0.4205
  202MOL    H9836680   7.009   5.915   0.585 -1.0984  0.1374 -1.7546
  202MOL    H9936681   6.937   5.798   0.491  1.5911  0.1591 -0.4140
  202MOL   H10036682   6.898   5.781   0.658 -2.1983  4.0833  0.3065
  202MOL   C10136683   7.198   5.733   0.482  0.1263 -0.4241 -0.5224
  202MOL   C10236684   7.309   5.630   0.472 -0.0780  0.5527  0.5857
  202MOL   C10336685   7.247   5.494   0.425 -0.7205 -0.1484  0.5338
  202MOL   H10436686   7.126   5.729   0.400 -0.5000 -0.8766  0.0450
  202MOL   H10536687   7.245   5.831   0.486  2.0315 -1.3431 -0.0436
  202MOL   H10636688   7.353   5.603   0.568  0.9380 -0.4395 -0.1429
  202MOL   H10736689   7.198   5.504   0.328  2.1581  0.6813 -0.8997
  202MOL   H10836690   7.321   5.416   0.409 -0.7923 -0.5168  1.9065
  202MOL   H10936691   7.176   5.453   0.497  2.6463 -3.1218  2.3479
  202MOL   C11036692   7.426   5.676   0.376  0.0742  0.1593 -0.2651
  202MOL   C11136693   7.542   5.575   0.360  0.0225 -0.5228 -0.5013
  202MOL   C11236694   7.629   5.626   0.244 -0.4732  0.1949 -0.3419
  202MOL   H11336695   7.387   5.685   0.275  1.5012  0.4340 -0.8155
  202MOL   H11436696   7.464   5.775   0.400  1.3029 -0.0427 -1.2916
  202MOL   H11536697   7.500   5.482   0.323 -1.7920  0.7762 -1.7996
  202MOL   H11636698   7.587   5.638   0.144 -1.1439 -1.0907 -0.2286
  202MOL   H11736699   7.685   5.717   0.267 -1.3429  0.8417 -0.7195
  202MOL   H11836700   0.001   5.546   0.219  0.6258  0.4902  1.7068
  202MOL   C11936701   7.624   5.564   0.498 -0.6160  0.5179  0.0881
  202MOL   C12036702   0.025   5.447   0.502  0.5788 -0.2245 -0.3889
  202MOL   C12136703   0.123   5.457   0.612 -0.2310 -0.1615  0.6101
  202MOL   H12236704   7.684   5.652   0.522  0.5322 -0.3891  0.5453
  202MOL   H12336705   7.556   5.545   0.581 -0.8511 -0.5598 -0.3442
  202MOL   H12436706   0.076   5.443   0.406 -0.9054  0.2551 -1.2213
  202MOL   H12536707   0.170   5.359   0.618 -0.5409 -0.5374 -2.5116
  202MOL   H12636708   0.197   5.531   0.583  0.0919 -1.2727 -1.4399
  202MOL   H12736709   0.078   5.479   0.710 -1.7899  0.1486 -0.1589
  202MOL   C12836710   7.642   5.316   0.534  0.3659  0.1038 -0.3199
  202MOL   C12936711   0.022   5.184   0.526  0.2411  0.1543 -0.7256
  202MOL   C13036712   7.634   5.081   0.598 -0.6828  0.0802  0.0522
  202MOL   H13136713   7.608   5.335   0.636 -0.3685  0.7165 -0.6681
  202MOL   H13236714   7.549   5.308   0.478  0.6799 -1.8468 -0.5992
  202MOL   H13336715   0.118   5.182   0.579  0.8513 -0.3792 -1.8309
  202MOL   H13436716   7.544   5.051   0.546 -0.8476  1.0635 -0.2370
  202MOL   H13536717   7.690   4.990   0.623 -0.9252  0.0621  0.5314
  202MOL   H13636718   7.607   5.112   0.699  0.1474 -1.1172  0.6576
  202MOL   C13736719   0.022   5.142   0.372 -0.2752  0.8129 -0.1529
  202MOL   C13836720   0.096   5.012   0.328 -0.4548 -0.4207 -0.3435
  202MOL   C13936721   0.084   5.019   0.170 -0.3787 -0.5467  0.2913
  202MOL   H14036722   7.619   5.140   0.332 -1.4405 -3.4907  2.6305
  202MOL   H14136723   0.074   5.223   0.322  0.3653  1.6604  1.8263
  202MOL   H14236724   0.042   4.921   0.352 -2.5100  1.4563  2.4751
  202MOL   H14336725   0.147   5.101   0.136 -1.8971  0.3206 -0.4868
  202MOL   H14436726   0.117   4.930   0.116  1.0881 -0.7277  1.4281
  202MOL   H14536727   7.684   5.040   0.128  1.1386 -0.1523 -3.1811
  202MOL   C14636728   0.241   5.003   0.383  0.2542  0.4252 -0.3482
  202MOL   C14736729   0.306   4.865   0.374 -0.8108 -0.6574 -0.3234
  202MOL   C14836730   0.456   4.874   0.397 -0.0188  0.1577 -0.1921
  202MOL   H14936731   0.305   5.076   0.332 -0.6732  0.6812 -1.1583
  202MOL   H15036732   0.242   5.041   0.485 -1.4100 -1.9996  0.6043
  202MOL   H15136733   0.276   4.833   0.274 -0.0924  0.9944 -1.0821
  202MOL   H15236734   0.509   4.783   0.367  1.3718  0.1848  2.1020
  202MOL   H15336735   0.497   4.952   0.332 -1.7122 -0.0979 -1.6077
  202MOL   H15436736   0.496   4.896   0.496 -1.6670 -1.3183  0.8209
  202MOL   C15536737   0.254   4.762   0.472  0.1769 -0.4214 -0.0798
  202MOL   C15636738   0.196   4.632   0.411  0.2029  0.1496 -0.0713
  202MOL   C15736739   0.305   4.531   0.367 -0.0960  0.0482  0.3098
  202MOL   H15836740   0.322   4.743   0.555  3.0489 -1.6586 -2.6057
  202MOL   H15936741   0.173   4.812   0.525 -0.9275  0.4152 -2.5119
  202MOL   H16036742   0.143   4.657   0.320 -1.5719  0.4207  1.0167
  202MOL   H16136743   0.372   4.591   0.305 -1.2409  1.4036  0.3724
  202MOL   H16236744   0.363   4.496   0.453 -0.6095 -0.6259  0.3896
  202MOL   H16336745   0.264   4.450   0.306 -0.2480  1.0659 -0.9533
  202MOL   C16436746   0.094   4.567   0.509  0.1424  0.4010  0.1529
  202MOL   C16536747   7.643   4.624   0.486  0.1877  0.4425  0.2776
  202MOL   C16636748   7.566   4.548   0.383 -0.0604  0.7285 -1.0957
  202MOL   H16736749   0.095   4.460   0.487 -2.3141  0.2968  0.3591
  202MOL   H16836750   0.140   4.581   0.607 -1.2768  0.1543  0.8808
  202MOL   H16936751   7.651   4.727   0.452  0.4689  0.4127  0.2480
  202MOL   H17036752   7.488   4.613   0.344 -2.0592 -0.0425  1.4488
  202MOL   H17136753   7.634   4.510   0.307  0.5174 -1.2025  0.3487
  202MOL   H17236754   7.523   4.457   0.424 -0.1093  1.4226  0.4575
  202MOL   C17336755   7.557   4.639   0.617 -0.3975 -0.7080  0.4239
  202MOL   C17436756   7.431   4.736   0.606  0.1590  0.6751 -0.3757
  202MOL   C17536757   7.388   4.760   0.745  0.1182 -0.0635  0.2431
  202MOL   H17636758   7.545   4.541   0.662  1.9859 -0.4642  1.6878
  202MOL   H17736759   7.625   4.690   0.686  0.4899  0.7379 -1.4683
  202MOL   H17836760   7.362   4.686   0.540 -0.9447  2.0589 -0.2856
  202MOL   H17936761   7.299   4.822   0.756 -0.7536 -1.2582  0.0758
  202MOL   H18036762   7.364   4.667   0.795 -0.4958  0.2843  0.5947
  202MOL   H18136763   7.470   4.803   0.801  0.9414 -1.9673  0.5487
  202MOL   H18236764   7.446   4.837   0.568  0.7032  0.9433  0.5189
  203MOL     C136765   4.000   6.593   2.341  0.3189  0.1722 -0.0077
  203MOL     C236766   4.003   6.725   2.270  0.5721 -0.4922 -0.8440
  203MOL     C336767   4.001   6.837   2.371  0.1631  0.3905 -0.2164
  203MOL     H436768   3.911   6.590   2.405 -1.4854  1.3999 -2.3963
  203MOL     H536769   4.087   6.576   2.404  0.6388  0.7767 -0.2846
  203MOL     H636770   3.911   6.738   2.213  1.9244  0.5366 -2.8605
  203MOL     H736771   3.905   6.870   2.411  0.1633  2.0392 -1.5042
  203MOL     H836772   4.056   6.803   2.458 -0.5364 -1.0974 -0.3438
  203MOL     H936773   4.048   6.930   2.337  1.6466  0.1231  1.0327
  203MOL    H1036774   3.995   6.505   2.277  1.2406 -0.5300  0.8607
  203MOL    C1136775   4.132   6.742   2.178 -0.1810 -0.4511 -0.2864
  203MOL    C1236776   4.155   6.658   2.047 -0.7880 -0.4196  0.1859
  203MOL    C1336777   4.041   6.685   1.954  0.6412  0.0826  0.3450
  203MOL    H1436778   4.133   6.847   2.147  3.2933 -0.4229 -0.3005
  203MOL    H1536779   4.226   6.735   2.233 -0.7675 -0.1921  0.7655
  203MOL    H1636780   4.142   6.555   2.083  1.4870 -0.5765  0.6272
  203MOL    H1736781   3.942   6.674   1.996  0.7415 -0.1274  0.5225
  203MOL    H1836782   4.037   6.790   1.923  2.5394  0.7095  2.1148
  203MOL    H1936783   4.042   6.616   1.870  2.3448  2.8229 -2.0178
  203MOL    C2036784   4.301   6.674   1.990  0.1964  0.9772 -0.2644
  203MOL    C2136785   4.336   6.558   1.891  0.6085 -0.2044 -0.2048
  203MOL    C2236786   4.486   6.586   1.856  0.5748 -0.1381  0.2348
  203MOL    H2336787   4.329   6.772   1.954  0.9955  1.7554  2.3902
  203MOL    H2436788   4.373   6.662   2.071  1.3962  2.4292 -1.1064
  203MOL    H2536789   4.267   6.557   1.807  0.4045  0.6851 -0.0617
  203MOL    H2636790   4.504   6.683   1.811  0.0058 -1.1619 -2.2594
  203MOL    H2736791   4.541   6.580   1.951  2.1814  1.2505 -0.5701
  203MOL    H2836792   4.517   6.516   1.779  0.3078  0.4852 -0.4389
  203MOL    C2936793   4.325   6.416   1.959  0.0199 -0.1425  0.8574
  203MOL    C3036794   4.356   6.297   1.866 -0.5913 -0.1152  0.8105
  203MOL    C3136795   4.361   6.169   1.946 -0.4867 -0.4302  0.1295
  203MOL    H3236796   4.381   6.413   2.052  2.3014  0.2755 -0.4522
  203MOL    H3336797   4.220   6.393   1.979 -0.3279 -1.2910 -2.0633
  203MOL    H3436798   4.457   6.312   1.828 -1.0702  2.6987  0.5289
  203MOL    H3536799   4.403   6.085   1.891  0.6689 -0.2789  0.7657
  203MOL    H3636800   4.438   6.172   2.023  0.2874 -3.3002 -0.4615
  203MOL    H3736801   4.267   6.127   1.984  0.8911 -3.4726  0.3378
  203MOL    C3836802   4.264   6.288   1.741  0.4114 -0.1209  0.6637
  203MOL    C3936803   4.285   6.164   1.653  0.2439 -0.1807  0.3798
  203MOL    C4036804   4.185   6.173   1.532  0.4486  0.3057  0.2188
  203MOL    H4136805   4.159   6.281   1.769 -0.4227  1.9327 -1.7485
  203MOL    H4236806   4.267   6.382   1.687 -0.9334  0.3513  1.3841
  203MOL    H4336807   4.254   6.074   1.705 -0.5904  0.0895  0.3520
  203MOL    H4436808   4.210   6.241   1.450  1.9148 -1.0887 -0.5233
  203MOL    H4536809   4.152   6.081   1.485 -0.3871  0.5788  0.2739
  203MOL    H4636810   4.087   6.215   1.555 -0.1895 -0.2906 -1.3087
  203MOL    C4736811   4.425   6.150   1.601 -0.5457  0.1970  0.4866
  203MOL    C4836812   4.445   6.053   1.485  0.1709  0.0949 -0.1912
  203MOL    C4936813   4.594   6.061   1.429 -0.0623  0.3774  0.0544
  203MOL    H5036814   4.462   6.248   1.571 -2.0606  0.3891 -0.8120
  203MOL    H5136815   4.493   6.113   1.678 -0.8073 -0.5135  0.3842
  203MOL    H5236816   4.385   6.087   1.401  1.7446  0.0584 -1.3759
  203MOL    H5336817   4.670   6.025   1.499  0.7503  2.3826  0.2625
  203MOL    H5436818   4.598   5.999   1.340  0.9912 -0.5101  0.6981
  203MOL    H5536819   4.624   6.159   1.392  0.4515  0.8100  1.5665
  203MOL    C5636820   4.392   5.909   1.518  0.2818  0.7069  1.0249
  203MOL    C5736821   4.361   5.812   1.401  0.4626  0.1217 -0.3189
  203MOL    C5836822   4.298   5.879   1.282  0.6191 -0.3425  0.4423
  203MOL    H5936823   4.450   5.852   1.590 -0.2716 -2.5692 -1.0424
  203MOL    H6036824   4.291   5.921   1.556 -0.4254  1.3915 -0.9862
  203MOL    H6136825   4.298   5.735   1.444  0.7415 -0.6215 -1.2301
  203MOL    H6236826   4.276   5.805   1.205  0.1733 -0.4679  0.6892
  203MOL    H6336827   4.215   5.948   1.299  1.3339  0.7443 -0.3805
  203MOL    H6436828   4.377   5.935   1.231 -0.5236 -0.4321 -1.4984
  203MOL    C6536829   4.484   5.731   1.354 -0.5302  0.4554  0.1537
  203MOL    C6636830   4.583   5.646   1.448 -0.3711  0.3472  0.7061
  203MOL    C6736831   4.501   5.542   1.538  0.4305 -0.5892  0.3424
  203MOL    H6836832   4.453   5.650   1.288 -1.7695  0.0629  1.1819
  203MOL    H6936833   4.545   5.788   1.285 -1.5777  0.9298 -0.3942
  203MOL    H7036834   4.641   5.722   1.501 -0.5546  1.2705 -0.3912
  203MOL    H7136835   4.442   5.470   1.482 -0.8754  0.1314  0.7763
  203MOL    H7236836   4.571   5.483   1.597  1.4180  1.5449  1.3780
  203MOL    H7336837   4.435   5.592   1.608 -0.4618 -0.9330 -0.2489
  203MOL    C7436838   4.687   5.570   1.367  0.3293  0.2913  0.8562
  203MOL    C7536839   4.773   5.646   1.258  0.0810 -0.2220  0.0864
  203MOL    C7636840   4.834   5.780   1.315  0.6180 -0.3038 -0.2095
  203MOL    H7736841   4.758   5.524   1.436  0.8755 -1.0768 -0.5878
  203MOL    H7836842   4.644   5.487   1.310  1.6025  0.7250 -0.7592
  203MOL    H7936843   4.717   5.676   1.169  0.3849  2.5976  0.7828
  203MOL    H8036844   4.898   5.753   1.399 -0.0471 -0.5929  0.2046
  203MOL    H8136845   4.903   5.820   1.240 -2.2332  3.2537 -1.0361
  203MOL    H8236846   4.759   5.857   1.333  0.6423 -0.0494 -1.1344
  203MOL    C8336847   4.892   5.553   1.210  0.7075 -0.6687  0.1546
  203MOL    C8436848   4.854   5.434   1.117  0.3484 -0.5275 -1.1922
  203MOL    C8536849   4.790   5.481   0.987 -0.6638 -0.3831  0.1196
  203MOL    H8636850   4.964   5.608   1.149 -0.6208 -2.0419 -2.8055
  203MOL    H8736851   4.954   5.522   1.294  1.8495 -0.9863 -0.7946
  203MOL    H8836852   4.788   5.368   1.174 -1.1289  0.7469 -1.3867
  203MOL    H8936853   4.688   5.518   0.995 -0.2294  1.3510 -2.0019
  203MOL    H9036854   4.847   5.558   0.937 -2.8341 -0.2322 -2.2227
  203MOL    H9136855   4.776   5.389   0.929  1.3750 -1.3832  1.1732
  203MOL    C9236856   4.993   5.366   1.089 -0.8435  0.6923 -0.0057
  203MOL    C9336857   4.980   5.225   1.020  0.1297 -0.5138 -0.1586
  203MOL    C9436858   5.098   5.192   0.927 -0.3460 -0.2289  0.1578
  203MOL    H9536859   5.042   5.441   1.026 -1.1580 -0.5110 -1.6997
  203MOL    H9636860   5.053   5.362   1.180 -0.4504  0.0240 -0.3007
  203MOL    H9736861   4.894   5.218   0.953 -0.8761  1.3419  0.8832
  203MOL    H9836862   5.128   5.280   0.871  0.0919 -0.0110  0.7353
  203MOL    H9936863   5.187   5.171   0.985  1.6619  3.8432 -1.2664
  203MOL   H10036864   5.091   5.105   0.861  2.5247  0.3134 -0.9125
  203MOL   C10136865   4.960   5.122   1.137  0.1432 -0.5963 -0.0488
  203MOL   C10236866   4.928   4.976   1.081  0.2223  0.1287  0.2106
  203MOL   C10336867   4.997   4.872   1.174  0.5214 -0.3555 -0.5141
  203MOL   H10436868   5.050   5.119   1.200  0.3445  2.0140 -0.1415
  203MOL   H10536869   4.880   5.158   1.202  0.2092 -0.5460  0.0044
  203MOL   H10636870   4.970   4.963   0.982 -1.1958 -1.1295 -0.2512
  203MOL   H10736871   5.104   4.864   1.154  0.4925  0.3174 -0.9486
  203MOL   H10836872   4.975   4.887   1.280  2.6154 -1.5946  0.1203
  203MOL   H10936873   4.957   4.771   1.158 -0.5371  0.1568 -1.1296
  203MOL   C11036874   4.774   4.954   1.074 -0.6223 -0.5086  0.0986
  203MOL   C11136875   4.734   4.847   0.975  0.1864  0.0521  0.6206
  203MOL   C11236876   4.600   4.781   1.013  0.1543  0.4263  0.0883
  203MOL   H11336877   4.748   4.927   1.177 -3.5885 -0.2077 -0.5452
  203MOL   H11436878   4.714   5.042   1.051  1.9103  1.2508  0.0834
  203MOL   H11536879   4.813   4.772   0.980 -0.1208 -0.3295 -0.2000
  203MOL   H11636880   4.518   4.849   1.038 -1.6516 -1.5293 -0.2823
  203MOL   H11736881   4.561   4.703   0.947 -0.7081  0.3578  0.6652
  203MOL   H11836882   4.615   4.724   1.105 -1.4799 -1.0129 -0.4967
  203MOL   C11936883   4.736   4.897   0.830 -0.1243  0.1428 -0.3782
  203MOL   C12036884   4.717   4.786   0.720 -0.3886 -0.4024 -0.3430
  203MOL   C12136885   4.700   4.848   0.588  0.0472 -0.1338 -0.4205
  203MOL   H12236886   4.656   4.969   0.812  1.9949  2.7888  0.4088
  203MOL   H12336887   4.831   4.949   0.814  0.0072  0.3136  0.8857
  203MOL   H12436888   4.617   4.748   0.741 -1.0479  1.9372  1.0155
  203MOL   H12536889   4.605   4.901   0.585  0.2099  0.2160  0.4775
  203MOL   H12636890   4.780   4.919   0.569  0.1401  0.5211  2.1870
  203MOL   H12736891   4.697   4.773   0.509 -0.3093  0.3343 -0.8598
  203MOL   C12836892   4.828   4.674   0.720 -0.2992 -0.2135 -0.2066
  203MOL   C12936893   4.811   4.548   0.625  0.0629  0.2837  0.4267
  203MOL   C13036894   4.911   4.431   0.664  0.5698 -0.1162 -0.1152
  203MOL   H13136895   4.918   4.727   0.688 -0.6718  1.4457  1.3663
  203MOL   H13236896   4.844   4.641   0.823  1.5049  1.3483  0.0486
  203MOL   H13336897   4.842   4.580   0.525 -1.8858 -0.3221 -0.4115
  203MOL   H13436898   4.886   4.394   0.764  1.6055 -3.5183 -1.0323
  203MOL   H13536899   4.887   4.344   0.603 -0.4134 -0.1454  0.2953
  203MOL   H13636900   5.016   4.457   0.673  0.2939  1.2513 -0.6982
  203MOL   C13736901   4.665   4.494   0.625  0.3302 -0.2473 -0.0065
  203MOL   C13836902   4.616   4.413   0.506  0.2276  0.0821  0.5698
  203MOL   C13936903   4.616   4.494   0.371 -0.2534  0.1682  0.5837
  203MOL   H14036904   4.630   4.447   0.716 -1.1243 -0.6735 -0.7753
  203MOL   H14136905   4.597   4.580   0.628  1.5519  0.7298  0.2366
  203MOL   H14236906   4.510   4.404   0.528  0.1694  1.5046  0.8816
  203MOL   H14336907   4.598   4.600   0.388 -1.2771 -0.3649  3.1441
  203MOL   H14436908   4.709   4.501   0.315  0.5397 -0.1915  1.8334
  203MOL   H14536909   4.535   4.452   0.311  0.1183  1.0463 -0.5577
  203MOL   C14636910   4.660   4.272   0.502  0.3092 -0.4490 -0.0578
  203MOL   C14736911   4.556   4.174   0.457 -0.3205  0.2132  0.3956
  203MOL   C14836912   4.620   4.037   0.410 -0.0754  0.1275  0.1364
  203MOL   H14936913   4.750   4.263   0.440  0.2404 -2.1468  0.0605
  203MOL   H15036914   4.703   4.237   0.596 -0.6327  0.1070  0.5793
  203MOL   H15136915   4.520   4.223   0.367 -0.0189 -1.1537 -0.4868
  203MOL   H15236916   4.548   3.990   0.343 -1.4659  0.8313  1.1133
  203MOL   H15336917   4.705   4.055   0.344 -1.8868  1.5011 -1.9172
  203MOL   H15436918   4.649   3.972   0.492  4.9353 -1.5163 -2.7358
  203MOL   C15536919   4.439   4.156   0.566 -0.7619 -0.6562 -0.7953
  203MOL   C15636920   4.322   4.068   0.525  0.1406  0.7019  0.4652
  203MOL   C15736921   4.206   4.099   0.628 -0.1424 -0.3963 -0.0848
  203MOL   H15836922   4.473   4.114   0.661 -2.2076  0.3481  0.2002
  203MOL   H15936923   4.403   4.251   0.607  0.5062 -0.9009  0.9298
  203MOL   H16036924   4.347   3.966   0.552  2.2449  0.8583 -0.7535
  203MOL   H16136925   4.145   4.015   0.663  1.0272 -1.1859  0.1058
  203MOL   H16236926   4.235   4.144   0.723  0.3879  0.6927 -0.7564
  203MOL   H16336927   4.142   4.173   0.582 -0.3504  0.2862  1.2631
  203MOL   C16436928   4.279   4.078   0.379 -0.2027  0.1752 -0.3026
  203MOL   C16536929   4.179   3.982   0.316  0.1480 -0.4549 -0.7552
  203MOL   C16636930   4.129   4.035   0.176 -0.6235 -0.2550  0.5786
  203MOL   H16736931   4.227   4.174   0.369 -1.5835 -0.3840  1.3117
  203MOL   H16836932   4.366   4.083   0.313  2.7773  1.1823  3.5379
  203MOL   H16936933   4.092   3.983   0.382  0.7604  2.4960  0.1155
  203MOL   H17036934   4.207   4.042   0.100 -1.7975  0.7446 -0.5720
  203MOL   H17136935   4.055   3.967   0.133  0.6861 -0.6056 -1.1682
  203MOL   H17236936   4.072   4.128   0.177  1.1363  0.9639 -3.0080
  203MOL   C17336937   4.234   3.840   0.308  0.1817 -0.0583  0.3327
  203MOL   C17436938   4.351   3.821   0.198  0.2959 -0.2722  0.2607
  203MOL   C17536939   4.442   3.699   0.226  0.0384  0.5657 -0.0933
  203MOL   H17636940   4.269   3.809   0.406  0.4634 -2.5251 -0.5184
  203MOL   H17736941   4.152   3.773   0.284 -0.2183  0.2776  0.7550
  203MOL   H17836942   4.405   3.916   0.197 -0.9984  0.6210  4.1089
  203MOL   H17936943   4.484   3.690   0.327 -0.4454  2.0641  0.2514
  203MOL   H18036944   4.405   3.601   0.195 -2.7037  1.1014  1.3572
  203MOL   H18136945   4.527   3.721   0.162  1.0147  0.4726  1.1424
  203MOL   H18236946   4.318   3.804   0.096 -0.1695  1.6050  0.0721
  204MOL     C136947   4.006   6.610   4.211  0.5732  0.5754  0.3699
  204MOL     C236948   3.863   6.643   4.164  0.8409  0.0560 -0.0459
  204MOL     C336949   3.858   6.648   4.016  0.5184  0.6030  0.0985
  204MOL     H436950   4.049   6.519   4.169  1.2513  0.3612  1.5084
  204MOL     H536951   4.018   6.606   4.319  1.5296 -1.4825  0.2178
  204MOL     H636952   3.834   6.739   4.208  1.2116  0.1960 -0.1025
  204MOL     H736953   3.916   6.730   3.972 -0.2516  0.8046 -0.5536
  204MOL     H836954   3.888   6.551   3.975 -1.9989  0.2372 -0.9471
  204MOL     H936955   3.756   6.663   3.982  1.0218  1.5048 -1.0676
  204MOL    H1036956   4.075   6.684   4.170  0.4570  1.1806  1.2486
  204MOL    C1136957   3.768   6.548   4.228  0.1140 -0.4990  0.1927
  204MOL    C1236958   3.731   6.571   4.378  0.6846 -0.3238  0.0453
  204MOL    C1336959   3.646   6.700   4.390  0.0113 -0.0502 -0.4365
  204MOL    H1436960   3.674   6.548   4.172 -0.5432  0.1620  1.2695
  204MOL    H1536961   3.809   6.447   4.230  1.4176  0.0128 -0.0059
  204MOL    H1636962   3.820   6.589   4.438  0.1353 -2.8678  1.6443
  204MOL    H1736963   3.622   6.726   4.493  4.0508 -2.1746  1.1380
  204MOL    H1836964   3.695   6.786   4.345  1.9535 -0.1225  1.4724
  204MOL    H1936965   3.558   6.677   4.329 -1.4227  2.8210  0.4662
  204MOL    C2036966   3.650   6.460   4.437  0.3374 -0.1261 -0.3860
  204MOL    C2136967   3.638   6.446   4.594 -0.2548 -0.2182  0.4575
  204MOL    C2236968   3.524   6.339   4.621 -0.1701  0.1912  0.0484
  204MOL    H2336969   3.553   6.467   4.390 -0.1873 -3.6871  0.0297
  204MOL    H2436970   3.683   6.366   4.392  0.1516 -0.7147  0.6923
  204MOL    H2536971   3.617   6.544   4.636 -2.7965  1.0161 -3.4673
  204MOL    H2636972   3.427   6.375   4.587  0.5318  1.2270 -0.9165
  204MOL    H2736973   3.544   6.255   4.554  0.7643 -0.4590  1.1103
  204MOL    H2836974   3.512   6.313   4.726  1.0056  0.2364  0.2018
  204MOL    C2936975   3.780   6.398   4.649  0.6631 -0.6531 -0.3346
  204MOL    C3036976   3.790   6.328   4.786  0.2099 -0.6934  0.1764
  204MOL    C3136977   3.929   6.283   4.815 -0.0543  0.5704  0.0411
  204MOL    H3236978   3.835   6.342   4.573  2.3802 -0.6707  0.8888
  204MOL    H3336979   3.842   6.485   4.667  0.3936 -0.4639 -0.3225
  204MOL    H3436980   3.731   6.240   4.764  1.9046 -1.5455 -1.1018
  204MOL    H3536981   3.984   6.244   4.729  0.7328 -0.4333  0.9814
  204MOL    H3636982   3.984   6.374   4.836 -0.2256  0.8183 -0.5530
  204MOL    H3736983   3.946   6.214   4.897  1.2348 -0.2221 -0.8669
  204MOL    C3836984   3.733   6.407   4.905  0.2384 -0.5438 -0.0931
  204MOL    C3936985   3.697   6.332   5.036  0.0624  0.5831  0.3866
  204MOL    C4036986   3.633   6.436   5.124  0.1765  0.2078 -0.2006
  204MOL    H4136987   3.803   6.490   4.912 -2.7212  1.9032  1.7253
  204MOL    H4236988   3.642   6.454   4.866 -0.5753 -2.1991 -0.2186
  204MOL    H4336989   3.792   6.300   5.077  1.5364 -0.1342 -3.3756
  204MOL    H4436990   3.579   6.392   5.208 -1.1910  1.7485 -0.2649
  204MOL    H4536991   3.702   6.506   5.170  0.6547  0.2408 -0.9595
  204MOL    H4636992   3.549   6.487   5.077 -1.0094 -1.1532  0.4047
  204MOL    C4736993   3.611   6.204   5.012  0.5646 -0.4366 -0.1991
  204MOL    C4836994   3.555   6.133   5.145  0.2212 -0.0988  0.5545
  204MOL    C4936995   3.476   6.010   5.111 -0.5275  0.4660  0.9889
  204MOL    H5036996   3.525   6.232   4.950  1.3113  1.3916 -0.4423
  204MOL    H5136997   3.684   6.138   4.965 -0.4256 -0.8805 -1.1408
  204MOL    H5236998   3.485   6.206   5.185 -0.3228  0.0183 -0.5839
  204MOL    H5336999   3.544   5.928   5.089 -2.1963 -0.6936  0.0349
  204MOL    H5437000   3.415   5.980   5.197  1.1855 -2.2494  1.3209
  204MOL    H5537001   3.405   6.021   5.029 -1.3785 -2.4279  1.2799
  204MOL    C5637002   3.676   6.105   5.244  0.1161 -0.2535  0.6082
  204MOL    C5737003   3.645   6.079   5.397  0.0612  0.0223  0.1246
  204MOL    C5837004   3.769   6.027   5.473 -0.0531 -0.1920  0.6348
  204MOL    H5937005   3.723   6.022   5.190  0.5673 -0.2175  0.9467
  204MOL    H6037006   3.747   6.187   5.239  0.5527 -0.6685 -0.0824
  204MOL    H6137007   3.568   6.002   5.402  1.1553 -1.1621 -1.0465
  204MOL    H6237008   3.791   6.081   5.565 -0.4034 -0.0665  0.6445
  204MOL    H6337009   3.770   5.922   5.504 -1.1255  0.1999  2.0287
  204MOL    H6437010   3.862   6.035   5.417 -0.2196 -2.1975  0.0035
  204MOL    C6537011   3.599   6.213   5.473 -0.1003  0.4545 -0.0788
  204MOL    C6637012   3.531   6.180   5.608 -0.6136 -0.6761 -0.5428
  204MOL    C6737013   3.576   6.283   5.710  0.1382 -0.3619  0.3883
  204MOL    H6837014   3.686   6.273   5.494 -1.1018  1.2022  2.0577
  204MOL    H6937015   3.531   6.269   5.409 -0.3582 -1.5483 -1.6386
  204MOL    H7037016   3.569   6.088   5.653 -0.4946 -0.8637 -1.0235
  204MOL    H7137017   3.556   6.240   5.808  0.5905  0.0367  0.6551
  204MOL    H7237018   3.682   6.308   5.706  0.0778 -0.0386  0.8761
  204MOL    H7337019   3.519   6.375   5.695 -1.7051 -1.9443 -3.0741
  204MOL    C7437020   3.378   6.170   5.608  0.1702  0.4264  0.2962
  204MOL    C7537021   3.310   6.055   5.528  0.2638 -0.1207 -0.6401
  204MOL    C7637022   3.365   5.920   5.571 -0.1649 -0.3311 -0.3182
  204MOL    H7737023   3.341   6.161   5.710 -0.4741 -0.0056  0.0238
  204MOL    H7837024   3.329   6.262   5.574 -0.1063  0.4551  0.7730
  204MOL    H7937025   3.334   6.058   5.422 -0.9761  0.4185 -0.9130
  204MOL    H8037026   3.303   5.894   5.657  0.7179  1.2142  0.7959
  204MOL    H8137027   3.347   5.844   5.495 -1.2736 -1.2130  0.8090
  204MOL    H8237028   3.469   5.920   5.601 -0.4955  0.2601  0.8787
  204MOL    C8337029   3.151   6.065   5.527  0.0331 -0.7416 -0.0298
  204MOL    C8437030   3.084   6.171   5.436  0.3087 -0.6015  0.0454
  204MOL    C8537031   3.090   6.123   5.293  0.2622  0.1868  0.0974
  204MOL    H8637032   3.131   5.968   5.483 -0.4327 -0.2284 -0.9727
  204MOL    H8737033   3.117   6.081   5.629  0.0372  3.1233 -0.5623
  204MOL    H8837034   3.134   6.267   5.447 -0.9337 -0.0990  1.5079
  204MOL    H8937035   3.058   6.019   5.292  3.2098 -0.7777 -2.3326
  204MOL    H9037036   3.030   6.186   5.227 -2.5257 -1.9833  0.4504
  204MOL    H9137037   3.190   6.111   5.251  0.4245  0.3204  0.4417
  204MOL    C9237038   2.938   6.203   5.479 -0.5736 -0.0487  0.5014
  204MOL    C9337039   2.867   6.321   5.412  0.6216 -1.0197  0.3348
  204MOL    C9437040   2.726   6.325   5.473 -0.4928 -0.7410 -0.6452
  204MOL    H9537041   2.879   6.111   5.481 -2.8715  1.2843 -1.9102
  204MOL    H9637042   2.947   6.241   5.581 -1.5329  0.1994  0.4987
  204MOL    H9737043   2.860   6.305   5.305  0.2444  0.6377  0.1034
  204MOL    H9837044   2.725   6.327   5.582 -0.1997 -0.3462 -0.6493
  204MOL    H9937045   2.661   6.398   5.425 -0.9970 -0.7417  0.0188
  204MOL   H10037046   2.673   6.231   5.458  0.0650 -1.0208 -0.8423
  204MOL   C10137047   2.935   6.458   5.427  0.1719 -0.3068  0.1991
  204MOL   C10237048   2.877   6.578   5.349 -0.7045  0.5915  0.7386
  204MOL   C10337049   2.876   6.703   5.441 -0.5238 -0.1038  0.5979
  204MOL   H10437050   2.945   6.473   5.535 -0.9235  1.4247  0.0692
  204MOL   H10537051   3.037   6.440   5.392  0.1267  2.2633 -1.2913
  204MOL   H10637052   2.775   6.558   5.316 -1.0298 -0.1687  2.1488
  204MOL   H10737053   2.825   6.790   5.399  0.5309  1.3167  2.1643
  204MOL   H10837054   2.830   6.677   5.536  0.8572 -1.0747  1.0143
  204MOL   H10937055   2.975   6.747   5.457 -1.4949  1.3202  2.9555
  204MOL   C11037056   2.948   6.607   5.213  0.3765 -0.1717 -0.3239
  204MOL   C11137057   2.926   6.509   5.103 -0.3901  0.2493 -0.3374
  204MOL   C11237058   2.785   6.497   5.055  0.0489 -0.7228  0.5164
  204MOL   H11337059   2.919   6.706   5.179 -0.5438  0.2322  1.5719
  204MOL   H11437060   3.054   6.622   5.237 -0.5923  1.0815  3.5030
  204MOL   H11537061   2.944   6.412   5.148  0.8933  0.3392 -0.6271
  204MOL   H11637062   2.710   6.498   5.134  0.0173  1.3685  0.4949
  204MOL   H11737063   2.772   6.585   4.992 -1.3492 -0.5778  0.9867
  204MOL   H11837064   2.769   6.399   5.011 -1.6977 -0.1399 -0.1901
  204MOL   C11937065   3.030   6.526   4.990 -0.1587 -0.0238 -0.8841
  204MOL   C12037066   3.183   6.511   5.026 -0.0004  0.5263  0.6362
  204MOL   C12137067   3.223   6.371   5.067  0.4091  1.0400 -0.0019
  204MOL   H12237068   3.001   6.461   4.908 -2.2121  1.4011 -1.3165
  204MOL   H12337069   3.016   6.623   4.942  0.5080  1.1355  1.1521
  204MOL   H12437070   3.217   6.576   5.106 -1.2232 -1.4988  2.8872
  204MOL   H12537071   3.188   6.358   5.170 -2.3470 -1.5780 -1.2106
  204MOL   H12637072   3.192   6.287   5.006 -1.3278 -0.2360  2.5207
  204MOL   H12737073   3.328   6.344   5.084  0.0636 -0.8560 -0.7381
  204MOL   C12837074   3.282   6.549   4.909 -0.1856  0.4968  0.2926
  204MOL   C12937075   3.291   6.701   4.889 -0.3000  0.8306  0.4140
  204MOL   C13037076   3.378   6.754   4.997  0.4842  0.4697  0.2511
  204MOL   H13137077   3.384   6.519   4.936 -0.2184 -0.5438 -0.7210
  204MOL   H13237078   3.249   6.493   4.822  2.7320  0.9486 -1.1787
  204MOL   H13337079   3.187   6.729   4.909 -0.1255  0.2237  2.2758
  204MOL   H13437080   3.404   6.854   4.961  1.1817  0.5202  0.8716
  204MOL   H13537081   3.341   6.746   5.100  2.1450 -1.0741  0.7645
  204MOL   H13637082   3.479   6.712   4.992  0.0250 -0.4338 -1.6727
  204MOL   C13737083   3.333   6.752   4.744 -0.0734  0.3848  0.3107
  204MOL   C13837084   3.224   6.722   4.637 -0.3955 -0.2106 -0.6753
  204MOL   C13937085   3.090   6.781   4.671 -0.5932  0.1097 -0.5789
  204MOL   H14037086   3.360   6.858   4.745 -1.1615  0.6663  0.1640
  204MOL   H14137087   3.428   6.708   4.713 -1.4067 -0.8971 -2.0839
  204MOL   H14237088   3.220   6.613   4.629  1.4373 -0.1766 -2.6971
  204MOL   H14337089   3.009   6.760   4.600 -1.3728 -3.3260  1.2161
  204MOL   H14437090   3.030   6.731   4.747  0.1436 -0.4070 -0.3390
  204MOL   H14537091   3.101   6.886   4.698  0.2346  0.0021 -0.5059
  204MOL   C14637092   3.266   6.776   4.486 -0.5635 -0.0801  0.0713
  204MOL   C14737093   3.182   6.711   4.371 -0.3772 -0.5676 -0.2649
  204MOL   C14837094   3.180   6.813   4.252 -0.0491 -0.6032 -0.5603
  204MOL   H14937095   3.252   6.884   4.492  0.9815  0.0870  0.9231
  204MOL   H15037096   3.373   6.772   4.464 -0.7467 -2.5237 -0.5968
  204MOL   H15137097   3.080   6.713   4.410 -1.2002  2.0859 -2.3654
  204MOL   H15237098   3.135   6.772   4.162  1.0045 -1.3425 -0.7611
  204MOL   H15337099   3.129   6.906   4.276  2.5005  0.6911  0.0979
  204MOL   H15437100   3.276   6.859   4.227 -0.2433  0.3983  0.4855
  204MOL   C15537101   3.232   6.563   4.340 -0.0101 -0.0711 -0.6664
  204MOL   C15637102   3.126   6.453   4.336  0.0400 -0.8069  0.3699
  204MOL   C15737103   3.060   6.425   4.473  1.1636 -0.2689 -0.0039
  204MOL   H15837104   3.287   6.572   4.246  1.6390  2.0349  0.4670
  204MOL   H15937105   3.311   6.524   4.403 -0.7100 -1.7702 -0.8118
  204MOL   H16037106   3.186   6.364   4.314  0.7754  0.1887 -1.7760
  204MOL   H16137107   3.005   6.512   4.510 -0.2997 -0.7070 -1.1370
  204MOL   H16237108   3.004   6.332   4.475 -0.2205  0.5572  0.4106
  204MOL   H16337109   3.143   6.424   4.544 -0.9747  1.0307  2.6086
  204MOL   C16437110   3.022   6.482   4.230 -0.2497  0.1242  0.2223
  204MOL   C16537111   2.912   6.376   4.215  0.5430 -0.9803  0.0346
  204MOL   C16637112   2.818   6.416   4.104 -0.1586  0.2417  0.0036
  204MOL   H16737113   2.989   6.585   4.241  1.7007  0.9042 -0.9505
  204MOL   H16837114   3.070   6.486   4.133 -1.3823  2.0297 -0.2829
  204MOL   H16937115   2.853   6.369   4.307  1.5676  1.1575  0.8928
  204MOL   H17037116   2.870   6.437   4.011 -2.4055  0.4001 -1.2623
  204MOL   H17137117   2.743   6.344   4.069 -1.4813  1.9929 -0.8802
  204MOL   H17237118   2.763   6.509   4.121  0.1124  0.3008  0.5357
  204MOL   C17337119   2.951   6.227   4.185  0.0461 -0.1477 -0.5983
  204MOL   C17437120   3.031   6.206   4.057 -0.0463 -0.3789  0.6537
  204MOL   C17537121   3.093   6.064   4.043  0.7546 -0.1646 -0.4896
  204MOL   H17637122   3.007   6.181   4.267  0.0176 -2.3809 -1.7800
  204MOL   H17737123   2.858   6.170   4.183 -0.0007 -0.2377  2.1165
  204MOL   H17837124   3.102   6.286   4.035  0.0947 -0.8635 -0.7357
  204MOL   H17937125   3.013   5.991   4.031  0.3725  0.1786 -0.0681
  204MOL   H18037126   3.164   6.060   3.961  1.6342 -4.6177  0.3922
  204MOL   H18137127   3.161   6.036   4.124  1.2579 -0.1858 -0.9186
  204MOL   H18237128   2.957   6.220   3.978 -0.6123 -2.6664  0.7385
  205MOL     C137129   2.019   5.446   2.179  0.6698 -0.2147  0.2997
  205MOL     C237130   1.914   5.370   2.088  1.2085 -0.0063 -0.1892
  205MOL     C337131   1.869   5.240   2.146 -0.4282 -0.3234  0.1458
  205MOL     H437132   2.104   5.380   2.197 -0.7141 -1.8498  0.8855
  205MOL     H537133   1.988   5.486   2.276 -3.0239 -2.0208 -0.0514
  205MOL     H637134   1.954   5.347   1.990 -0.2459 -1.3413 -0.4933
  205MOL     H737135   1.954   5.173   2.156  0.8491  1.3417  0.6425
  205MOL     H837136   1.833   5.251   2.249 -2.6770  1.3034 -0.7827
  205MOL     H937137   1.784   5.195   2.095 -1.3162  1.9197 -0.4188
  205MOL    H1037138   2.072   5.531   2.135  2.8155 -2.1826 -1.0184
  205MOL    C1137139   1.796   5.461   2.062 -0.1458  0.1932  0.0485
  205MOL    C1237140   1.842   5.584   1.982 -0.0274 -0.2050  0.8700
  205MOL    C1337141   1.904   5.551   1.836 -0.4806 -0.5554 -1.0774
  205MOL    H1437142   1.721   5.415   1.999  0.7115 -0.3033 -0.6215
  205MOL    H1537143   1.756   5.488   2.160  1.0751  1.6762  0.1461
  205MOL    H1637144   1.916   5.643   2.038 -0.6734  1.4494  0.0148
  205MOL    H1737145   1.916   5.636   1.768 -2.5868  2.2909  1.9471
  205MOL    H1837146   1.994   5.492   1.849 -0.8635 -0.5478  1.9996
  205MOL    H1937147   1.831   5.490   1.781 -1.5098 -0.1327 -0.2001
  205MOL    C2037148   1.731   5.692   1.960  0.4626 -0.2422 -0.1363
  205MOL    C2137149   1.651   5.745   2.090  0.7402  0.1499 -0.1206
  205MOL    C2237150   1.737   5.782   2.204 -0.7698  0.1936  0.2274
  205MOL    H2337151   1.792   5.775   1.923  0.1232  1.0119  2.0252
  205MOL    H2437152   1.666   5.667   1.876 -2.0534  0.9430  1.4118
  205MOL    H2537153   1.583   5.663   2.112 -0.2448  1.0031  0.0852
  205MOL    H2637154   1.795   5.868   2.170  1.8099 -2.5958 -2.7605
  205MOL    H2737155   1.687   5.818   2.294 -0.2592 -2.1543  1.4810
  205MOL    H2837156   1.801   5.697   2.226 -0.8045  0.7127  2.4505
  205MOL    C2937157   1.558   5.865   2.049 -0.4835 -0.0624 -0.5798
  205MOL    C3037158   1.446   5.894   2.155  0.4582  0.1352  0.0297
  205MOL    C3137159   1.396   6.040   2.145  0.0175 -0.0530  0.0726
  205MOL    H3237160   1.610   5.959   2.035 -1.4007  0.5359 -0.0081
  205MOL    H3337161   1.511   5.835   1.955 -0.3565 -1.2241 -0.2864
  205MOL    H3437162   1.482   5.866   2.255 -1.8396 -0.0861  0.8276
  205MOL    H3537163   1.481   6.108   2.134  0.1768 -0.3573 -0.5496
  205MOL    H3637164   1.324   6.058   2.066  0.3010 -1.8231 -0.6133
  205MOL    H3737165   1.327   6.066   2.225 -1.2228 -1.3427 -0.5700
  205MOL    C3837166   1.329   5.795   2.141 -0.4599  0.3567 -0.4761
  205MOL    C3937167   1.220   5.788   2.250 -0.8098  0.3252  0.5580
  205MOL    C4037168   1.127   5.674   2.196  0.7425 -0.2208  0.4992
  205MOL    H4137169   1.291   5.797   2.039 -0.5110  0.7500 -0.4507
  205MOL    H4237170   1.376   5.697   2.141  0.5522  0.8171  1.1822
  205MOL    H4337171   1.180   5.890   2.254 -0.6959  0.4799 -1.5392
  205MOL    H4437172   1.178   5.578   2.183 -1.1669 -1.1813 -0.1741
  205MOL    H4537173   1.036   5.670   2.256  1.5855  1.6410  1.9455
  205MOL    H4637174   1.099   5.697   2.093 -1.4742 -0.3342  1.0383
  205MOL    C4737175   1.281   5.755   2.390 -0.2778  0.2379 -0.3762
  205MOL    C4837176   1.201   5.689   2.507  0.1259  0.3562 -0.1100
  205MOL    C4937177   1.297   5.653   2.625  0.2895  0.0622 -0.5248
  205MOL    H5037178   1.371   5.693   2.383  1.6769  2.7701  1.2694
  205MOL    H5137179   1.317   5.850   2.429 -1.0824  0.6677 -0.6825
  205MOL    H5237180   1.167   5.598   2.459  2.2823 -1.5550  1.8526
  205MOL    H5337181   1.345   5.557   2.608  0.1918 -0.7587  3.3627
  205MOL    H5437182   1.370   5.731   2.648 -0.6870  0.8291  0.0158
  205MOL    H5537183   1.248   5.639   2.721 -0.2391 -0.2092 -0.8299
  205MOL    C5637184   1.083   5.781   2.566  0.3491  0.7856 -0.1211
  205MOL    C5737185   0.953   5.703   2.602 -1.0570  0.2300 -0.2348
  205MOL    C5837186   0.969   5.582   2.710  0.4555 -0.5867  0.3407
  205MOL    H5937187   1.121   5.836   2.652 -1.5535  0.3764  1.0034
  205MOL    H6037188   1.061   5.860   2.495 -1.6289 -0.6139 -1.1092
  205MOL    H6137189   0.916   5.661   2.509  1.1852 -0.9634 -0.6416
  205MOL    H6237190   1.022   5.494   2.675 -0.6689 -0.5584 -1.5262
  205MOL    H6337191   1.026   5.618   2.796  1.0403 -1.1317  0.1815
  205MOL    H6437192   0.871   5.552   2.748 -0.0272 -0.7143 -0.9642
  205MOL    C6537193   0.834   5.799   2.638 -0.6032  0.0473 -0.4536
  205MOL    C6637194   0.694   5.777   2.578 -0.3764 -0.5227 -0.6694
  205MOL    C6737195   0.619   5.655   2.633  0.3725  0.0162  0.2390
  205MOL    H6837196   0.816   5.804   2.745 -0.6548 -1.4662 -0.3914
  205MOL    H6937197   0.863   5.901   2.613  0.3313 -0.0544  0.2180
  205MOL    H7037198   0.696   5.760   2.470  1.8117 -2.3164 -0.3807
  205MOL    H7137199   0.595   5.661   2.739 -0.0456 -1.5611  0.2486
  205MOL    H7237200   0.536   5.642   2.564  0.1382  1.9395  0.1403
  205MOL    H7337201   0.677   5.564   2.616 -1.4588 -1.3055  0.9008
  205MOL    C7437202   0.615   5.915   2.587 -0.0516  0.1126 -0.0141
  205MOL    C7537203   0.471   5.921   2.527  0.0999 -0.3180  0.4387
  205MOL    C7637204   0.395   6.039   2.591  0.3393  0.8085 -0.4560
  205MOL    H7737205   0.608   5.915   2.696  0.5451  1.5398  0.0345
  205MOL    H7837206   0.671   6.006   2.569  0.4028 -0.3428 -0.9490
  205MOL    H7937207   0.420   5.828   2.553  0.9430 -1.3507 -1.5331
  205MOL    H8037208   0.287   6.040   2.577  0.0469  0.8924  1.5987
  205MOL    H8137209   0.410   6.032   2.699 -0.7834 -0.7257 -0.3787
  205MOL    H8237210   0.433   6.134   2.554  0.3764  1.3513  0.9367
  205MOL    C8337211   0.481   5.948   2.377  0.4016 -0.0432 -0.7368
  205MOL    C8437212   0.348   5.939   2.298 -0.4744 -0.5427 -0.0920
  205MOL    C8537213   0.374   5.989   2.156  0.0824  0.7377 -0.2744
  205MOL    H8637214   0.515   6.051   2.368  0.4616  0.0857  0.7552
  205MOL    H8737215   0.554   5.887   2.325 -1.1424 -0.8843 -1.9787
  205MOL    H8837216   0.265   5.989   2.348 -0.3018  0.2717 -0.6020
  205MOL    H8937217   0.281   5.981   2.099  0.4252 -0.5179 -0.6785
  205MOL    H9037218   0.394   6.096   2.153  1.2679  0.4675 -2.5767
  205MOL    H9137219   0.453   5.932   2.108 -2.1888 -2.4068 -0.4484
  205MOL    C9237220   0.299   5.797   2.291  0.4861  0.3698 -0.3303
  205MOL    C9337221   0.161   5.768   2.222 -0.3378  0.8193 -0.2139
  205MOL    C9437222   0.125   5.619   2.231  0.0416  0.5037 -0.9864
  205MOL    H9537223   0.375   5.741   2.237  0.2109  0.1822 -0.5232
  205MOL    H9637224   0.298   5.740   2.384 -0.2396  2.4025  0.9364
  205MOL    H9737225   0.184   5.781   2.116  0.0538  0.3329 -0.1891
  205MOL    H9837226   0.214   5.557   2.220  0.2671  0.7272 -0.4197
  205MOL    H9937227   0.088   5.595   2.330  1.3163  1.1105 -0.3510
  205MOL   H10037228   0.051   5.583   2.159 -1.7184  1.5282  0.2622
  205MOL   C10137229   0.038   5.861   2.257  0.2001 -0.0097 -0.3716
  205MOL   C10237230   7.653   5.855   2.395  0.3387 -0.1256  0.4446
  205MOL   C10337231   0.051   5.837   2.519 -0.3523 -0.1013  1.0806
  205MOL   H10437232   0.068   5.965   2.252 -1.0805  0.3707 -0.5011
  205MOL   H10537233   7.673   5.847   2.168  1.9557 -1.3342 -1.4135
  205MOL   H10637234   7.608   5.756   2.385 -1.3750  0.7568 -0.6985
  205MOL   H10737235   0.113   5.749   2.508 -0.8222 -0.5121  1.7008
  205MOL   H10837236   0.112   5.927   2.529 -2.3345  1.5441 -1.0080
  205MOL   H10937237   7.685   5.825   2.607  0.7880 -1.5905  1.7087
  205MOL   C11037238   7.544   5.969   2.417  0.4002  0.0875 -0.3079
  205MOL   C11137239   7.446   5.941   2.533 -0.5526  0.0002 -0.8032
  205MOL   C11237240   7.371   6.069   2.568 -0.1251  0.1559 -0.2365
  205MOL   H11337241   7.596   6.059   2.447 -0.8808  0.5936  0.4077
  205MOL   H11437242   7.495   5.986   2.321 -0.1761 -0.3367 -0.0898
  205MOL   H11537243   7.503   5.907   2.619 -0.3268  1.9729 -0.1575
  205MOL   H11637244   7.308   6.052   2.655  0.1926  1.2317  0.2159
  205MOL   H11737245   7.437   6.156   2.577 -2.5219  1.7940  2.7933
  205MOL   H11837246   7.295   6.091   2.494  0.0205  0.1665 -0.3836
  205MOL   C11937247   7.354   5.820   2.496  0.1246 -0.4611 -0.4311
  205MOL   C12037248   7.263   5.775   2.608 -0.5017 -0.0006 -0.4790
  205MOL   C12137249   7.117   5.787   2.570 -0.2451 -0.3134  0.6322
  205MOL   H12237250   7.296   5.853   2.409  1.2643  0.9318 -0.6904
  205MOL   H12337251   7.403   5.732   2.454 -0.3457 -0.7675 -0.3459
  205MOL   H12437252   7.285   5.831   2.699 -0.4127 -1.7808  0.6196
  205MOL   H12537253   7.092   5.725   2.485  1.6150  2.4831 -2.0637
  205MOL   H12637254   7.053   5.739   2.645 -0.8036 -0.0246  0.3418
  205MOL   H12737255   7.085   5.890   2.556  2.2820  0.5681  1.0417
  205MOL   C12837256   7.296   5.626   2.644  0.2207 -0.5353 -0.0760
  205MOL   C12937257   7.434   5.598   2.712  0.4720 -1.2873 -0.0241
  205MOL   C13037258   7.437   5.664   2.857 -0.9091 -0.2247  0.0337
  205MOL   H13137259   7.215   5.582   2.702  0.0556 -0.9314 -0.6026
  205MOL   H13237260   7.282   5.564   2.555 -1.0105  1.4104 -1.2730
  205MOL   H13337261   7.512   5.647   2.653  0.2617 -0.0576  0.7141
  205MOL   H13437262   7.536   5.644   2.898 -0.5184  0.9083 -0.3215
  205MOL   H13537263   7.425   5.772   2.852  2.6054  0.2826  0.7491
  205MOL   H13637264   7.364   5.628   2.929 -0.0420 -0.9275  0.5728
  205MOL   C13737265   7.464   5.448   2.713 -0.6041  0.0290 -0.9054
  205MOL   C13837266   7.508   5.383   2.589  0.4060  0.6357  0.2388
  205MOL   C13937267   7.647   5.425   2.542 -0.1540 -0.4730  0.4856
  205MOL   H14037268   7.544   5.438   2.787 -2.6574 -0.2678  1.3467
  205MOL   H14137269   7.381   5.388   2.748 -0.6090  1.6992  2.1923
  205MOL   H14237270   7.446   5.425   2.510 -0.6239 -0.2930  0.5535
  205MOL   H14337271   0.028   5.389   2.609  0.6519  0.8201  0.2756
  205MOL   H14437272   7.672   5.371   2.451 -0.2318  0.7552 -0.2777
  205MOL   H14537273   7.659   5.530   2.512  1.4969 -0.8210 -0.1654
  205MOL   C14637274   7.487   5.227   2.582 -0.3289  0.0763  0.2273
  205MOL   C14737275   7.346   5.168   2.554  0.0901  0.0742  0.3929
  205MOL   C14837276   7.291   5.238   2.433  0.1377 -1.0691  0.2038
  205MOL   H14937277   7.545   5.198   2.494  0.8591  0.0359  1.0165
  205MOL   H15037278   7.529   5.169   2.664  0.9640 -0.5983 -0.8973
  205MOL   H15137279   7.283   5.193   2.639  0.9325 -2.8225  1.9515
  205MOL   H15237280   7.349   5.231   2.341  0.0542  0.6328  0.0003
  205MOL   H15337281   7.191   5.195   2.426  1.1487 -3.2682 -1.4544
  205MOL   H15437282   7.270   5.345   2.443  1.8998 -0.5541 -1.4110
  205MOL   C15537283   7.344   5.015   2.539 -0.0774  0.2889  0.0712
  205MOL   C15637284   7.379   4.925   2.660  0.0999 -0.1326 -0.1352
  205MOL   C15737285   7.272   4.924   2.768  0.1331  0.2572 -0.0379
  205MOL   H15837286   7.245   4.995   2.500  0.1417  1.1322 -0.9339
  205MOL   H15937287   7.411   5.005   2.454 -0.3103  0.0260 -0.0783
  205MOL   H16037288   7.474   4.964   2.697 -0.4718  0.1235  1.1002
  205MOL   H16137289   7.301   4.846   2.838 -2.0445  1.4025  2.2392
  205MOL   H16237290   7.269   5.020   2.820 -2.2773 -0.0769  0.5178
  205MOL   H16337291   7.176   4.902   2.721 -0.3018  0.8142  0.5742
  205MOL   C16437292   7.420   4.783   2.613  0.2244  0.3548 -0.2104
  205MOL   C16537293   7.481   4.673   2.706 -0.4304  0.1542 -0.5315
  205MOL   C16637294   7.519   4.545   2.623  0.8754  0.3988  0.1004
  205MOL   H16737295   7.329   4.734   2.580 -1.5280  3.0037  0.5245
  205MOL   H16837296   7.482   4.788   2.523 -0.0409  0.5097 -0.3855
  205MOL   H16937297   7.401   4.666   2.779 -1.2055  3.4222 -1.0060
  205MOL   H17037298   7.603   4.586   2.567  1.2753  3.0743  2.5185
  205MOL   H17137299   7.551   4.464   2.688 -0.9324  0.6654  1.3761
  205MOL   H17237300   7.445   4.505   2.553  2.1075 -0.6961 -0.5889
  205MOL   C17337301   7.590   4.734   2.795  0.4200 -0.0024  0.1136
  205MOL   C17437302   7.678   4.652   2.888  0.2518  0.3768  0.1023
  205MOL   C17537303   7.614   4.572   2.995  0.0656  0.3988 -0.2623
  205MOL   H17637304   7.657   4.786   2.727  0.1770 -1.1172 -0.9975
  205MOL   H17737305   7.539   4.813   2.850  3.2752  0.5317  2.0919
  205MOL   H17837306   0.049   4.718   2.941 -3.0174  2.3861  1.9456
  205MOL   H17937307   7.561   4.640   3.062  0.5665 -0.1449  0.6970
  205MOL   H18037308   7.533   4.512   2.954 -0.0142  1.9345 -2.4601
  205MOL   H18137309   7.684   4.509   3.050 -0.3478 -1.0539 -1.3873
  205MOL   H18237310   0.029   4.576   2.826 -1.1487 -1.4029  1.1354
  206MOL     C137311   2.496   6.254   4.504 -0.3920 -0.0712  0.4244
  206MOL     C237312   2.501   6.394   4.445 -0.1245 -0.2651 -0.0647
  206MOL     C337313   2.638   6.456   4.480  0.1000  0.3511  0.1879
  206MOL     H437314   2.578   6.243   4.575  0.6787  0.5219 -0.7023
  206MOL     H537315   2.497   6.175   4.429  1.8589 -0.7518  1.1222
  206MOL     H637316   2.419   6.452   4.486 -0.0746 -0.9720  1.0529
  206MOL     H737317   2.717   6.392   4.442 -0.0267  0.2455  0.1004
  206MOL     H837318   2.652   6.555   4.436  0.5248 -0.6788 -2.0791
  206MOL     H937319   2.665   6.472   4.584 -1.0370 -1.3679  0.7724
  206MOL    H1037320   2.405   6.238   4.561 -0.4394 -0.8005  0.1406
  206MOL    C1137321   2.480   6.394   4.295  0.5799  0.6436 -0.2589
  206MOL    C1237322   2.341   6.370   4.238  0.4664  0.5574  0.0972
  206MOL    C1337323   2.238   6.486   4.251  0.0306 -0.2866  0.3750
  206MOL    H1437324   2.507   6.494   4.259  0.7637  0.7656  0.2094
  206MOL    H1537325   2.552   6.327   4.250  2.1526  2.1207 -0.0150
  206MOL    H1637326   2.303   6.278   4.282  1.8816 -0.6697 -1.1648
  206MOL    H1737327   2.276   6.577   4.204 -1.0289  0.7492  1.4928
  206MOL    H1837328   2.139   6.463   4.211  0.3432 -0.4869 -0.2893
  206MOL    H1937329   2.243   6.503   4.358  3.6249  1.7355 -0.0243
  206MOL    C2037330   2.364   6.332   4.086 -0.3937 -0.1508 -0.4403
  206MOL    C2137331   2.376   6.186   4.055 -0.9250 -0.1890  0.3500
  206MOL    C2237332   2.242   6.126   4.037 -0.1555  0.7980 -1.1001
  206MOL    H2337333   2.287   6.384   4.029  0.5400  1.0304 -0.6422
  206MOL    H2437334   2.458   6.378   4.056 -0.8399 -0.1196 -1.8218
  206MOL    H2537335   2.424   6.130   4.135 -1.1525  0.8902  1.2460
  206MOL    H2637336   2.236   6.033   3.981 -3.0879  2.4086 -3.6703
  206MOL    H2737337   2.196   6.100   4.132  2.0022  1.3234  0.1046
  206MOL    H2837338   2.179   6.190   3.974 -1.0522  1.1900  0.1742
  206MOL    C2937339   2.470   6.176   3.933 -0.0086  0.3847  0.1766
  206MOL    C3037340   2.521   6.042   3.877  0.2264  0.4902  0.2851
  206MOL    C3137341   2.607   6.061   3.755  0.3449  0.3974  0.1162
  206MOL    H3237342   2.414   6.216   3.848 -0.9132 -1.3244 -0.0518
  206MOL    H3337343   2.558   6.235   3.960 -0.3539  0.8214  0.3596
  206MOL    H3437344   2.435   5.980   3.853  1.3063  0.2195 -3.2258
  206MOL    H3537345   2.562   6.136   3.690  0.6535  0.2191 -0.2984
  206MOL    H3637346   2.713   6.083   3.770  0.1977 -0.2404  2.3638
  206MOL    H3737347   2.599   5.972   3.693 -1.8161  0.4935  0.2079
  206MOL    C3837348   2.610   5.973   3.986 -0.2671 -0.2174  0.2114
  206MOL    C3937349   2.637   5.827   3.963  0.8333 -0.2793  0.4667
  206MOL    C4037350   2.754   5.781   4.051  0.0230 -0.0508 -0.3659
  206MOL    H4137351   2.704   6.026   4.001  0.7224 -1.1347 -2.4696
  206MOL    H4237352   2.565   5.996   4.082  0.0896  0.8490  0.1358
  206MOL    H4337353   2.663   5.816   3.858 -0.4399 -1.5873  0.2735
  206MOL    H4437354   2.732   5.811   4.153 -1.5108 -1.0032 -0.3992
  206MOL    H4537355   2.768   5.673   4.045 -3.7138 -0.8414  3.0727
  206MOL    H4637356   2.850   5.830   4.037 -0.7371  1.1122 -1.7002
  206MOL    C4737357   2.509   5.741   4.004  0.7177  0.0142  1.0264
  206MOL    C4837358   2.460   5.622   3.919  0.4056  0.3648  0.3320
  206MOL    C4937359   2.565   5.533   3.866  0.3706  0.0660  0.5907
  206MOL    H5037360   2.527   5.705   4.105 -1.0398  1.3374  1.8414
  206MOL    H5137361   2.424   5.809   4.016  0.3620  0.1791 -2.0647
  206MOL    H5237362   2.408   5.667   3.834  2.6762  1.2758 -0.5980
  206MOL    H5337363   2.632   5.502   3.946 -0.6564  0.6565  1.6911
  206MOL    H5437364   2.534   5.457   3.795  0.8562  0.5865 -0.1867
  206MOL    H5537365   2.630   5.599   3.808  0.8658  0.0711  1.1475
  206MOL    C5637366   2.349   5.532   3.986 -0.3201 -0.5858  0.1650
  206MOL    C5737367   2.240   5.607   4.060 -0.0010  0.6556 -0.5477
  206MOL    C5837368   2.165   5.707   3.972 -0.1607 -0.3124 -0.2017
  206MOL    H5937369   2.285   5.484   3.912 -0.5050  1.9210 -1.3497
  206MOL    H6037370   2.380   5.448   4.047 -2.5038 -1.1292  0.5838
  206MOL    H6137371   2.275   5.656   4.152 -0.1976 -2.2932  1.1641
  206MOL    H6237372   2.231   5.768   3.911  1.7110 -0.3224  1.7678
  206MOL    H6337373   2.105   5.659   3.895  0.0886  0.4087 -0.8506
  206MOL    H6437374   2.100   5.779   4.023  0.3069 -0.8603  1.2034
  206MOL    C6537375   2.127   5.517   4.124  0.0282 -0.3797  0.1716
  206MOL    C6637376   2.176   5.412   4.228  0.5953 -0.0062  0.1386
  206MOL    C6737377   2.234   5.485   4.356 -0.0716 -0.1133  0.3124
  206MOL    H6837378   2.055   5.585   4.171 -0.0261 -0.3629  0.0641
  206MOL    H6937379   2.083   5.467   4.038 -0.3686  0.3094 -0.0280
  206MOL    H7037380   2.261   5.362   4.181 -0.6484  0.4468 -2.6806
  206MOL    H7137381   2.250   5.414   4.438 -0.9642 -0.6365  0.0427
  206MOL    H7237382   2.331   5.528   4.332 -1.0106  2.3887  0.9343
  206MOL    H7337383   2.168   5.560   4.400  0.2903  0.5634 -0.3103
  206MOL    C7437384   2.054   5.324   4.249  0.1872  0.9027 -0.6672
  206MOL    C7537385   2.080   5.203   4.338 -0.5328  0.4329 -0.3018
  206MOL    C7637386   1.947   5.132   4.372  0.0883  0.2360 -0.1289
  206MOL    H7737387   1.971   5.374   4.299 -0.6881 -0.5673 -0.6326
  206MOL    H7837388   2.015   5.291   4.153  0.7789  3.0361 -1.6753
  206MOL    H7937389   2.117   5.247   4.431 -0.4162  0.4452 -0.3532
  206MOL    H8037390   1.961   5.033   4.416 -0.3653  1.0258  1.8418
  206MOL    H8137391   1.896   5.194   4.446 -0.0870 -0.8657  0.6871
  206MOL    H8237392   1.883   5.112   4.286  1.5082 -0.6517 -0.9989
  206MOL    C8337393   2.187   5.106   4.282 -0.0591  0.4234 -0.1029
  206MOL    C8437394   2.268   5.020   4.381 -0.2675 -0.5139  0.0509
  206MOL    C8537395   2.348   4.905   4.304 -0.1301 -0.1758  0.3365
  206MOL    H8637396   2.136   5.033   4.219  0.3903  0.7293 -0.8292
  206MOL    H8737397   2.251   5.156   4.209 -0.8316 -1.8318 -2.4199
  206MOL    H8837398   2.204   4.960   4.446  1.1686  0.1350  2.1231
  206MOL    H8937399   2.420   4.956   4.241 -2.4328  0.4368 -1.8878
  206MOL    H9037400   2.397   4.832   4.368 -1.4538  0.6074  2.3082
  206MOL    H9137401   2.279   4.854   4.237 -1.3665  1.7257  0.1242
  206MOL    C9237402   2.368   5.116   4.464 -0.3302 -0.4105  1.1922
  206MOL    C9337403   2.385   5.078   4.610  0.1247  0.5713 -0.3240
  206MOL    C9437404   2.420   4.933   4.631 -0.2838 -0.2561  0.3977
  206MOL    H9537405   2.459   5.098   4.406 -0.5713 -0.8251  0.9378
  206MOL    H9637406   2.345   5.222   4.450 -0.9515 -0.6752  0.1386
  206MOL    H9737407   2.291   5.086   4.665 -1.0108 -2.4342 -1.7291
  206MOL    H9837408   2.351   4.860   4.590 -0.4624 -0.0969  0.4191
  206MOL    H9937409   2.524   4.904   4.613  0.6024  2.7179  0.4361
  206MOL   H10037410   2.420   4.906   4.737  2.1195 -2.7178 -0.1758
  206MOL   C10137411   2.473   5.170   4.684  0.4605  0.1688  0.2114
  206MOL   C10237412   2.455   5.327   4.663 -1.1918  0.2970  0.2966
  206MOL   C10337413   2.316   5.353   4.723 -0.0127 -0.2123  0.0583
  206MOL   H10437414   2.474   5.152   4.791  0.1438 -0.9627  0.0353
  206MOL   H10537415   2.573   5.143   4.647 -0.6848 -1.0591 -2.1540
  206MOL   H10637416   2.454   5.362   4.560 -2.1362 -1.8971 -0.4818
  206MOL   H10737417   2.291   5.459   4.715 -1.1096 -0.4963 -0.3594
  206MOL   H10837418   2.236   5.296   4.677 -2.1071  1.2832  1.7556
  206MOL   H10937419   2.311   5.340   4.831 -1.1625  3.1746  0.4704
  206MOL   C11037420   2.569   5.407   4.746  0.1188  0.6715  0.0460
  206MOL   C11137421   2.549   5.556   4.761  0.1095  0.0123 -0.7062
  206MOL   C11237422   2.666   5.620   4.831  1.3726 -0.3199 -0.0171
  206MOL   H11337423   2.577   5.369   4.848  0.7339 -1.0888 -0.6475
  206MOL   H11437424   2.659   5.376   4.694 -1.3808 -2.1980 -0.9335
  206MOL   H11537425   2.469   5.574   4.833  0.9203 -2.7888  0.9523
  206MOL   H11637426   2.699   5.579   4.927 -1.4629 -1.0590  0.6931
  206MOL   H11737427   2.749   5.614   4.761  1.2853 -2.3624  0.0065
  206MOL   H11837428   2.656   5.728   4.843  1.2254 -0.2663 -0.6088
  206MOL   C11937429   2.516   5.622   4.628 -0.0726  0.1689  0.2199
  206MOL   C12037430   2.492   5.774   4.616 -0.5055 -0.0646 -0.4742
  206MOL   C12137431   2.482   5.805   4.463  0.0016 -0.3882 -0.1054
  206MOL   H12237432   2.601   5.605   4.562  0.1814  2.2171 -0.0174
  206MOL   H12337433   2.432   5.574   4.577  0.3284 -0.4980  0.1852
  206MOL   H12437434   2.579   5.827   4.653 -0.9329 -1.5647  2.8667
  206MOL   H12537435   2.572   5.769   4.412  0.1528  0.4346 -0.4287
  206MOL   H12637436   2.392   5.753   4.431  0.6048 -1.6050  0.1603
  206MOL   H12737437   2.478   5.912   4.440  1.1896 -0.1069  0.9813
  206MOL   C12837438   2.365   5.820   4.686 -0.2652 -0.3719 -0.6900
  206MOL   C12937439   2.342   5.980   4.678  0.1494 -0.3774 -0.1140
  206MOL   C13037440   2.220   6.006   4.577 -0.0307 -0.6020 -0.2505
  206MOL   H13137441   2.270   5.770   4.669 -0.3755 -0.3181 -0.2477
  206MOL   H13237442   2.370   5.787   4.790 -3.3181  0.0784 -0.3710
  206MOL   H13337443   2.430   6.027   4.635 -0.6839 -1.0723 -2.6598
  206MOL   H13437444   2.128   5.974   4.627 -0.3674  2.7839  1.4014
  206MOL   H13537445   2.201   6.113   4.569  0.5912 -0.4426  0.3522
  206MOL   H13637446   2.231   5.952   4.483 -2.8251 -1.8251  0.0447
  206MOL   C13737447   2.327   6.037   4.814  0.0046  0.5778 -0.6704
  206MOL   C13837448   2.463   6.044   4.898  0.3768 -0.1829  0.1471
  206MOL   C13937449   2.561   6.138   4.821  0.6600  0.4215  0.6746
  206MOL   H14037450   2.279   6.135   4.810  1.9520  1.5168 -1.4789
  206MOL   H14137451   2.250   5.980   4.865  1.5684  0.2365  1.3906
  206MOL   H14237452   2.497   5.941   4.905  0.0633 -0.2093  1.3042
  206MOL   H14337453   2.597   6.098   4.726  2.2580  1.1171  0.9716
  206MOL   H14437454   2.510   6.231   4.795  2.1032  1.2903  0.9123
  206MOL   H14537455   2.648   6.164   4.881  0.5360  1.4606  0.4164
  206MOL   C14637456   2.425   6.094   5.043 -0.0262  0.5435 -0.5381
  206MOL   C14737457   2.527   6.058   5.153  0.7097  0.0289 -0.3151
  206MOL   C14837458   2.652   6.138   5.162 -0.5731  0.3398  0.0047
  206MOL   H14937459   2.418   6.203   5.040 -2.5269  0.4630  1.0440
  206MOL   H15037460   2.323   6.067   5.068 -0.1717  2.2504  0.8089
  206MOL   H15137461   2.561   5.957   5.128 -0.7546 -0.6958  0.5196
  206MOL   H15237462   2.715   6.117   5.248  1.5873  0.3600 -1.5523
  206MOL   H15337463   2.714   6.118   5.075 -0.9759 -3.1815  0.4334
  206MOL   H15437464   2.615   6.240   5.154 -0.5913  0.1844 -2.1550
  206MOL   C15537465   2.460   6.057   5.288  0.1514  0.5204 -0.2728
  206MOL   C15637466   2.522   5.959   5.391 -0.1911  0.3359 -0.3964
  206MOL   C15737467   2.488   6.012   5.539  0.3716  0.1083 -0.5499
  206MOL   H15837468   2.449   6.159   5.324 -0.3519  1.4036 -2.7944
  206MOL   H15937469   2.358   6.019   5.285  0.0097  0.9813 -2.8410
  206MOL   H16037470   2.630   5.960   5.377 -0.0020  2.7462  1.0832
  206MOL   H16137471   2.532   5.946   5.614 -0.4446 -2.7155 -2.4753
  206MOL   H16237472   2.513   6.115   5.561  1.7305 -0.4268  0.4664
  206MOL   H16337473   2.383   5.989   5.559  0.1968 -0.7312 -2.2946
  206MOL   C16437474   2.473   5.810   5.384 -0.0021  0.1056  0.1405
  206MOL   C16537475   2.506   5.720   5.259 -0.2776 -0.0875  0.3560
  206MOL   C16637476   2.665   5.714   5.228  0.3011  0.1812  0.4606
  206MOL   H16737477   2.510   5.758   5.472  1.7033 -0.0011 -0.6154
  206MOL   H16837478   2.365   5.808   5.402 -0.0460  2.6250  0.3581
  206MOL   H16937479   2.465   5.763   5.168  1.6273  0.4283 -0.2983
  206MOL   H17037480   2.710   5.811   5.210  1.5451 -1.0615 -3.6248
  206MOL   H17137481   2.714   5.658   5.309  1.2438  1.8623  1.0687
  206MOL   H17237482   2.686   5.658   5.137  0.0746 -2.4546  1.9738
  206MOL   C17337483   2.460   5.575   5.288 -0.0842  0.2847  0.0707
  206MOL   C17437484   2.487   5.475   5.171  0.3270 -0.7114 -0.9537
  206MOL   C17537485   2.410   5.342   5.180 -0.3669  0.0399 -0.2899
  206MOL   H17637486   2.516   5.529   5.370 -0.6417  2.1707  1.5346
  206MOL   H17737487   2.353   5.566   5.304 -0.3297  0.5304 -1.3174
  206MOL   H17837488   2.596   5.466   5.170  0.5999  1.3654  1.8570
  206MOL   H17937489   2.435   5.297   5.276  0.5891 -2.9716 -1.8793
  206MOL   H18037490   2.304   5.349   5.153 -0.8329 -0.6717  1.2841
  206MOL   H18137491   2.454   5.273   5.108  1.8639  1.5149 -0.3480
  206MOL   H18237492   2.466   5.520   5.074  0.9261  0.6098 -0.4880
  207MOL     C137493   3.251   0.216   0.020 -0.6311 -0.3669  0.4755
  207MOL     C237494   3.381   0.235   7.643 -0.4490 -0.1597  0.1191
  207MOL     C337495   3.350   0.232   7.492  0.3251  0.3636 -0.0174
  207MOL     H437496   3.196   0.132   7.673  1.3818 -0.6062 -1.6525
  207MOL     H537497   3.191   0.307   0.025  0.4147  0.3560 -0.0617
  207MOL     H637498   3.450   0.155   7.672 -1.2637 -0.6623  0.7147
  207MOL     H737499   3.308   0.140   7.454  1.0027 -0.1239  0.4061
  207MOL     H837500   3.271   0.301   7.461 -1.3357 -2.4591 -2.2084
  207MOL     H937501   3.440   0.249   7.432  0.6324  1.5012  0.7473
  207MOL    H1037502   3.269   0.187   0.123 -2.5852 -0.5633  0.7913
  207MOL    C1137503   3.440   0.372   7.692 -0.2575 -0.0409  0.1837
  207MOL    C1237504   3.591   0.383   7.644 -0.8529  0.3594 -0.3367
  207MOL    C1337505   3.596   0.503   7.550 -0.1959  0.6121 -0.0544
  207MOL    H1437506   3.382   0.440   7.629  0.9963  1.1239  0.2730
  207MOL    H1537507   3.416   0.396   0.098  1.3586 -1.3868  0.8992
  207MOL    H1637508   3.627   0.299   7.584 -3.1732  0.8830 -2.5709
  207MOL    H1737509   3.510   0.504   7.483  0.2323  0.9258 -0.5999
  207MOL    H1837510   3.605   0.591   7.614 -2.0786  0.6766  0.1766
  207MOL    H1937511   3.686   0.490   7.490 -2.2211  1.0021 -3.3142
  207MOL    C2037512   3.689   0.386   0.065 -0.7885  0.1441  0.6282
  207MOL    C2137513   3.840   0.389   0.024  0.4745 -0.0052 -0.2112
  207MOL    C2237514   3.882   0.531   7.682 -0.2512 -0.5615 -0.4249
  207MOL    H2337515   3.667   0.464   0.138 -0.9903  1.0694 -0.4082
  207MOL    H2437516   3.674   0.287   0.107 -1.0440  0.9010  2.3710
  207MOL    H2537517   3.862   0.320   7.640  0.2127 -1.1650  0.6943
  207MOL    H2637518   3.985   0.534   7.647 -0.2692 -2.4091 -0.6770
  207MOL    H2737519   3.830   0.558   7.590 -0.0785 -0.4364 -0.4861
  207MOL    H2837520   3.869   0.616   0.052 -0.6931  0.6637 -2.0316
  207MOL    C2937521   3.927   0.345   0.141  0.6349  0.0420 -0.1385
  207MOL    C3037522   3.960   0.192   0.156  0.1060  0.3802  0.5255
  207MOL    C3137523   4.055   0.138   0.040  0.7104 -0.1051 -0.7535
  207MOL    H3237524   4.020   0.398   0.123 -0.3289  1.7553 -0.2249
  207MOL    H3337525   3.897   0.384   0.239  0.0876 -0.6309 -0.0382
  207MOL    H3437526   3.864   0.143   0.137 -0.9894  2.7086 -0.1021
  207MOL    H3537527   4.019   0.159   7.637 -1.0862  0.6130  0.0208
  207MOL    H3637528   4.157   0.175   0.045  0.8180 -0.5570  0.8056
  207MOL    H3737529   4.062   0.029   0.042  1.1818 -0.0820 -1.3300
  207MOL    C3837530   4.017   0.154   0.303 -0.1344 -0.1140  0.9565
  207MOL    C3937531   4.086   0.020   0.322  0.2308  0.1457 -0.5783
  207MOL    C4037532   4.160   0.008   0.450 -0.4866 -0.6775  0.2189
  207MOL    H4137533   4.091   0.233   0.314  0.2105 -0.4635  1.1701
  207MOL    H4237534   3.943   0.169   0.381  0.2437 -1.2973  1.5585
  207MOL    H4337535   4.156   0.015   0.239 -0.3805 -1.2751 -1.0201
  207MOL    H4437536   4.233   7.626   0.464  0.8489  0.4797 -0.0537
  207MOL    H4537537   4.230   0.089   0.474  0.0515 -1.6840  2.1629
  207MOL    H4637538   4.108   7.693   0.545  0.2683  1.1184  0.8908
  207MOL    C4737539   3.979   7.611   0.319 -0.2489 -0.2525 -0.1707
  207MOL    C4837540   4.028   7.463   0.324 -0.0409 -1.0562  0.7205
  207MOL    C4937541   3.906   7.375   0.372  0.2090 -0.3094 -0.1430
  207MOL    H5037542   3.918   7.640   0.404  0.3178 -2.7732  1.1509
  207MOL    H5137543   3.923   7.606   0.225 -1.1301 -2.1437  0.4252
  207MOL    H5237544   4.106   7.444   0.397 -0.0791  0.0933  1.0668
  207MOL    H5337545   3.825   7.422   0.428 -0.5332 -0.3394 -1.1903
  207MOL    H5437546   3.859   7.321   0.291 -0.0519 -0.3815  0.0581
  207MOL    H5537547   3.945   7.294   0.433 -1.3398 -0.5604  0.5105
  207MOL    C5637548   4.074   7.428   0.181  0.2535  0.0663  0.0548
  207MOL    C5737549   4.226   7.414   0.161 -0.2395 -0.9007  0.4040
  207MOL    C5837550   4.266   7.281   0.239  0.5945 -0.2126 -0.7500
  207MOL    H5937551   4.042   7.332   0.141  0.1651 -0.0802  0.4769
  207MOL    H6037552   4.028   7.492   0.106  1.5547 -2.0241 -2.6157
  207MOL    H6137553   4.282   7.501   0.193 -0.4317 -0.5690 -0.1610
  207MOL    H6237554   4.362   7.247   0.199  0.5229  1.3543 -2.3268
  207MOL    H6337555   4.280   7.288   0.346 -1.7247 -2.0390 -0.2874
  207MOL    H6437556   4.190   7.203   0.229  1.3557 -0.6689 -3.4099
  207MOL    C6537557   4.263   7.397   0.013  0.3908  0.2910  0.6851
  207MOL    C6637558   4.249   7.518   7.613  0.0968  0.1381  0.2370
  207MOL    C6737559   4.327   7.639   7.658  0.0738 -0.0601 -0.2717
  207MOL    H6837560   4.364   7.356   0.010  0.1303 -0.3112 -0.3787
  207MOL    H6937561   4.191   7.323   7.674 -0.0010  1.5332 -1.1337
  207MOL    H7037562   4.143   7.542   7.620  0.4787  1.2412  2.7138
  207MOL    H7137563   4.313   7.667   0.065 -0.8249  0.7588 -0.6003
  207MOL    H7237564   4.435   7.629   7.648  0.1173  0.0328  0.0968
  207MOL    H7337565   4.299   0.031   7.602  0.0425 -1.1876 -2.1145
  207MOL    C7437566   4.295   7.467   7.475 -0.2767 -0.5538 -0.5343
  207MOL    C7537567   4.188   7.492   7.360 -0.1893 -0.3119  0.2897
  207MOL    C7637568   4.258   7.453   7.223  0.1491  0.1327  0.4542
  207MOL    H7737569   4.390   7.513   7.448 -0.7317 -0.2712 -1.6858
  207MOL    H7837570   4.317   7.360   7.472  3.7603  0.2046 -1.9053
  207MOL    H7937571   4.157   7.596   7.354 -1.3298 -0.7678 -2.8390
  207MOL    H8037572   4.347   7.514   7.207 -0.2302  1.4341  3.1945
  207MOL    H8137573   4.289   7.348   7.218 -1.3614 -0.3688  1.2391
  207MOL    H8237574   4.183   7.478   7.148  0.8250  0.7443 -0.0207
  207MOL    C8337575   4.063   7.409   7.396  0.5695  0.2435  0.2574
  207MOL    C8437576   3.948   7.416   7.302 -0.0925  0.1835  0.1715
  207MOL    C8537577   3.948   7.290   7.207  0.6481  0.3211  0.0245
  207MOL    H8637578   4.100   7.308   7.408 -1.7913 -0.9301 -1.8189
  207MOL    H8737579   4.028   7.442   7.494 -0.9483  0.2414 -0.2654
  207MOL    H8837580   3.965   7.501   7.236 -0.0365  2.1043  2.5752
  207MOL    H8937581   4.047   7.254   7.178  0.7590 -0.6636  1.6045
  207MOL    H9037582   3.906   7.204   7.258  2.2286 -0.6760 -0.3000
  207MOL    H9137583   3.890   7.296   7.115 -0.1724 -0.2380  0.5056
  207MOL    C9237584   3.811   7.434   7.380 -0.0694  0.4624 -0.1880
  207MOL    C9337585   3.772   7.571   7.441  0.4312 -0.3617 -0.1760
  207MOL    C9437586   3.788   7.682   7.338  0.8296  0.1957  0.1849
  207MOL    H9537587   3.735   7.403   7.308 -0.7665  1.5073  0.0870
  207MOL    H9637588   3.821   7.354   7.453 -1.4682 -0.0350 -0.5285
  207MOL    H9737589   3.841   7.590   7.523 -0.2417  0.2811  0.2396
  207MOL    H9837590   3.758   0.084   7.371 -2.1754 -0.9518  1.1277
  207MOL    H9937591   3.883   0.002   7.288  0.9930 -0.4359  0.2625
  207MOL   H10037592   3.717   7.664   7.257 -0.3693 -0.7399  1.4226
  207MOL   C10137593   3.629   7.576   7.502  0.0293 -0.3628  0.6270
  207MOL   C10237594   3.613   7.507   7.634  0.6734  0.2756 -0.4423
  207MOL   C10337595   3.718   7.561   0.045  0.8464  0.3509  0.0753
  207MOL   H10437596   3.608   7.682   7.515 -0.1261 -0.5320  1.7762
  207MOL   H10537597   3.546   7.557   7.433 -0.3872  2.0339  0.4041
  207MOL   H10637598   3.622   7.399   7.624  0.9383  0.3929 -1.5722
  207MOL   H10737599   3.813   7.516   0.018  1.2016  1.2956 -0.2671
  207MOL   H10837600   3.707   7.669   0.059 -2.1439  0.0848  0.1159
  207MOL   H10937601   3.678   7.517   0.136  0.0375 -1.5576 -1.1695
  207MOL   C11037602   3.464   7.530   7.678 -0.3020 -0.1152  0.0240
  207MOL   C11137603   3.375   7.409   0.008  0.5960  0.3253  0.2087
  207MOL   C11237604   3.447   7.312   0.118  0.3051 -0.1332 -0.0526
  207MOL   H11337605   3.464   7.597   0.067 -0.8270  0.8197 -0.6856
  207MOL   H11437606   3.409   7.591   7.606  0.0511  2.0925  1.5395
  207MOL   H11537607   3.370   7.355   7.610 -0.6278  0.8825 -0.0456
  207MOL   H11637608   3.540   7.268   0.083  0.2245 -0.7070  0.4455
  207MOL   H11737609   3.476   7.364   0.210 -1.6453  0.3576  0.3034
  207MOL   H11837610   3.388   7.223   0.139 -1.8894  0.6181 -2.7553
  207MOL   C11937611   3.229   7.443   0.043 -0.1200  0.1983  1.2282
  207MOL   C12037612   3.121   7.323   0.041 -0.2866  0.7161  0.3581
  207MOL   C12137613   2.989   7.362   0.118 -0.5463  0.3829  0.3657
  207MOL   H12237614   3.229   7.493   0.140  0.1544 -0.5525  1.6178
  207MOL   H12337615   3.188   7.515   7.670  0.6176  0.1361  0.7199
  207MOL   H12437616   3.170   7.249   0.103 -0.5792  0.4131  0.2277
  207MOL   H12537617   3.005   7.412   0.214  0.0778  1.5747 -0.3428
  207MOL   H12637618   2.929   7.434   0.061 -0.9285 -1.1927 -1.2657
  207MOL   H12737619   2.921   7.278   0.135  0.6106  0.0206  3.5040
  207MOL   C12837620   3.077   7.276   7.600  0.1064 -0.3610  0.0481
  207MOL   C12937621   2.993   7.145   7.574 -0.1678  0.0994  0.6037
  207MOL   C13037622   3.005   7.121   7.418  0.5058  0.0251  0.2812
  207MOL   H13137623   3.031   7.357   7.543 -0.4590  0.8534  2.1724
  207MOL   H13237624   3.171   7.266   7.546  0.2474  1.4866 -0.0634
  207MOL   H13337625   2.889   7.165   7.598  0.0358  2.4850 -0.4155
  207MOL   H13437626   2.921   7.060   7.384  0.5779  1.1318 -1.9508
  207MOL   H13537627   3.001   7.211   7.357  0.8205  0.7842  1.3482
  207MOL   H13637628   3.100   7.068   7.405  0.8496  0.2523  1.7654
  207MOL   C13737629   3.032   7.029   7.668 -0.1224 -0.5686  0.3819
  207MOL   C13837630   2.936   6.912   7.673 -0.4015  0.0835 -0.3479
  207MOL   C13937631   2.996   6.787   0.046  0.0867 -0.2466  0.4901
  207MOL   H14037632   3.132   6.992   7.647  0.0884  0.7754 -1.0682
  207MOL   H14137633   3.033   7.064   0.073  1.3458  0.4808  0.0166
  207MOL   H14237634   2.938   6.886   7.567  1.4972  2.4154 -0.9061
  207MOL   H14337635   3.064   6.735   7.677 -1.7059 -0.4294 -1.2480
  207MOL   H14437636   3.050   6.813   0.137 -0.2465  0.5620  0.4669
  207MOL   H14537637   2.916   6.714   0.058 -0.7761  0.6203  0.0850
  207MOL   C14637638   2.798   6.942   0.044  0.1705  0.1368  1.0953
  207MOL   C14737639   2.679   6.859   7.685 -0.6933 -0.1587  0.0754
  207MOL   C14837640   2.563   6.871   0.092 -0.8187 -0.0318  0.2866
  207MOL   H14937641   2.816   6.950   0.151 -1.5040  3.4382  1.1901
  207MOL   H15037642   2.774   7.046   0.023 -0.8581 -0.2319  0.3468
  207MOL   H15137643   2.715   6.756   7.676  0.5946  0.0040  2.7883
  207MOL   H15237644   2.508   6.965   0.094 -1.6540 -0.5224  2.8998
  207MOL   H15337645   2.489   6.792   0.081 -1.2124  0.5535 -1.4234
  207MOL   H15437646   2.610   6.861   0.190 -1.7947 -2.0677  0.5610
  207MOL   C15537647   2.646   6.898   7.537 -0.2279 -0.6612  1.2321
  207MOL   C15637648   2.540   6.828   7.456 -0.9253  0.2637 -0.4042
  207MOL   C15737649   2.566   6.679   7.439  0.1058 -0.7403  0.0235
  207MOL   H15837650   2.620   7.004   7.537 -1.5516 -0.8778 -2.8539
  207MOL   H15937651   2.740   6.889   7.482 -1.4361 -1.3982 -0.7748
  207MOL   H16037652   2.553   6.866   7.355  0.7071 -0.7153 -0.5831
  207MOL   H16137653   2.666   6.664   7.399 -0.1927  1.5360 -1.6577
  207MOL   H16237654   2.564   6.609   7.523 -0.8160  0.0081  0.6470
  207MOL   H16337655   2.490   6.646   7.369 -1.6533  2.0478  0.5451
  207MOL   C16437656   2.390   6.854   7.492  0.3302 -0.2268  0.2847
  207MOL   C16537657   2.349   7.003   7.504 -0.2556 -0.9767  0.0583
  207MOL   C16637658   2.382   7.086   7.377 -0.0906 -0.0516  0.1148
  207MOL   H16737659   2.337   6.811   7.407  2.2494 -1.6985 -0.2029
  207MOL   H16837660   2.356   6.801   7.581 -0.1924 -0.3814 -0.0081
  207MOL   H16937661   2.386   7.048   7.596 -0.3209  0.1223 -0.4400
  207MOL   H17037662   2.357   7.191   7.394  0.3877  0.0637  0.1002
  207MOL   H17137663   2.489   7.093   7.358 -0.0128 -1.4831  0.0117
  207MOL   H17237664   2.333   7.045   7.288 -0.1020 -0.7305  0.4298
  207MOL   C17337665   2.195   6.991   7.528  0.0052 -0.5424  0.7268
  207MOL   C17437666   2.134   7.128   7.564  0.3186  0.0764 -0.3507
  207MOL   C17537667   1.980   7.134   7.569 -0.3603  0.0252  0.4672
  207MOL   H17637668   2.139   6.953   7.443  1.1661  0.9212 -0.7109
  207MOL   H17737669   2.181   6.924   7.613  2.8745 -2.6380 -0.3471
  207MOL   H17837670   2.161   7.205   7.492  1.3138  0.0065 -0.0591
  207MOL   H17937671   1.937   7.081   7.484  0.0159  1.6325 -0.7492
  207MOL   H18037672   1.952   7.098   7.668  2.3932 -2.1315  0.5301
  207MOL   H18137673   1.942   7.236   7.564  0.4690  0.2946 -0.4950
  207MOL   H18237674   2.173   7.165   7.659 -1.8229  0.2049  0.5314
  208MOL     C137675   5.333   5.495   5.748 -0.1495 -0.0087 -0.1533
  208MOL     C237676   5.211   5.582   5.720  0.3837  0.5714  0.6651
  208MOL     C337677   5.085   5.503   5.727 -0.3747 -0.2411 -0.0358
  208MOL     H437678   5.351   5.419   5.672  0.7693 -1.3923  1.4088
  208MOL     H537679   5.314   5.439   5.840  2.6326 -2.0147 -0.7112
  208MOL     H637680   5.230   5.611   5.616 -0.9610 -0.9476 -0.0104
  208MOL     H737681   5.101   5.416   5.663  0.1720 -0.1613 -0.0112
  208MOL     H837682   5.073   5.468   5.830 -0.1939 -1.8558 -0.5476
  208MOL     H937683   4.994   5.549   5.688 -0.7515 -2.2473 -1.5849
  208MOL    H1037684   5.428   5.546   5.762  0.5197 -1.1190 -0.5496
  208MOL    C1137685   5.207   5.710   5.808 -0.2042 -0.4401 -0.2890
  208MOL    C1237686   5.321   5.810   5.789  0.2740  0.6734  0.9977
  208MOL    C1337687   5.311   5.883   5.652 -0.7316  0.3423 -0.4790
  208MOL    H1437688   5.107   5.752   5.796  0.1323  0.4520 -0.0331
  208MOL    H1537689   5.201   5.678   5.912  0.0029  4.1048  1.2421
  208MOL    H1637690   5.419   5.762   5.788  0.0669  0.2759 -0.6647
  208MOL    H1737691   5.316   5.823   5.562  1.8482 -0.4030  0.1108
  208MOL    H1837692   5.213   5.931   5.651 -1.1923 -0.6101 -1.1687
  208MOL    H1937693   5.387   5.961   5.644  0.1913 -0.4224  0.6739
  208MOL    C2037694   5.313   5.914   5.902  0.2718  0.2398 -0.1869
  208MOL    C2137695   5.188   5.994   5.928 -0.3898 -0.3372  0.1111
  208MOL    C2237696   5.107   5.940   6.047 -0.3096  0.5033 -0.0649
  208MOL    H2337697   5.352   5.871   5.994 -1.0662 -0.9575 -0.1543
  208MOL    H2437698   5.389   5.989   5.880 -0.1211  0.1442 -1.9456
  208MOL    H2537699   5.122   5.988   5.842  1.2199 -2.2059 -1.0259
  208MOL    H2637700   5.005   5.975   6.033  0.3915  2.3530 -0.6838
  208MOL    H2737701   5.087   5.833   6.043  0.6177  0.2682  1.2340
  208MOL    H2837702   5.142   5.964   6.148 -1.7604 -1.0293  0.8486
  208MOL    C2937703   5.208   6.147   5.961 -0.0736  0.9619 -0.9865
  208MOL    C3037704   5.258   6.235   5.839  0.8786 -0.5976 -0.6991
  208MOL    C3137705   5.153   6.252   5.735  0.4643 -0.1139 -0.0637
  208MOL    H3237706   5.112   6.186   5.993 -0.6390 -0.2005 -1.2678
  208MOL    H3337707   5.281   6.163   6.040 -0.9615 -0.6786  0.1954
  208MOL    H3437708   5.341   6.181   5.793  1.5867 -0.9458  0.9391
  208MOL    H3537709   5.108   6.155   5.711  0.0668  0.4163 -1.5852
  208MOL    H3637710   5.074   6.320   5.767  0.1076 -0.7396  0.4069
  208MOL    H3737711   5.194   6.291   5.642  1.7871 -1.6392 -0.1381
  208MOL    C3837712   5.299   6.379   5.894 -0.2814 -0.0347  0.4787
  208MOL    C3937713   5.426   6.381   5.985 -0.1993 -0.1932  0.6826
  208MOL    C4037714   5.549   6.336   5.912 -0.3766 -0.2154 -0.3347
  208MOL    H4137715   5.319   6.440   5.806  0.6267 -0.2529  0.5263
  208MOL    H4237716   5.206   6.413   5.939 -0.2378  1.1999 -0.3371
  208MOL    H4337717   5.407   6.316   6.070  1.8713  0.3836  1.6137
  208MOL    H4437718   5.554   6.390   5.817 -1.5374  1.4907  0.5483
  208MOL    H4537719   5.634   6.369   5.972 -1.2919 -0.4768  1.1204
  208MOL    H4637720   5.560   6.228   5.907  0.9543 -0.1464  0.8718
  208MOL    C4737721   5.452   6.520   6.043  0.2691 -0.5614 -0.4652
  208MOL    C4837722   5.332   6.584   6.121 -0.2809  0.3815 -0.3882
  208MOL    C4937723   5.264   6.492   6.223  0.2995  0.4218  0.0273
  208MOL    H5037724   5.543   6.529   6.103  0.5631  2.0188 -1.2360
  208MOL    H5137725   5.477   6.577   5.954  1.2222 -0.1615  0.0511
  208MOL    H5237726   5.255   6.608   6.046  0.8839  0.8974 -1.4383
  208MOL    H5337727   5.185   6.434   6.176  0.0555  0.0177  0.9074
  208MOL    H5437728   5.336   6.425   6.270 -1.0958  0.2109  1.9311
  208MOL    H5537729   5.210   6.552   6.297  1.9855  1.3664  0.5306
  208MOL    C5637730   5.384   6.720   6.183  0.7056 -0.8702  0.6577
  208MOL    C5737731   5.275   6.820   6.226  0.3474 -0.5005  0.0749
  208MOL    C5837732   5.334   6.909   6.332  0.6527 -0.7178  0.1033
  208MOL    H5937733   5.457   6.689   6.257 -0.0437  2.2848  2.7797
  208MOL    H6037734   5.453   6.763   6.110  2.5480 -3.5090  0.7667
  208MOL    H6137735   5.189   6.767   6.266 -1.0620  0.0641 -2.0879
  208MOL    H6237736   5.384   6.850   6.409 -2.7709 -0.3128  2.7521
  208MOL    H6337737   5.410   6.980   6.299  1.5192 -1.5767  0.2328
  208MOL    H6437738   5.257   6.950   6.398 -0.8885 -0.7748 -1.6211
  208MOL    C6537739   5.231   6.898   6.101  0.6605 -0.1440  0.4212
  208MOL    C6637740   5.092   6.966   6.116 -0.0269 -0.5774  0.1106
  208MOL    C6737741   5.099   7.097   6.200  0.1539 -0.5221 -0.8717
  208MOL    H6837742   5.310   6.970   6.080  0.0648  0.5790  0.6435
  208MOL    H6937743   5.217   6.824   6.021  0.5373  0.6998 -0.3435
  208MOL    H7037744   5.025   6.892   6.159 -0.6010 -0.6254 -0.8497
  208MOL    H7137745   5.176   7.159   6.155 -1.7732  2.8899  0.3825
  208MOL    H7237746   5.011   7.160   6.195 -1.4968 -2.7241 -0.5922
  208MOL    H7337747   5.123   7.084   6.306  0.2419  0.2214 -0.8014
  208MOL    C7437748   5.036   7.005   5.976 -0.1084 -0.2158 -0.0711
  208MOL    C7537749   4.884   7.035   5.975 -0.7938  0.2585 -0.2034
  208MOL    C7637750   4.861   7.170   5.908  0.6698  0.1586  0.3724
  208MOL    H7737751   5.086   7.099   5.952  1.4955 -1.3970 -1.4751
  208MOL    H7837752   5.069   6.922   5.914 -3.2983 -1.9208  0.4316
  208MOL    H7937753   4.855   7.034   6.080 -0.8665  1.2426 -0.2031
  208MOL    H8037754   4.899   7.157   5.807 -0.1491 -0.1117  0.0998
  208MOL    H8137755   4.756   7.201   5.907  0.2400 -1.2448  0.6233
  208MOL    H8237756   4.924   7.250   5.947  1.3136  0.3736 -1.0842
  208MOL    C8337757   4.801   6.923   5.909  0.1499  0.5568  0.1356
  208MOL    C8437758   4.789   6.799   5.997 -0.3149  0.1964  0.3585
  208MOL    C8537759   4.690   6.830   6.110  0.4298  0.2094  0.3517
  208MOL    H8637760   4.704   6.963   5.880 -0.0658  0.5393  0.8200
  208MOL    H8737761   4.853   6.899   5.817  2.9683  0.3744  1.6976
  208MOL    H8837762   4.887   6.776   6.041  0.8162  1.2614 -1.5463
  208MOL    H8937763   4.743   6.902   6.172  1.3775 -0.8634  0.7964
  208MOL    H9037764   4.598   6.877   6.074 -0.3562  1.0456  3.3229
  208MOL    H9137765   4.665   6.742   6.169  0.1535 -0.5981 -0.9531
  208MOL    C9237766   4.742   6.676   5.911  0.1478 -0.1535 -0.4342
  208MOL    C9337767   4.844   6.622   5.807  0.0235 -0.9712  0.0629
  208MOL    C9437768   4.994   6.613   5.843  0.3109  0.5784  0.5771
  208MOL    H9537769   4.727   6.591   5.978 -0.8981 -0.3174 -0.8606
  208MOL    H9637770   4.651   6.716   5.866 -0.5382  0.4599  1.4749
  208MOL    H9737771   4.848   6.692   5.723  1.0087 -1.7312 -0.5396
  208MOL    H9837772   5.028   6.568   5.749 -3.2731  0.3708 -0.7043
  208MOL    H9937773   5.051   6.705   5.856  2.0422  0.1779 -3.4093
  208MOL   H10037774   5.011   6.544   5.925  0.6294  0.6314  0.5545
  208MOL   C10137775   4.803   6.486   5.746  0.3886  1.0393  0.7367
  208MOL   C10237776   4.653   6.463   5.723 -0.2159  0.0153 -0.4051
  208MOL   C10337777   4.600   6.569   5.615  0.2402 -0.4565  0.2363
  208MOL   H10437778   4.863   6.476   5.655  1.2466  0.0255  1.4127
  208MOL   H10537779   4.846   6.408   5.807  0.1550  0.2523 -0.0830
  208MOL   H10637780   4.605   6.485   5.819  1.8431  1.1115  0.3996
  208MOL   H10737781   4.668   6.571   5.530  0.0791  1.2219  0.1329
  208MOL   H10837782   4.497   6.553   5.582  0.5398  1.9870 -2.0347
  208MOL   H10937783   4.606   6.670   5.654 -0.4107  0.8061 -2.8181
  208MOL   C11037784   4.621   6.327   5.675 -0.1929  0.1449 -0.3165
  208MOL   C11137785   4.548   6.245   5.782 -0.2344  0.6145 -0.3230
  208MOL   C11237786   4.468   6.137   5.710  0.4988  0.3105  0.6790
  208MOL   H11337787   4.561   6.336   5.584 -0.4242 -0.4684 -0.2298
  208MOL   H11437788   4.710   6.269   5.650 -0.4056 -0.5110  0.4485
  208MOL   H11537789   4.472   6.309   5.827  0.2805  1.9800 -1.3726
  208MOL   H11637790   4.433   6.176   5.614  0.9507  0.8680  0.7359
  208MOL   H11737791   4.527   6.047   5.689 -1.1449 -1.1017  1.9890
  208MOL   H11837792   4.384   6.094   5.763  1.1543 -0.0148  1.4709
  208MOL   C11937793   4.642   6.179   5.882  0.1498 -0.6064 -0.0168
  208MOL   C12037794   4.664   6.253   6.017  0.3840  0.9478  0.4183
  208MOL   C12137795   4.535   6.235   6.095  0.2481 -0.1033  0.1943
  208MOL   H12237796   4.603   6.085   5.919 -0.2025 -0.0716  1.0052
  208MOL   H12337797   4.734   6.160   5.827  0.6571  0.5570  0.3911
  208MOL   H12437798   4.694   6.357   6.005  0.3420  0.8442 -0.6360
  208MOL   H12537799   4.519   6.132   6.125  0.9188  0.0821  1.2308
  208MOL   H12637800   4.546   6.290   6.188  1.7573  1.6802 -0.9898
  208MOL   H12737801   4.443   6.266   6.045 -0.0500 -0.9109  0.2298
  208MOL   C12837802   4.784   6.183   6.091 -0.4662  0.0973 -0.4167
  208MOL   C12937803   4.828   6.242   6.230  0.0421  0.1881  0.1848
  208MOL   C13037804   4.954   6.173   6.283  0.6737  0.3029  0.7095
  208MOL   H13137805   4.766   6.076   6.101 -2.7510  0.4349 -0.5991
  208MOL   H13237806   4.870   6.189   6.025  0.2292  1.9040  0.6004
  208MOL   H13337807   4.747   6.226   6.301  0.5687  1.9563  1.2172
  208MOL   H13437808   4.986   6.219   6.376 -1.1826 -0.8282  1.9421
  208MOL   H13537809   4.933   6.068   6.305  0.3398  0.1977 -0.0911
  208MOL   H13637810   5.040   6.185   6.217  2.1938 -0.8791  2.3951
  208MOL   C13737811   4.858   6.397   6.232  0.1294 -0.2936 -0.5111
  208MOL   C13837812   4.863   6.474   6.369  0.5329 -0.4190  0.1305
  208MOL   C13937813   4.919   6.617   6.352 -0.4760 -0.6923  0.4815
  208MOL   H14037814   4.952   6.417   6.181  0.4684  2.9953  1.2959
  208MOL   H14137815   4.789   6.448   6.164 -0.5628 -3.3050 -2.1757
  208MOL   H14237816   4.931   6.412   6.427  2.1010  1.6798  0.5859
  208MOL   H14337817   4.997   6.616   6.276  0.9392 -0.4848  1.8995
  208MOL   H14437818   4.851   6.698   6.325 -0.0155 -0.2768  0.5571
  208MOL   H14537819   4.971   6.642   6.445  0.4330  1.2416 -0.5207
  208MOL   C14637820   4.732   6.483   6.447 -0.2688  0.3011  0.8990
  208MOL   C14737821   4.748   6.517   6.595 -0.7785 -0.4211 -0.3866
  208MOL   C14837822   4.673   6.650   6.628  0.6149  0.0041 -0.0734
  208MOL   H14937823   4.662   6.551   6.400 -0.0894 -0.7474 -0.9255
  208MOL   H15037824   4.686   6.384   6.438  1.6595 -0.5435  0.0261
  208MOL   H15137825   4.852   6.531   6.626  0.3404 -3.5400 -2.4943
  208MOL   H15237826   4.736   6.731   6.593  0.2390  0.8407  1.1470
  208MOL   H15337827   4.586   6.648   6.562  1.9430  0.6876 -1.8497
  208MOL   H15437828   4.645   6.667   6.732  2.6111 -0.2863  0.5287
  208MOL   C15537829   4.696   6.405   6.687 -0.0384  0.3743 -0.2749
  208MOL   C15637830   4.788   6.278   6.683  0.2785  0.7725  0.6976
  208MOL   C15737831   4.929   6.306   6.735  0.2091  0.0375 -0.2236
  208MOL   H15837832   4.682   6.439   6.789 -1.8833 -0.5835 -0.1866
  208MOL   H15937833   4.593   6.387   6.658 -0.4392  2.0133  0.0729
  208MOL   H16037834   4.805   6.245   6.581 -2.6979 -1.5279  0.8697
  208MOL   H16137835   4.977   6.381   6.672 -2.1469  2.4169  0.7212
  208MOL   H16237836   4.921   6.329   6.841  1.4310 -2.0714  0.3453
  208MOL   H16337837   4.991   6.218   6.720  1.4850  1.1194 -1.5267
  208MOL   C16437838   4.714   6.166   6.759 -0.4412  0.2290  0.3370
  208MOL   C16537839   4.745   6.029   6.696 -0.1075 -0.3616  0.8100
  208MOL   C16637840   4.761   5.918   6.795  0.8183  0.6717 -0.1400
  208MOL   H16737841   4.737   6.154   6.865 -0.0245 -0.3586  0.1818
  208MOL   H16837842   4.606   6.183   6.760 -0.1635  2.2105 -0.3934
  208MOL   H16937843   4.840   6.046   6.644 -2.2647  0.3873 -3.1470
  208MOL   H17037844   4.838   5.850   6.759  0.0394 -0.0179 -0.5116
  208MOL   H17137845   4.798   5.960   6.889  2.0860  0.9972 -0.7756
  208MOL   H17237846   4.662   5.872   6.805  0.5763  1.0649 -0.6945
  208MOL   C17337847   4.644   5.996   6.580 -0.0656  1.1479 -0.3548
  208MOL   C17437848   4.684   5.883   6.488 -0.2859 -0.1570 -0.3384
  208MOL   C17537849   4.583   5.866   6.383  0.1034  0.4555 -0.4256
  208MOL   H17637850   4.545   5.974   6.621  0.6571 -0.7313  0.4246
  208MOL   H17737851   4.628   6.085   6.518  1.1234  0.8783 -1.0655
  208MOL   H17837852   4.699   5.785   6.532 -2.0770  1.2629  3.6287
  208MOL   H17937853   4.489   5.841   6.433 -0.9222 -0.4328 -2.7445
  208MOL   H18037854   4.570   5.960   6.330  0.2402  0.2913 -0.7540
  208MOL   H18137855   4.597   5.781   6.316 -0.8689  1.3708 -1.8114
  208MOL   H18237856   4.777   5.918   6.442  0.1837  1.2952  1.6580
  209MOL     C137857   6.799   6.070   0.683 -0.0744  0.4896  0.4969
  209MOL     C237858   6.759   6.052   0.826  0.5298  1.2501 -0.3240
  209MOL     C337859   6.859   5.955   0.893 -0.5746 -0.1977  0.4263
  209MOL     H437860   6.731   6.149   0.653 -1.2982 -0.1810  1.4613
  209MOL     H537861   6.780   5.981   0.623 -1.4956  1.7210 -0.9238
  209MOL     H637862   6.660   6.007   0.817  0.9907  0.1909 -0.1153
  209MOL     H737863   6.957   6.002   0.902 -1.5290  1.9210  0.0380
  209MOL     H837864   6.825   5.938   0.995  0.9429  0.9843  1.1464
  209MOL     H937865   6.861   5.855   0.850 -1.3189 -1.2029  2.6159
  209MOL    H1037866   6.898   6.110   0.661  0.5756 -0.8772  0.9063
  209MOL    C1137867   6.750   6.196   0.890 -0.0220 -0.3731  0.7000
  209MOL    C1237868   6.734   6.205   1.045  0.2444 -0.4639  0.4091
  209MOL    C1337869   6.775   6.346   1.094  0.8818  0.6556  0.0376
  209MOL    H1437870   6.829   6.264   0.858  0.0850 -0.6726  0.3297
  209MOL    H1537871   6.655   6.235   0.851 -0.4033 -0.3002  1.6928
  209MOL    H1637872   6.801   6.132   1.092 -0.2397 -0.6524  0.8060
  209MOL    H1737873   6.882   6.351   1.115  0.7014  1.6006  0.7497
  209MOL    H1837874   6.753   6.428   1.025  0.3730  1.9785  1.7407
  209MOL    H1937875   6.726   6.370   1.188 -1.2029  1.0156 -1.1206
  209MOL    C2037876   6.591   6.161   1.085 -0.6064  0.3500 -0.1858
  209MOL    C2137877   6.560   6.163   1.241  0.2819  0.3626 -0.0254
  209MOL    C2237878   6.413   6.136   1.278  0.0020  0.3122  0.3452
  209MOL    H2337879   6.525   6.225   1.026  0.3116 -0.0599 -1.6771
  209MOL    H2437880   6.592   6.062   1.040  3.6793  0.7989 -1.2538
  209MOL    H2537881   6.574   6.263   1.281  1.7701  0.3814 -0.5529
  209MOL    H2637882   6.351   6.202   1.217  0.7500  0.0512 -0.7030
  209MOL    H2737883   6.377   6.035   1.259  2.0914 -0.3066 -0.4934
  209MOL    H2837884   6.385   6.168   1.378  0.1068  1.1239  0.1171
  209MOL    C2937885   6.654   6.059   1.318 -0.0889  0.4223 -0.3149
  209MOL    C3037886   6.747   6.127   1.428 -0.4196  0.8427 -0.3392
  209MOL    C3137887   6.669   6.213   1.540 -0.0362  0.5530  0.5985
  209MOL    H3237888   6.587   5.999   1.380 -0.5995  0.9005 -0.3931
  209MOL    H3337889   6.726   6.001   1.260  1.2765  0.5425  1.2365
  209MOL    H3437890   6.818   6.193   1.377 -2.6029  1.5916 -2.4935
  209MOL    H3537891   6.590   6.159   1.591 -3.1385  1.4933 -2.9911
  209MOL    H3637892   6.738   6.261   1.610  0.6476 -0.9055  0.9371
  209MOL    H3737893   6.612   6.300   1.509 -1.8505 -0.2238  1.6933
  209MOL    C3837894   6.825   6.021   1.513  0.2496  0.1869  0.1821
  209MOL    C3937895   6.893   5.912   1.427 -0.4628  0.1167  0.5931
  209MOL    C4037896   6.987   5.979   1.328  0.1276 -0.3018 -0.2155
  209MOL    H4137897   6.901   6.072   1.571  0.1086  0.3318  0.2384
  209MOL    H4237898   6.758   5.979   1.588 -1.3264  1.2238 -0.6137
  209MOL    H4337899   6.823   5.858   1.363 -0.9467  0.8312  0.5137
  209MOL    H4437900   7.055   6.047   1.379 -0.2237 -0.4604  0.4724
  209MOL    H4537901   7.037   5.906   1.264  0.9552 -0.8345  1.0077
  209MOL    H4637902   6.937   6.037   1.251  1.4397  0.6497 -0.3586
  209MOL    C4737903   6.960   5.815   1.522  0.2733  0.6985 -0.0999
  209MOL    C4837904   7.016   5.690   1.452 -0.6067 -0.5670 -0.5265
  209MOL    C4937905   7.126   5.629   1.556 -0.2436 -0.2500 -0.1184
  209MOL    H5037906   7.042   5.878   1.558 -0.4498  1.9087 -0.5381
  209MOL    H5137907   6.901   5.792   1.610  0.6154  0.6604  0.1211
  209MOL    H5237908   7.068   5.713   1.359 -2.3408 -0.9223 -1.6073
  209MOL    H5337909   7.187   5.557   1.501  0.1373  1.9769 -2.6709
  209MOL    H5437910   7.192   5.711   1.584 -0.6263  0.5107 -1.4029
  209MOL    H5537911   7.081   5.602   1.652 -1.4978  0.5507 -0.4857
  209MOL    C5637912   6.906   5.586   1.415  0.3273 -0.2217 -0.2151
  209MOL    C5737913   6.922   5.543   1.267  0.2067  0.0957  0.1263
  209MOL    C5837914   7.050   5.454   1.258 -0.2850 -0.1816  0.2004
  209MOL    H5937915   6.906   5.501   1.484 -2.9139 -0.8883 -0.9566
  209MOL    H6037916   6.809   5.634   1.422  0.0897 -0.9095  1.5386
  209MOL    H6137917   6.932   5.639   1.216 -0.1383  0.4681  0.7602
  209MOL    H6237918   7.138   5.500   1.303  0.1057 -0.2035 -0.5286
  209MOL    H6337919   7.033   5.373   1.329  0.3529  0.5911  1.2405
  209MOL    H6437920   7.075   5.418   1.158  1.9167 -0.5763  0.8542
  209MOL    C6537921   6.801   5.469   1.199  0.4117 -0.9887 -0.3740
  209MOL    C6637922   6.684   5.555   1.145  0.4558 -0.6356  0.1885
  209MOL    C6737923   6.720   5.628   1.017 -0.6370 -0.2610  0.3408
  209MOL    H6837924   6.847   5.417   1.115  1.3151  0.4348 -0.7767
  209MOL    H6937925   6.761   5.397   1.271 -3.5747  0.8777 -0.6227
  209MOL    H7037926   6.667   5.628   1.224 -1.7781 -1.4450  0.5080
  209MOL    H7137927   6.704   5.564   0.930 -0.8655 -2.2998  1.8561
  209MOL    H7237928   6.650   5.710   0.997 -2.4562 -2.2332 -1.6674
  209MOL    H7337929   6.815   5.681   1.024 -1.0487  0.9538 -2.5034
  209MOL    C7437930   6.565   5.457   1.125  0.2180 -0.2954 -0.3037
  209MOL    C7537931   6.424   5.529   1.129 -0.3841  0.8133  0.2976
  209MOL    C7637932   6.322   5.455   1.038  0.3641 -0.1539  1.1351
  209MOL    H7737933   6.567   5.415   1.024 -0.0908 -1.8803  0.3382
  209MOL    H7837934   6.575   5.381   1.202  1.1286  0.6200  0.4940
  209MOL    H7937935   6.435   5.633   1.099  0.9222  0.0916 -1.8195
  209MOL    H8037936   6.332   5.347   1.029 -0.8791 -0.0533 -2.2204
  209MOL    H8137937   6.217   5.485   1.032 -0.4849 -3.2897 -0.3098
  209MOL    H8237938   6.365   5.477   0.940 -0.7237  2.1841  1.1454
  209MOL    C8337939   6.369   5.514   1.274 -0.2314  0.2869 -0.4952
  209MOL    C8437940   6.432   5.608   1.376  0.1975 -0.1167  0.0625
  209MOL    C8537941   6.390   5.751   1.338  0.1871  0.1666  0.4240
  209MOL    H8637942   6.262   5.530   1.266 -0.6267 -1.0980  1.7793
  209MOL    H8737943   6.382   5.412   1.309  1.3414  0.3610 -0.8205
  209MOL    H8837944   6.541   5.604   1.371  0.2464 -0.0743  1.1470
  209MOL    H8937945   6.396   5.822   1.420  1.7337 -0.3009  0.7364
  209MOL    H9037946   6.457   5.786   1.259 -0.8838  2.8089  0.6502
  209MOL    H9137947   6.288   5.750   1.299  0.5802  3.1315 -0.7800
  209MOL    C9237948   6.402   5.583   1.524  0.0495  0.2283 -0.0179
  209MOL    C9337949   6.427   5.447   1.578  0.3598 -0.1606 -0.9198
  209MOL    C9437950   6.581   5.414   1.565 -0.0050  0.0137 -1.2144
  209MOL    H9537951   6.466   5.648   1.584 -0.4992  0.1098  0.7020
  209MOL    H9637952   6.300   5.608   1.551  0.1239  1.9943 -1.2516
  209MOL    H9737953   6.381   5.371   1.515  2.3082 -2.0612 -0.1607
  209MOL    H9837954   6.613   5.429   1.462 -3.6998  1.7570 -2.1687
  209MOL    H9937955   6.643   5.486   1.619 -1.4759 -0.0566  0.6212
  209MOL   H10037956   6.615   5.314   1.591  1.9855  0.6127 -1.4167
  209MOL   C10137957   6.383   5.416   1.726  0.1156 -0.3220 -0.1594
  209MOL   C10237958   6.230   5.405   1.752  0.2478  0.0816 -0.0584
  209MOL   C10337959   6.179   5.269   1.699 -0.0851 -0.4706 -0.2649
  209MOL   H10437960   6.428   5.323   1.762 -0.4480 -0.2292  0.7918
  209MOL   H10537961   6.429   5.494   1.786  0.1687 -0.8700  0.5203
  209MOL   H10637962   6.186   5.486   1.695 -1.6384  1.0423  2.6826
  209MOL   H10737963   6.078   5.260   1.739  0.2468  0.7754  0.9042
  209MOL   H10837964   6.165   5.262   1.591 -0.9608 -1.9282 -0.0631
  209MOL   H10937965   6.243   5.190   1.739 -0.3490 -0.3990  0.3046
  209MOL   C11037966   6.206   5.426   1.906 -0.1750  0.2609  0.4676
  209MOL   C11137967   6.056   5.448   1.946  0.1260 -0.3346 -0.7113
  209MOL   C11237968   6.035   5.426   2.099  0.4353  0.3697  0.3572
  209MOL   H11337969   6.247   5.342   1.963 -0.0205  1.0104  1.4706
  209MOL   H11437970   6.250   5.517   1.947  0.1775  0.4093 -0.2324
  209MOL   H11537971   6.001   5.365   1.901 -1.1047 -0.9711  1.8503
  209MOL   H11637972   5.935   5.438   2.139  1.0660  0.6896  1.8659
  209MOL   H11737973   6.059   5.321   2.114 -0.6439  0.1501  0.6203
  209MOL   H11837974   6.112   5.485   2.149  0.4944  1.9440 -1.5290
  209MOL   C11937975   6.003   5.585   1.896 -0.5930 -0.0219 -0.6535
  209MOL   C12037976   5.875   5.564   1.814 -1.1173  0.3387  0.7133
  209MOL   C12137977   5.754   5.547   1.903  0.5359  0.0381  1.1601
  209MOL   H12237978   5.979   5.653   1.978  1.4165 -1.3635  1.1166
  209MOL   H12337979   6.080   5.628   1.832  0.4473 -0.5777  0.1969
  209MOL   H12437980   5.892   5.469   1.763 -0.1325  1.1058 -0.4228
  209MOL   H12537981   5.745   5.633   1.970 -2.0374 -0.7592  1.9056
  209MOL   H12637982   5.668   5.542   1.836  1.2255 -0.5663  0.3088
  209MOL   H12737983   5.750   5.467   1.977  0.0414 -1.7180 -0.7247
  209MOL   C12837984   5.855   5.682   1.707  0.2002  0.1205  0.2726
  209MOL   C12937985   5.969   5.702   1.600  0.2400 -0.2801 -0.1296
  209MOL   C13037986   5.953   5.582   1.507  0.6909  0.5186  0.2179
  209MOL   H13137987   5.756   5.673   1.661 -1.0604 -1.2335  3.1429
  209MOL   H13237988   5.850   5.776   1.762  1.7335  0.2407  0.2077
  209MOL   H13337989   6.068   5.691   1.645  1.1811  1.0434 -1.8059
  209MOL   H13437990   5.980   5.492   1.563 -1.0150  1.7049  3.1029
  209MOL   H13537991   5.862   5.566   1.449  0.1772  2.9754  0.3225
  209MOL   H13637992   6.031   5.582   1.431  0.4249 -0.5010 -0.0644
  209MOL   C13737993   5.968   5.842   1.529 -0.5771 -0.0606  0.8256
  209MOL   C13837994   6.016   5.964   1.614  0.4555  0.1019 -0.5478
  209MOL   C13937995   6.168   5.948   1.650 -0.1591 -0.1648 -0.7390
  209MOL   H14037996   6.037   5.837   1.445 -0.9433  2.1677  0.3837
  209MOL   H14137997   5.870   5.860   1.487 -0.0701  1.9897  0.4652
  209MOL   H14237998   5.964   5.966   1.709  1.2302  2.7272 -0.1326
  209MOL   H14337999   6.177   5.877   1.732  0.8720  1.0701  0.2243
  209MOL   H14438000   6.236   5.913   1.572  0.9265 -1.1834  0.6309
  209MOL   H14538001   6.202   6.041   1.695 -3.8881  0.7357  0.3739
  209MOL   C14638002   5.994   6.100   1.541  0.1201 -0.4802  0.4189
  209MOL   C14738003   5.847   6.134   1.514  0.3914 -0.2025 -0.0037
  209MOL   C14838004   5.770   6.137   1.655 -0.2121  0.3225  0.1190
  209MOL   H14938005   6.021   6.188   1.600  1.1842 -0.2177 -0.4547
  209MOL   H15038006   6.041   6.103   1.443 -1.2510  2.4854 -0.2237
  209MOL   H15138007   5.799   6.051   1.462  1.0950 -0.4357 -0.2851
  209MOL   H15238008   5.809   6.213   1.723 -3.0294  0.8493  1.2099
  209MOL   H15338009   5.665   6.162   1.640 -0.1561 -0.7078 -2.1158
  209MOL   H15438010   5.773   6.041   1.707 -1.1388  1.3647  2.1611
  209MOL   C15538011   5.835   6.270   1.444  0.0406  0.7029  0.1833
  209MOL   C15638012   5.881   6.266   1.297  0.4731  0.2597  0.3116
  209MOL   C15738013   5.772   6.195   1.209  0.0909  0.1065  0.5957
  209MOL   H15838014   5.731   6.301   1.456 -1.1395 -3.6287  2.1494
  209MOL   H15938015   5.891   6.345   1.500  0.8191 -0.8668  1.5383
  209MOL   H16038016   5.976   6.215   1.284 -0.3642 -2.0818  2.9380
  209MOL   H16138017   5.679   6.251   1.213 -1.3696 -2.0812 -1.6544
  209MOL   H16238018   5.795   6.188   1.103  1.6869  0.6564  0.8777
  209MOL   H16338019   5.756   6.094   1.247  1.1461 -1.3441 -2.6291
  209MOL   C16438020   5.892   6.412   1.253 -0.4281 -0.1667 -0.5283
  209MOL   C16538021   6.007   6.501   1.318  0.1800  0.0641 -0.4568
  209MOL   C16638022   6.148   6.436   1.299 -0.5382  0.2779  0.4628
  209MOL   H16738023   5.917   6.415   1.147 -1.1361  1.9163 -0.6442
  209MOL   H16838024   5.799   6.463   1.278 -1.3272 -2.3047  0.7029
  209MOL   H16938025   5.985   6.519   1.423 -3.2383 -0.2698 -1.0684
  209MOL   H17038026   6.227   6.486   1.356  0.1807 -0.6487  0.3045
  209MOL   H17138027   6.149   6.337   1.345 -0.9687  0.4902  0.9293
  209MOL   H17238028   6.176   6.423   1.194  1.1056  0.7563  0.8242
  209MOL   C17338029   5.995   6.641   1.256  0.1961 -0.0943 -0.0691
  209MOL   C17438030   5.867   6.715   1.272 -0.3784 -0.2804  0.0799
  209MOL   C17538031   5.882   6.871   1.230  0.2302  0.1850 -1.0350
  209MOL   H17638032   6.079   6.699   1.295  0.0260  0.1099 -0.0057
  209MOL   H17738033   6.012   6.620   1.150 -3.5942  0.5838 -0.8489
  209MOL   H17838034   5.843   6.710   1.378 -1.6189 -2.6992 -0.2763
  209MOL   H17938035   5.799   6.939   1.250  0.0914 -0.8534  2.2826
  209MOL   H18038036   5.974   6.909   1.276 -0.4593 -1.6469  2.0226
  209MOL   H18138037   5.913   6.880   1.126 -1.4583  0.7249 -1.4879
  209MOL   H18238038   5.782   6.677   1.216 -0.5934  1.3801 -0.7499
  210MOL     C138039   1.295   4.221   3.618  0.0499 -0.6918 -0.5801
  210MOL     C238040   1.168   4.183   3.693 -0.3207  0.0251 -0.1631
  210MOL     C338041   1.204   4.059   3.777 -0.1144  0.0531 -0.1759
  210MOL     H438042   1.260   4.310   3.566  1.5804 -0.4354 -1.2093
  210MOL     H538043   1.336   4.141   3.555 -1.4511  0.1055 -2.6348
  210MOL     H638044   1.091   4.158   3.621 -0.6929 -0.5543  0.4237
  210MOL     H738045   1.115   4.019   3.826  0.7623 -1.4288  0.2013
  210MOL     H838046   1.222   3.978   3.707 -2.7830  0.0130 -0.8967
  210MOL     H938047   1.296   4.075   3.832  0.1347 -1.0377 -0.2635
  210MOL    H1038048   1.372   4.242   3.692  0.3718 -1.4697 -0.6866
  210MOL    C1138049   1.113   4.290   3.788 -1.1672 -0.1495  0.8077
  210MOL    C1238050   1.050   4.421   3.721 -0.2721 -0.2257  0.4858
  210MOL    C1338051   0.902   4.399   3.694 -0.1020  0.2760 -0.7382
  210MOL    H1438052   1.033   4.246   3.848 -0.5989 -1.3372  0.7248
  210MOL    H1538053   1.182   4.315   3.868 -1.4212  1.1201  0.6291
  210MOL    H1638054   1.104   4.431   3.627  0.1898 -0.7072  0.6933
  210MOL    H1738055   0.875   4.313   3.632  1.6343 -1.7496  1.2198
  210MOL    H1838056   0.848   4.383   3.788 -2.5693 -0.9610 -2.3023
  210MOL    H1938057   0.867   4.488   3.642 -0.5621  1.1632  1.0728
  210MOL    C2038058   1.065   4.548   3.812  0.0397 -0.1723 -0.5333
  210MOL    C2138059   1.060   4.675   3.733 -1.2068 -0.5035  0.2751
  210MOL    C2238060   0.951   4.769   3.781  0.3053  0.7204  0.2447
  210MOL    H2338061   0.998   4.539   3.897  0.9184 -1.3415  0.0436
  210MOL    H2438062   1.161   4.547   3.863 -1.1493 -0.1928  1.7412
  210MOL    H2538063   1.038   4.645   3.630 -1.9906 -1.4277  0.7031
  210MOL    H2638064   0.940   4.856   3.718  0.4174  2.1293  2.1353
  210MOL    H2738065   0.855   4.718   3.791  0.9082 -0.5389 -0.1805
  210MOL    H2838066   0.980   4.799   3.882  0.4239 -0.5836  0.6165
  210MOL    C2938067   1.196   4.747   3.728  0.6053  0.9438  0.3313
  210MOL    C3038068   1.224   4.873   3.648  0.0716 -0.0891  0.7357
  210MOL    C3138069   1.364   4.931   3.679 -0.3530 -0.4348 -0.3865
  210MOL    H3238070   1.214   4.777   3.831 -0.2128 -0.7037  0.9678
  210MOL    H3338071   1.273   4.674   3.703 -0.1782  0.8550 -1.8886
  210MOL    H3438072   1.156   4.948   3.688  1.4184  0.0773  2.7959
  210MOL    H3538073   1.448   4.871   3.643 -1.2216 -2.6482  1.1344
  210MOL    H3638074   1.372   5.031   3.637 -0.4712 -1.2615 -2.4202
  210MOL    H3738075   1.371   4.940   3.787 -0.7672 -1.3881 -0.2716
  210MOL    C3838076   1.174   4.850   3.503 -0.1989  0.5073  0.2280
  210MOL    C3938077   1.204   4.966   3.409 -0.3277 -0.6577  0.5947
  210MOL    C4038078   1.335   4.950   3.327  0.4174 -0.0262 -0.1764
  210MOL    H4138079   1.227   4.767   3.455 -0.4663  0.8384 -0.6468
  210MOL    H4238080   1.068   4.830   3.510 -0.4248  1.3432 -0.5941
  210MOL    H4338081   1.217   5.061   3.460 -0.0265 -0.0351 -0.6260
  210MOL    H4438082   1.426   4.965   3.384 -0.2643  4.4966 -0.0762
  210MOL    H4538083   1.341   4.852   3.280  2.1810  0.1237 -0.2856
  210MOL    H4638084   1.339   5.014   3.239 -0.1543  0.0864 -0.1223
  210MOL    C4738085   1.086   4.980   3.305  0.4205 -0.0025  0.6411
  210MOL    C4838086   0.962   5.065   3.355 -0.3046 -0.1900  0.6485
  210MOL    C4938087   0.994   5.221   3.344 -0.3529  0.3892  0.0374
  210MOL    H5038088   1.116   5.020   3.209  0.5421  2.3184  1.5989
  210MOL    H5138089   1.048   4.880   3.284  1.0665 -0.0884 -0.1109
  210MOL    H5238090   0.933   5.050   3.459  0.9738 -0.5744  0.9555
  210MOL    H5338091   0.904   5.281   3.354 -0.8906 -0.4378  0.1712
  210MOL    H5438092   1.063   5.247   3.425  0.2486  0.4253 -0.4771
  210MOL    H5538093   1.037   5.243   3.246  0.8108 -0.0093  0.4493
  210MOL    C5638094   0.837   5.031   3.269  0.6165 -0.4364 -0.4532
  210MOL    C5738095   0.703   5.055   3.344 -0.4499  0.1525 -0.2008
  210MOL    C5838096   0.606   5.122   3.241  0.8577  0.0692  0.2120
  210MOL    H5938097   0.848   5.080   3.172  0.2785 -1.1066 -0.8315
  210MOL    H6038098   0.840   4.927   3.237 -3.3847 -1.1000  1.0927
  210MOL    H6138099   0.718   5.126   3.425 -2.3121  1.4072 -0.9353
  210MOL    H6238100   0.627   5.228   3.225  1.6514  0.1162  1.4772
  210MOL    H6338101   0.592   5.078   3.143 -2.7511 -1.4021  1.2952
  210MOL    H6438102   0.504   5.136   3.276  0.5090 -1.0918 -0.3211
  210MOL    C6538103   0.628   4.926   3.386  0.1948 -0.2740 -0.1525
  210MOL    C6638104   0.695   4.858   3.505 -0.3409  1.4926 -0.1651
  210MOL    C6738105   0.657   4.929   3.632 -0.1651  0.7354  0.5864
  210MOL    H6838106   0.527   4.955   3.415  0.6205  0.3146  0.7648
  210MOL    H6938107   0.625   4.855   3.303 -1.1192 -0.4095  0.0106
  210MOL    H7038108   0.803   4.859   3.491 -0.7111  0.9153 -3.6833
  210MOL    H7138109   0.699   5.030   3.624  0.5284  0.4421  0.4757
  210MOL    H7238110   0.554   4.915   3.663 -0.7562 -2.5058 -2.5927
  210MOL    H7338111   0.696   4.884   3.724 -2.7547 -2.4687  0.1758
  210MOL    C7438112   0.657   4.711   3.523 -0.7279  0.1702  0.7592
  210MOL    C7538113   0.672   4.606   3.407  0.7192 -0.2303  0.3213
  210MOL    C7638114   0.820   4.590   3.354  0.3990  0.0712 -0.0299
  210MOL    H7738115   0.710   4.677   3.613 -0.4681 -1.0341  0.1467
  210MOL    H7838116   0.553   4.708   3.556 -1.0602  0.1215 -0.2761
  210MOL    H7938117   0.620   4.643   3.319  1.9397 -2.3996 -1.3652
  210MOL    H8038118   0.897   4.542   3.415  2.6322 -0.5383 -3.2409
  210MOL    H8138119   0.818   4.522   3.269  0.8905 -0.5044  0.4109
  210MOL    H8238120   0.858   4.686   3.320  1.8887 -0.0428  1.2222
  210MOL    C8338121   0.596   4.485   3.451 -0.0367  0.0749 -0.3311
  210MOL    C8438122   0.569   4.367   3.360  1.2056 -0.0606 -0.0409
  210MOL    C8538123   0.488   4.267   3.435  0.5449 -0.4151  0.4402
  210MOL    H8638124   0.625   4.449   3.550 -1.6289  1.2449  0.5755
  210MOL    H8738125   0.498   4.523   3.479  0.8943  1.0718  1.6895
  210MOL    H8838126   0.665   4.328   3.326  1.0518 -0.2977 -0.1991
  210MOL    H8938127   0.385   4.303   3.444  1.6825  3.5309 -1.0793
  210MOL    H9038128   0.480   4.166   3.397 -0.9709 -0.2074  0.1654
  210MOL    H9138129   0.517   4.251   3.539 -2.0332 -2.0667  0.9502
  210MOL    C9238130   0.503   4.412   3.232 -0.2690  0.6354  0.1080
  210MOL    C9338131   0.476   4.296   3.136 -0.2303 -0.4519 -0.4120
  210MOL    C9438132   0.362   4.344   3.039  0.5862  0.0897 -0.0821
  210MOL    H9538133   0.404   4.453   3.253 -0.7368 -0.1538 -0.5262
  210MOL    H9638134   0.556   4.491   3.179  1.7302  0.3289  1.5844
  210MOL    H9738135   0.426   4.218   3.193  0.8430  0.0963  1.3213
  210MOL    H9838136   0.272   4.359   3.098  0.0080 -2.7061 -0.1735
  210MOL    H9938137   0.382   4.424   2.968 -1.1576  0.9420  0.3673
  210MOL   H10038138   0.334   4.262   2.972 -2.7616  0.2731  1.0279
  210MOL   C10138139   0.604   4.253   3.058  0.2114 -0.2331 -0.2297
  210MOL   C10238140   0.614   4.103   3.031 -0.0416  0.2832  0.3613
  210MOL   C10338141   0.553   4.059   2.896 -0.1293  0.4770 -0.3906
  210MOL   H10438142   0.606   4.301   2.960 -1.9232 -0.3351 -0.3516
  210MOL   H10538143   0.694   4.288   3.109 -0.8164  1.0979  0.7215
  210MOL   H10638144   0.549   4.060   3.107 -1.3522  1.6808  0.0553
  210MOL   H10738145   0.546   3.950   2.890 -0.4410  0.5516 -1.3968
  210MOL   H10838146   0.453   4.095   2.873 -0.5553  0.0786  0.8047
  210MOL   H10938147   0.615   4.083   2.809 -1.7019  0.7197 -1.4567
  210MOL   C11038148   0.758   4.051   3.041 -0.1870 -0.1211 -0.0931
  210MOL   C11138149   0.808   4.005   3.184  0.0989  0.2400  0.0601
  210MOL   C11238150   0.751   3.863   3.218  0.6183  0.1627  0.4558
  210MOL   H11338151   0.760   3.965   2.974 -1.8971 -0.5249  0.3392
  210MOL   H11438152   0.823   4.123   2.992 -1.1839  0.8199 -0.0751
  210MOL   H11538153   0.759   4.073   3.253 -0.6863  0.0121 -0.2679
  210MOL   H11638154   0.726   3.841   3.321 -1.4775  1.1279  0.1979
  210MOL   H11738155   0.652   3.849   3.172  1.3255 -2.7959 -0.2216
  210MOL   H11838156   0.807   3.781   3.175  1.9679 -0.8667  4.0873
  210MOL   C11938157   0.957   3.998   3.209  0.2241  0.1760 -0.0801
  210MOL   C12038158   1.043   4.123   3.195 -0.8565 -0.1942  0.4182
  210MOL   C12138159   0.979   4.231   3.279  0.1540  0.0071  0.0435
  210MOL   H12238160   0.964   3.959   3.311  1.2239  0.3866 -0.0693
  210MOL   H12338161   0.996   3.922   3.142 -1.5304 -0.8562  0.0266
  210MOL   H12438162   1.059   4.145   3.089  1.6971  2.1558  1.2377
  210MOL   H12538163   1.043   4.319   3.284  0.5456 -0.3660  2.3668
  210MOL   H12638164   0.887   4.271   3.239 -0.0443 -1.4567 -1.0304
  210MOL   H12738165   0.950   4.188   3.375 -0.8569  1.0349  0.1958
  210MOL   C12838166   1.183   4.096   3.255  0.3414 -0.0483 -0.3839
  210MOL   C12938167   1.294   4.033   3.173 -0.0686  0.2687 -1.1617
  210MOL   C13038168   1.362   4.138   3.082 -0.3818 -0.0235 -0.2136
  210MOL   H13138169   1.225   4.190   3.292 -0.0055 -0.1392  0.2596
  210MOL   H13238170   1.176   4.032   3.344  2.1709 -0.9173 -0.8409
  210MOL   H13338171   1.247   3.955   3.113 -0.8468  0.3058 -0.6092
  210MOL   H13438172   1.297   4.210   3.032  0.8554 -0.4774 -2.5808
  210MOL   H13538173   1.428   4.195   3.147  2.4107 -0.3648 -2.6353
  210MOL   H13638174   1.430   4.112   3.001 -0.1516 -1.6843  0.4985
  210MOL   C13738175   1.393   3.961   3.270 -0.1386 -0.2802  0.3272
  210MOL   C13838176   1.364   3.811   3.285  0.3381  0.0741 -0.6035
  210MOL   C13938177   1.434   3.733   3.182  0.4405  0.1647  1.1232
  210MOL   H14038178   1.496   3.980   3.240  0.3740  1.8911  3.2118
  210MOL   H14138179   1.397   4.008   3.368 -0.8339  1.0707 -0.2765
  210MOL   H14238180   1.257   3.809   3.263  0.7576  0.0627 -2.7224
  210MOL   H14338181   1.540   3.729   3.208  0.7301  0.3767 -0.0218
  210MOL   H14438182   1.386   3.636   3.181 -2.8985  1.7324  1.6504
  210MOL   H14538183   1.427   3.770   3.080 -0.8854 -1.8771  0.4535
  210MOL   C14638184   1.387   3.753   3.436 -0.3004  0.4394 -0.0717
  210MOL   C14738185   1.339   3.608   3.455  0.9525  0.7315 -0.3473
  210MOL   C14838186   1.440   3.537   3.530 -0.4880  0.5919  0.4373
  210MOL   H14938187   1.496   3.753   3.437 -0.2833  2.4848  0.7032
  210MOL   H15038188   1.356   3.823   3.514 -0.2873  2.8858 -2.2129
  210MOL   H15138189   1.347   3.549   3.364  0.2140  0.6022 -0.3378
  210MOL   H15238190   1.542   3.534   3.493  0.8083 -0.4747  3.8472
  210MOL   H15338191   1.460   3.589   3.624 -3.0472  0.4043  1.1434
  210MOL   H15438192   1.409   3.433   3.538  0.1920  0.3484 -0.0605
  210MOL   C15538193   1.196   3.597   3.521 -0.4301  0.6992 -0.4821
  210MOL   C15638194   1.076   3.640   3.439 -0.0114 -0.2478 -0.0460
  210MOL   C15738195   1.056   3.558   3.315  0.0834  0.3555  0.6568
  210MOL   H15838196   1.175   3.490   3.525  1.5586  0.3160  0.2642
  210MOL   H15938197   1.205   3.640   3.621 -1.8492 -1.2254  0.4850
  210MOL   H16038198   1.102   3.743   3.413  0.3832 -0.8947 -2.3391
  210MOL   H16138199   1.079   3.452   3.323  1.8581  0.6823 -0.0690
  210MOL   H16238200   0.954   3.572   3.280  0.0493  2.7941  1.6123
  210MOL   H16338201   1.123   3.595   3.239  0.4800  0.2537  0.9525
  210MOL   C16438202   0.944   3.654   3.522 -0.1588 -0.2854  0.6779
  210MOL   C16538203   0.947   3.740   3.648  0.2938 -0.2902  0.4085
  210MOL   C16638204   0.917   3.891   3.616 -0.4243 -0.0222  0.0660
  210MOL   H16738205   0.871   3.693   3.451 -1.0247 -2.7199  0.2048
  210MOL   H16838206   0.919   3.553   3.554  1.2987 -1.2488 -1.1346
  210MOL   H16938207   1.046   3.739   3.694  1.0211 -1.0913 -1.1411
  210MOL   H17038208   0.992   3.920   3.542 -1.5094  2.0768 -0.2694
  210MOL   H17138209   0.816   3.913   3.580 -0.6949 -0.4301  0.5806
  210MOL   H17238210   0.929   3.955   3.703 -0.4698  0.3497 -0.1946
  210MOL   C17338211   0.853   3.686   3.759 -0.4602 -0.9607  0.1312
  210MOL   C17438212   0.896   3.559   3.834  0.2961 -0.2512 -0.0796
  210MOL   C17538213   1.027   3.585   3.915  0.6939  0.0485  0.7273
  210MOL   H17638214   0.836   3.761   3.836 -1.0322 -2.9510  2.0130
  210MOL   H17738215   0.753   3.669   3.718 -0.7512 -1.8143  1.1508
  210MOL   H17838216   0.917   3.483   3.758  3.2881  1.8779 -1.4986
  210MOL   H17938217   1.007   3.639   4.008 -0.1015  0.2622  0.4412
  210MOL   H18038218   1.075   3.492   3.945 -1.1642 -0.8791  0.8709
  210MOL   H18138219   1.105   3.639   3.862 -0.3305  0.7755 -0.0619
  210MOL   H18238220   0.816   3.528   3.901  1.1798 -0.2842  0.9714
  211MOL     C138221   4.138   3.364   4.834 -0.3112 -0.0232  0.0013
  211MOL     C238222   4.245   3.313   4.927 -0.2155  0.7907 -0.0977
  211MOL     C338223   4.285   3.427   5.021 -0.1214  0.3200  0.1542
  211MOL     H438224   4.180   3.443   4.772  1.1546 -1.7159 -1.2265
  211MOL     H538225   4.053   3.401   4.892 -0.4859 -3.0943  1.8028
  211MOL     H638226   4.329   3.287   4.863  0.1500 -0.8824  1.0220
  211MOL     H738227   4.293   3.524   4.973 -0.0175 -1.4321 -3.5783
  211MOL     H838228   4.214   3.441   5.102 -0.2929  0.0889  0.0463
  211MOL     H938229   4.382   3.405   5.067  0.3917 -0.3373 -1.1964
  211MOL    H1038230   4.090   3.287   4.774 -0.0385  0.4242 -0.7936
  211MOL    C1138231   4.205   3.181   5.002 -0.3791  0.2391  0.5078
  211MOL    C1238232   4.197   3.057   4.914  0.5609 -1.1009  0.3429
  211MOL    C1338233   4.336   2.988   4.922  0.1233  0.0290  0.2120
  211MOL    H1438234   4.284   3.169   5.075  0.1247  1.0837  0.1174
  211MOL    H1538235   4.114   3.193   5.061  1.6437  0.7805  3.6224
  211MOL    H1638236   4.177   3.099   4.815 -1.2541 -0.9936  0.7308
  211MOL    H1738237   4.421   3.046   4.887 -0.1304 -0.2516 -0.9131
  211MOL    H1838238   4.382   2.967   5.018  2.8269 -0.5279 -1.1453
  211MOL    H1938239   4.334   2.893   4.868 -0.3247 -0.3956  0.9635
  211MOL    C2038240   4.086   2.960   4.953 -0.0416  0.3592 -0.6796
  211MOL    C2138241   3.942   3.016   4.937 -0.4334  0.2590  0.0897
  211MOL    C2238242   3.888   3.043   4.798  0.2250 -1.0693  0.0100
  211MOL    H2338243   4.093   2.878   4.882  1.4068 -0.2667  0.1682
  211MOL    H2438244   4.092   2.923   5.055  0.3977  0.4873 -0.6607
  211MOL    H2538245   3.942   3.116   4.979 -2.1532  0.1863  0.3144
  211MOL    H2638246   3.855   2.953   4.746 -0.1735 -0.5154 -0.7015
  211MOL    H2738247   3.809   3.119   4.798  1.2908  0.0620 -0.4600
  211MOL    H2838248   3.961   3.096   4.737 -1.1890 -0.1699 -0.9410
  211MOL    C2938249   3.835   2.938   5.025 -0.1346  0.7198 -0.4892
  211MOL    C3038250   3.832   2.947   5.177 -0.5264 -0.1294  0.4153
  211MOL    C3138251   3.802   3.086   5.232  0.2654 -0.2776 -0.6039
  211MOL    H3238252   3.739   2.973   4.988 -0.6244 -0.5387 -0.4535
  211MOL    H3338253   3.842   2.835   4.991  2.5163  0.4202  0.8040
  211MOL    H3438254   3.927   2.924   5.224 -1.5058 -2.2456  1.4419
  211MOL    H3538255   3.872   3.166   5.207 -0.2595 -0.0134 -1.2296
  211MOL    H3638256   3.705   3.120   5.198 -0.8649 -3.4136 -0.6590
  211MOL    H3738257   3.783   3.084   5.339  3.0314 -0.1356 -0.0522
  211MOL    C3838258   3.746   2.844   5.258  0.2864  0.3438  0.1228
  211MOL    C3938259   3.792   2.694   5.245  1.1768 -0.3308 -0.5645
  211MOL    C4038260   3.939   2.674   5.265  0.0381 -0.5614  0.5968
  211MOL    H4138261   3.753   2.867   5.364  1.0273 -1.6389  0.5198
  211MOL    H4238262   3.639   2.849   5.236  0.3155  0.9699  0.1160
  211MOL    H4338263   3.774   2.677   5.139 -0.9974  0.0808 -0.2859
  211MOL    H4438264   4.003   2.732   5.199 -1.1240  2.0004  1.6865
  211MOL    H4538265   3.960   2.698   5.369  1.1202 -2.2835  0.7951
  211MOL    H4638266   3.972   2.573   5.240  3.8921  1.3362 -2.4157
  211MOL    C4738267   3.708   2.599   5.329 -0.1373  0.6236 -0.2634
  211MOL    C4838268   3.557   2.579   5.278  0.4489 -0.0165  0.2203
  211MOL    C4938269   3.564   2.504   5.146 -0.0947  0.1154  0.1060
  211MOL    H5038270   3.754   2.500   5.325  0.1554  0.7662 -0.4310
  211MOL    H5138271   3.724   2.630   5.432 -0.7725 -3.6659  1.2257
  211MOL    H5238272   3.512   2.675   5.255  1.3853  0.6003  0.9290
  211MOL    H5338273   3.605   2.560   5.063  1.8535  0.7766  1.4881
  211MOL    H5438274   3.610   2.405   5.158 -1.4506 -0.6228 -0.6311
  211MOL    H5538275   3.465   2.473   5.111 -0.2050  0.6402 -0.0410
  211MOL    C5638276   3.463   2.508   5.381  0.4991 -0.4142  0.0381
  211MOL    C5738277   3.460   2.575   5.525 -0.0537  0.2331 -0.0465
  211MOL    C5838278   3.423   2.721   5.493  0.0840 -0.3075 -0.0929
  211MOL    H5938279   3.366   2.513   5.331 -0.7623 -2.0929  2.2270
  211MOL    H6038280   3.498   2.405   5.383 -0.2637 -0.7460 -1.8141
  211MOL    H6138281   3.560   2.575   5.568 -0.5901  0.0815  1.1935
  211MOL    H6238282   3.338   2.736   5.426  1.0811  1.2913 -1.0254
  211MOL    H6338283   3.407   2.786   5.579  0.4513 -0.1624 -0.1343
  211MOL    H6438284   3.507   2.765   5.440  0.3029 -0.9045 -0.2448
  211MOL    C6538285   3.356   2.501   5.608  0.2157 -0.0319 -0.9571
  211MOL    C6638286   3.406   2.361   5.659 -0.3007  0.2700  0.5542
  211MOL    C6738287   3.524   2.386   5.756 -0.0490 -0.2088  0.4285
  211MOL    H6838288   3.345   2.555   5.702  0.8617 -0.5969 -0.5494
  211MOL    H6938289   3.258   2.491   5.563  0.0275 -0.2129 -0.5164
  211MOL    H7038290   3.450   2.323   5.567 -2.3629 -0.5317 -0.1296
  211MOL    H7138291   3.563   2.288   5.780 -0.6634 -0.4147  0.5912
  211MOL    H7238292   3.605   2.446   5.713 -0.9661 -0.4755 -1.7651
  211MOL    H7338293   3.491   2.435   5.848 -0.5672 -1.1048  0.7189
  211MOL    C7438294   3.292   2.268   5.709  0.1546  0.5174  0.7247
  211MOL    C7538295   3.208   2.302   5.837  0.0947  0.0580 -0.1054
  211MOL    C7638296   3.072   2.375   5.803 -0.0316 -0.3714  0.0450
  211MOL    H7738297   3.223   2.252   5.627 -0.5868  1.8085  1.0727
  211MOL    H7838298   3.345   2.174   5.722 -0.1114  0.0755 -1.2636
  211MOL    H7938299   3.273   2.367   5.895  1.4522 -0.2797 -1.2303
  211MOL    H8038300   3.089   2.468   5.748  1.9302 -0.3105  0.7120
  211MOL    H8138301   2.990   2.316   5.761  0.9159 -1.6896  0.0293
  211MOL    H8238302   3.037   2.408   5.901 -3.0657  2.0892 -1.7581
  211MOL    C8338303   3.176   2.184   5.928  0.2525 -0.5560 -0.5190
  211MOL    C8438304   3.288   2.101   5.982  0.3973  0.4719 -0.7485
  211MOL    C8538305   3.423   2.181   6.008  0.8869 -0.5398  0.4179
  211MOL    H8638306   3.118   2.223   6.012  0.2784 -2.4075  0.3894
  211MOL    H8738307   3.118   2.114   5.868 -1.8797 -0.2220  1.0802
  211MOL    H8838308   3.304   2.019   5.912  0.8527 -0.2735  0.2114
  211MOL    H8938309   3.469   2.143   6.099  2.0649 -2.4921 -0.9514
  211MOL    H9038310   3.499   2.183   5.930  0.7492 -0.7525  0.2760
  211MOL    H9138311   3.402   2.280   6.050  0.9243 -0.6279  0.6449
  211MOL    C9238312   3.238   2.035   6.120  0.4215  0.0654  0.2000
  211MOL    C9338313   3.106   1.957   6.117 -0.0155 -0.5655 -0.3846
  211MOL    C9438314   3.092   1.849   6.008  0.2633 -0.4579 -0.7307
  211MOL    H9538315   3.316   1.966   6.152  0.8627  0.6284  0.3292
  211MOL    H9638316   3.223   2.119   6.188  2.1398  1.1779 -0.7745
  211MOL    H9738317   3.022   2.026   6.113 -1.0101 -1.5325  2.2680
  211MOL    H9838318   3.074   1.890   5.909  0.9744 -2.3659 -1.6689
  211MOL    H9938319   3.178   1.786   5.985  0.9173  0.0479  0.2867
  211MOL   H10038320   3.001   1.791   6.024  0.9215 -1.0355  0.9711
  211MOL   C10138321   3.086   1.890   6.254  0.0739 -0.1369  0.4487
  211MOL   C10238322   3.038   1.984   6.377 -0.2858  0.3930  0.4231
  211MOL   C10338323   2.887   2.001   6.370  0.7530  0.1518  0.0004
  211MOL   H10438324   3.007   1.816   6.243 -0.8704  0.9949 -0.4721
  211MOL   H10538325   3.179   1.840   6.284  0.3713  0.3399  0.3291
  211MOL   H10638326   3.086   2.080   6.359  0.5549  0.2396  1.8117
  211MOL   H10738327   2.846   1.903   6.393 -0.2160  0.6083  0.2273
  211MOL   H10838328   2.862   2.066   6.454  2.1534 -1.5699  1.8205
  211MOL   H10938329   2.848   2.042   6.277 -0.9613 -3.0042 -0.7343
  211MOL   C11038330   3.089   1.932   6.510 -0.2299  0.0349  0.1153
  211MOL   C11138331   3.040   1.999   6.638  0.2704  0.3605  0.3040
  211MOL   C11238332   3.117   1.953   6.755 -0.1619  0.2780  0.1580
  211MOL   H11338333   3.070   1.826   6.520  0.1595 -0.0025  0.4660
  211MOL   H11438334   3.197   1.933   6.522  0.0142  1.6512 -1.8557
  211MOL   H11538335   2.935   1.980   6.660  0.0500  1.3877  0.1760
  211MOL   H11638336   3.089   1.997   6.851 -0.1596  1.3339 -0.3193
  211MOL   H11738337   3.098   1.846   6.756  0.6978  0.1238 -0.0378
  211MOL   H11838338   3.225   1.963   6.747  0.1104 -0.0534  2.9842
  211MOL   C11938339   3.047   2.150   6.629  0.0243  1.1147  0.1944
  211MOL   C12038340   2.957   2.230   6.738 -0.1999 -0.5146  0.3135
  211MOL   C12138341   2.990   2.382   6.744  0.0317  0.4910  0.0304
  211MOL   H12238342   3.152   2.179   6.641  0.3657 -0.1228  0.2126
  211MOL   H12338343   3.023   2.181   6.527  3.4044  1.0418 -0.6844
  211MOL   H12438344   2.967   2.171   6.830  0.3576 -0.3897  0.3336
  211MOL   H12538345   2.956   2.428   6.651 -0.3199  0.0025 -0.0858
  211MOL   H12638346   2.945   2.434   6.828  0.0118 -0.4210  0.5881
  211MOL   H12738347   3.098   2.394   6.750 -0.1559  1.6436  1.3880
  211MOL   C12838348   2.806   2.219   6.702 -0.1239  0.2613  0.6035
  211MOL   C12938349   2.697   2.281   6.800  0.0085  0.1004 -0.7977
  211MOL   C13038350   2.561   2.260   6.732  0.5783  0.0640 -0.5519
  211MOL   H13138351   2.789   2.278   6.612  1.5665 -1.4529 -0.8837
  211MOL   H13238352   2.782   2.114   6.684 -1.6032  0.4343  1.5082
  211MOL   H13338353   2.712   2.389   6.801  1.7011 -0.0398 -4.2698
  211MOL   H13438354   2.564   2.259   6.623 -0.7708 -0.1069 -0.5953
  211MOL   H13538355   2.512   2.168   6.762 -0.9945  0.7658 -0.9274
  211MOL   H13638356   2.497   2.344   6.757  4.1865  2.3661  1.3940
  211MOL   C13738357   2.715   2.221   6.946  0.1923 -0.2746  0.8546
  211MOL   C13838358   2.612   2.260   7.059 -0.1126  0.1362  0.0018
  211MOL   C13938359   2.668   2.214   7.189 -0.0094 -0.0055  0.0306
  211MOL   H14038360   2.720   2.114   6.930  0.0264 -0.0141 -1.0403
  211MOL   H14138361   2.815   2.247   6.981  0.4619 -1.9148  1.3411
  211MOL   H14238362   2.519   2.204   7.050  0.8272 -1.3860 -0.4961
  211MOL   H14338363   2.592   2.185   7.262 -0.9107 -1.8978 -1.6183
  211MOL   H14438364   2.729   2.125   7.176  0.6217  0.5210 -0.5756
  211MOL   H14538365   2.745   2.279   7.232  0.3690 -0.1421 -0.4422
  211MOL   C14638366   2.574   2.410   7.057 -0.2527 -0.4658  0.1350
  211MOL   C14738367   2.475   2.464   7.159  0.4424  0.1507 -0.8082
  211MOL   C14838368   2.508   2.609   7.203 -0.3207 -0.1550  0.2641
  211MOL   H14938369   2.668   2.465   7.066 -0.1197 -0.7354  0.3871
  211MOL   H15038370   2.539   2.445   6.960 -0.5134 -4.0288 -1.1044
  211MOL   H15138371   2.485   2.396   7.244  1.3969 -1.7476 -2.3990
  211MOL   H15238372   2.431   2.656   7.263  1.1864  2.0199  0.5387
  211MOL   H15338373   2.598   2.606   7.264 -0.3965 -1.0191  0.3451
  211MOL   H15438374   2.535   2.682   7.126  1.1120 -0.2677  0.6327
  211MOL   C15538375   2.332   2.444   7.097 -0.2477  0.1905 -0.2329
  211MOL   C15638376   2.206   2.460   7.178 -0.2037  0.0450  0.0331
  211MOL   C15738377   2.085   2.500   7.080  0.4178 -0.5479  0.1341
  211MOL   H15838378   2.330   2.517   7.017 -0.0989 -0.9309 -1.2863
  211MOL   H15938379   2.338   2.352   7.038 -1.4727 -0.7247  1.0376
  211MOL   H16038380   2.211   2.543   7.248  1.9277 -0.5098  0.5830
  211MOL   H16138381   2.074   2.418   7.009 -1.3465  0.6951 -1.0558
  211MOL   H16238382   1.990   2.503   7.132 -0.2324  0.4638 -1.0811
  211MOL   H16338383   2.114   2.596   7.037  0.1846 -0.4512  0.1923
  211MOL   C16438384   2.185   2.328   7.248 -0.2011 -0.6940  0.6913
  211MOL   C16538385   2.077   2.319   7.349  0.5991  0.8848  0.4987
  211MOL   C16638386   2.076   2.174   7.401  0.0633  0.2976  0.6012
  211MOL   H16738387   2.177   2.244   7.179  1.9668 -0.2460 -0.1589
  211MOL   H16838388   2.276   2.315   7.307 -0.1572 -3.3782  0.0910
  211MOL   H16938389   1.981   2.329   7.298  0.7407  1.6161  0.3772
  211MOL   H17038390   2.173   2.156   7.447 -0.2761  1.4438  1.8093
  211MOL   H17138391   2.008   2.149   7.483  1.1814 -1.8874  0.9132
  211MOL   H17238392   2.071   2.098   7.323 -1.6377 -0.7729  1.7126
  211MOL   C17338393   2.088   2.424   7.459  0.9447  0.2016  0.6022
  211MOL   C17438394   2.223   2.428   7.524 -0.2555  0.6003 -0.3454
  211MOL   C17538395   2.230   2.508   7.660  0.8540  0.5850 -0.1871
  211MOL   H17638396   2.065   2.521   7.413  1.4001 -0.0439 -0.1627
  211MOL   H17738397   2.006   2.412   7.529  0.5581  2.5354  0.5956
  211MOL   H17838398   2.298   2.473   7.459  0.3866 -1.9019 -1.4247
  211MOL   H17938399   2.229   2.616   7.643 -0.7397  0.4665 -0.9124
  211MOL   H18038400   2.140   2.497   0.023  0.2926  2.9016 -0.5654
  211MOL   H18138401   2.316   2.483   0.024  0.4033  0.2287  0.3069
  211MOL   H18238402   2.246   2.323   7.546 -0.1453  0.5947 -0.4840
  212MOL     C138403   3.053   3.856   4.951  0.0409  0.1759  0.0789
  212MOL     C238404   3.082   3.887   5.100  0.0760 -0.0496  0.0970
  212MOL     C338405   3.208   3.972   5.113 -0.6532 -0.2211  0.3301
  212MOL     H438406   3.041   3.945   4.889 -0.8066 -1.6974 -2.5628
  212MOL     H538407   2.969   3.790   4.929 -0.4120  0.2344  1.5994
  212MOL     H638408   3.108   3.793   5.147  1.5890  1.0501  1.5205
  212MOL     H738409   3.196   4.076   5.080  2.0826  0.5039  1.4967
  212MOL     H838410   3.229   3.982   5.219 -0.0412 -0.9080  0.2710
  212MOL     H938411   3.287   3.930   5.051 -0.7121  1.3473 -0.8418
  212MOL    H1038412   3.133   3.791   4.915 -0.7408 -2.2170  2.4998
  212MOL    C1138413   2.960   3.952   5.169 -0.4871 -0.0122 -0.2308
  212MOL    C1238414   2.978   3.946   5.328  0.1532  0.5287  0.2932
  212MOL    C1338415   2.864   4.025   5.392  0.1783  0.7288  0.5457
  212MOL    H1438416   2.953   4.058   5.148 -1.1133  0.2038  1.0182
  212MOL    H1538417   2.865   3.913   5.133  0.1381 -1.0674 -0.7758
  212MOL    H1638418   3.070   4.002   5.344  0.6216  0.6950 -2.6381
  212MOL    H1738419   2.865   4.041   5.500  1.2389  1.0087  0.4945
  212MOL    H1838420   2.844   4.118   5.339 -2.9677  0.0706  0.4677
  212MOL    H1938421   2.777   3.959   5.390 -0.1537  1.1596  0.6768
  212MOL    C2038422   2.987   3.802   5.384 -0.7824  0.4169 -0.1672
  212MOL    C2138423   3.121   3.765   5.443  0.9073  0.7097  0.0557
  212MOL    C2238424   3.146   3.855   5.568  0.7032  1.0544  0.5099
  212MOL    H2338425   2.906   3.778   5.453  0.1468 -1.8855  0.1594
  212MOL    H2438426   2.954   3.733   5.307  0.4539 -0.2195 -0.1429
  212MOL    H2538427   3.199   3.776   5.368  1.2953  0.4500  0.4149
  212MOL    H2638428   3.234   3.820   5.622  1.9333  2.3890 -0.5659
  212MOL    H2738429   3.156   3.959   5.538 -0.9204  1.1306  0.1819
  212MOL    H2838430   3.059   3.860   5.634 -0.4291  0.9247 -0.9423
  212MOL    C2938431   3.109   3.608   5.479  0.2929  0.4077 -0.0898
  212MOL    C3038432   3.143   3.505   5.364  0.2253  0.5530 -0.6535
  212MOL    C3138433   3.299   3.495   5.337 -0.5067 -0.4638 -1.0824
  212MOL    H3238434   3.182   3.596   5.560  0.3761  1.6507  0.0339
  212MOL    H3338435   3.008   3.587   5.514  1.4591 -0.7893  2.7165
  212MOL    H3438436   3.101   3.545   5.271 -1.8581 -0.4210 -0.1561
  212MOL    H3538437   3.319   3.423   5.257 -0.9480  0.0722 -1.6824
  212MOL    H3638438   3.340   3.592   5.309 -0.8313  0.0195  0.0797
  212MOL    H3738439   3.347   3.463   5.429 -1.8670 -0.7094 -0.4402
  212MOL    C3838440   3.082   3.358   5.394 -0.8722  0.4004 -0.1322
  212MOL    C3938441   2.941   3.345   5.333  0.0743  0.6534 -0.3065
  212MOL    C4038442   2.951   3.323   5.184 -0.1981 -0.0710  0.1006
  212MOL    H4138443   3.141   3.274   5.359 -0.9818  0.0685  0.4802
  212MOL    H4238444   3.078   3.344   5.502 -0.9166 -0.0173 -0.1900
  212MOL    H4338445   2.890   3.441   5.347 -0.1328  0.4851  0.1220
  212MOL    H4438446   2.852   3.305   5.144  0.3053  0.1065 -1.2297
  212MOL    H4538447   2.992   3.409   5.131 -0.3506  1.5795  2.5532
  212MOL    H4638448   3.016   3.236   5.176  0.0186  0.1022 -0.0348
  212MOL    C4738449   2.851   3.227   5.397  0.7893 -0.9051  0.3097
  212MOL    C4838450   2.790   3.244   5.544 -0.2673 -0.3183  0.4307
  212MOL    C4938451   2.736   3.387   5.576  0.1126 -0.6714  0.3583
  212MOL    H5038452   2.755   3.228   5.346 -0.5853  3.7204  2.7189
  212MOL    H5138453   2.890   3.126   5.387 -1.6760 -1.7714 -0.8116
  212MOL    H5238454   2.875   3.226   5.610  1.4030  0.4098 -1.4594
  212MOL    H5338455   2.677   3.432   5.496  0.3257  0.5663  0.8793
  212MOL    H5438456   2.687   3.398   5.673  2.1591 -0.0134  1.3566
  212MOL    H5538457   2.830   3.442   5.576 -0.3014  0.0480  1.3667
  212MOL    C5638458   2.678   3.143   5.570 -0.2206 -0.1736 -0.2228
  212MOL    C5738459   2.594   3.140   5.699  0.3947 -0.2396 -0.4212
  212MOL    C5838460   2.467   3.053   5.677  0.1345 -0.5373  0.0633
  212MOL    H5938461   2.610   3.138   5.484 -1.5015 -1.0449  0.8141
  212MOL    H6038462   2.723   3.045   5.559 -0.1255  0.0482 -1.9397
  212MOL    H6138463   2.550   3.238   5.713  1.1302  0.2225 -1.3521
  212MOL    H6238464   2.398   3.091   5.602  0.0868  1.6681  1.1784
  212MOL    H6338465   2.502   2.951   5.661  0.4241 -0.4414  0.0737
  212MOL    H6438466   2.402   3.043   5.764 -0.3009  2.9755  0.2006
  212MOL    C6538467   2.670   3.112   5.820 -0.1826  0.1171 -0.1575
  212MOL    C6638468   2.602   3.110   5.955  0.5798 -0.4474  0.4102
  212MOL    C6738469   2.687   3.067   6.069  0.0309  0.1032  0.6209
  212MOL    H6838470   2.706   3.009   5.810  0.4479  0.2831  0.3830
  212MOL    H6938471   2.765   3.165   5.825  0.8973 -1.6907 -0.7117
  212MOL    H7038472   2.512   3.049   5.945 -0.8573  1.5615  0.4723
  212MOL    H7138473   2.772   3.135   6.079 -1.1624  2.0951 -2.0663
  212MOL    H7238474   2.622   3.080   6.155 -1.2605 -0.6334 -0.2275
  212MOL    H7338475   2.727   2.967   6.052 -2.1845 -0.9994  1.7452
  212MOL    C7438476   2.557   3.258   5.988  0.0992  1.0389 -0.0742
  212MOL    C7538477   2.404   3.268   6.023  0.2020  0.1364 -0.0635
  212MOL    C7638478   2.381   3.196   6.162 -0.3232 -0.5670 -0.1414
  212MOL    H7738479   2.608   3.296   6.076 -0.1656  0.2823  0.4147
  212MOL    H7838480   2.578   3.329   5.908 -0.7958  0.4347 -0.8602
  212MOL    H7938481   2.364   3.214   5.938  0.0336  1.3836 -0.7845
  212MOL    H8038482   2.462   3.223   6.230 -0.4630 -0.7911  0.1170
  212MOL    H8138483   2.285   3.229   6.202 -0.1414  1.3731 -1.2353
  212MOL    H8238484   2.377   3.087   6.161 -0.3428 -0.5870  1.2258
  212MOL    C8338485   2.332   3.406   6.022  0.4356  0.1925 -0.5243
  212MOL    C8438486   2.336   3.487   5.892  0.0687 -0.0305  0.6353
  212MOL    C8538487   2.275   3.406   5.775 -0.4686  0.7887  0.2353
  212MOL    H8638488   2.227   3.393   6.048  0.7806  1.1026  1.4077
  212MOL    H8738489   2.373   3.460   6.107  0.4239 -0.8104  0.1193
  212MOL    H8838490   2.440   3.506   5.866 -0.1887 -1.2783 -1.4926
  212MOL    H8938491   2.268   3.459   5.680  0.0540 -0.7444 -0.6897
  212MOL    H9038492   2.343   3.323   5.755  0.4488  1.7751 -0.7744
  212MOL    H9138493   2.179   3.367   5.809 -1.2231  1.6562 -0.8790
  212MOL    C9238494   2.247   3.618   5.892  0.2023  0.0250 -0.3147
  212MOL    C9338495   2.306   3.733   5.804 -0.0036  0.0762  0.0394
  212MOL    C9438496   2.194   3.810   5.729 -0.3372  0.1307  0.5218
  212MOL    H9538497   2.149   3.595   5.850  0.5716 -0.8124 -0.7249
  212MOL    H9638498   2.228   3.651   5.994 -1.0190 -0.5683 -0.3466
  212MOL    H9738499   2.357   3.673   5.729  0.5498 -1.3755  1.5403
  212MOL    H9838500   2.145   3.889   5.786 -0.3129  1.6836 -1.5169
  212MOL    H9938501   2.234   3.856   5.639  1.6426  0.2576  1.4608
  212MOL   H10038502   2.113   3.747   5.692 -0.0858  1.0051 -1.6198
  212MOL   C10138503   2.402   3.830   5.882  0.3343  0.0282  0.4202
  212MOL   C10238504   2.498   3.893   5.783  0.1125  0.8624  0.3219
  212MOL   C10338505   2.439   4.024   5.744  0.4111 -0.2767  0.9106
  212MOL   H10438506   2.349   3.901   5.945  0.0419 -0.7529  1.0713
  212MOL   H10538507   2.462   3.763   5.943  1.0707 -1.2083 -1.6128
  212MOL   H10638508   2.504   3.835   5.691 -1.9342 -1.2336  1.4515
  212MOL   H10738509   2.332   4.017   5.727  0.7574 -2.3172 -0.6573
  212MOL   H10838510   2.457   4.109   5.810  0.8107 -1.2699  2.1080
  212MOL   H10938511   2.480   4.041   5.645 -0.2915  0.5789  0.7633
  212MOL   C11038512   2.648   3.907   5.827  0.0480  1.1314 -0.0515
  212MOL   C11138513   2.728   3.775   5.846  0.9991 -0.5599 -0.0090
  212MOL   C11238514   2.759   3.710   5.711 -0.5029  0.3851  0.1795
  212MOL   H11338515   2.698   3.981   5.764  0.9189 -0.6856 -1.5480
  212MOL   H11438516   2.635   3.964   5.919  0.1052 -0.9060  1.2259
  212MOL   H11538517   2.666   3.700   5.896  0.9844  0.3303  1.3173
  212MOL   H11638518   2.857   3.739   5.673  0.6984 -0.6857  2.3832
  212MOL   H11738519   2.771   3.602   5.720 -1.2097  0.2097 -0.9274
  212MOL   H11838520   2.679   3.734   5.641 -2.1475 -2.4058  1.0214
  212MOL   C11938521   2.856   3.797   5.921  0.0079  0.1881  0.2580
  212MOL   C12038522   2.843   3.816   6.075  0.3335  0.2596  0.4485
  212MOL   C12138523   2.785   3.689   6.153 -0.1412  0.6363  0.6953
  212MOL   H12238524   2.920   3.710   5.903 -0.1262  0.4333 -1.4958
  212MOL   H12338525   2.909   3.880   5.876  1.8178 -1.2508 -0.3169
  212MOL   H12438526   2.767   3.893   6.089 -0.4988 -0.8296  2.0967
  212MOL   H12538527   2.688   3.669   6.109  0.2570  0.3539 -0.0580
  212MOL   H12638528   2.837   3.594   6.156 -1.5823 -0.1187  2.2329
  212MOL   H12738529   2.773   3.716   6.259 -1.5045  0.2855  0.6322
  212MOL   C12838530   2.985   3.846   6.141  0.1571 -0.0931  0.2424
  212MOL   C12938531   3.030   3.995   6.114 -0.1856 -0.4614 -0.3418
  212MOL   C13038532   2.957   4.095   6.206  0.7247  0.2944 -0.2479
  212MOL   H13138533   2.977   3.831   6.248 -1.0214  1.8245  0.4418
  212MOL   H13238534   3.056   3.765   6.121 -0.0284 -0.5756  1.5036
  212MOL   H13338535   3.012   4.030   6.012 -1.4199  1.4720  0.5153
  212MOL   H13438536   2.986   4.196   6.177 -0.4664 -0.0375 -2.7875
  212MOL   H13538537   2.849   4.090   6.214  0.8893  0.9048  2.8304
  212MOL   H13638538   2.991   4.084   6.309 -1.3669 -1.2587  0.3171
  212MOL   C13738539   3.178   4.017   6.139  0.1419 -0.2987 -0.1766
  212MOL   C13838540   3.274   3.928   6.050  0.3020  0.1605 -0.2295
  212MOL   C13938541   3.240   3.942   5.901  0.1370 -0.2842 -0.8185
  212MOL   H14038542   3.198   4.122   6.118 -1.3723 -0.2498 -1.5112
  212MOL   H14138543   3.192   3.995   6.245  0.6769 -0.1358 -0.2105
  212MOL   H14238544   3.257   3.823   6.073  1.5806  0.2889  1.4167
  212MOL   H14338545   3.317   3.906   5.832  1.4737 -0.4332  0.7297
  212MOL   H14438546   3.146   3.889   5.882 -0.4277 -0.7060  2.8750
  212MOL   H14538547   3.226   4.046   5.873 -0.1266  0.0955  0.7026
  212MOL   C14638548   3.422   3.950   6.075  0.1678 -0.5202 -0.4921
  212MOL   C14738549   3.478   3.937   6.228 -0.1389 -0.1401 -0.1302
  212MOL   C14838550   3.447   3.807   6.300  0.0028 -0.0590  0.4536
  212MOL   H14938551   3.480   3.873   6.023 -2.4885 -2.8075 -0.1444
  212MOL   H15038552   3.447   4.048   6.033  0.1292 -0.4603 -0.3768
  212MOL   H15138553   3.418   4.010   6.283 -1.3742 -0.8536 -0.5090
  212MOL   H15238554   3.338   3.797   6.303 -0.0086 -0.5845 -1.3600
  212MOL   H15338555   3.479   3.711   6.258  1.2605  0.6202 -0.1470
  212MOL   H15438556   3.485   3.808   6.402  1.7380 -1.4651 -0.1557
  212MOL   C15538557   3.631   3.974   6.240 -0.0112 -0.2217  0.0897
  212MOL   C15638558   3.685   4.117   6.183  0.1433  0.0422  0.8259
  212MOL   C15738559   3.664   4.248   6.273  0.2992  0.0373 -0.5107
  212MOL   H15838560   3.667   3.984   6.342  0.3622 -0.2015 -0.0421
  212MOL   H15938561   3.684   3.891   6.193  0.3573  0.2120 -0.2628
  212MOL   H16038562   3.642   4.134   6.084 -0.5342 -1.9621  0.7491
  212MOL   H16138563   3.665   4.225   6.380 -2.0380 -0.3274 -0.5236
  212MOL   H16238564   3.741   4.325   6.267  1.5695 -1.1521  0.2666
  212MOL   H16338565   3.561   4.284   6.263 -0.3404 -1.5282  0.3473
  212MOL   C16438566   3.842   4.105   6.158 -0.3886 -0.1360  0.3851
  212MOL   C16538567   3.914   4.223   6.085 -0.4115 -0.9320 -0.0432
  212MOL   C16638568   4.059   4.196   6.078 -0.1735  0.0251  0.3381
  212MOL   H16738569   3.877   4.088   6.260 -1.0637 -0.2114  0.6079
  212MOL   H16838570   3.855   4.014   6.099  0.2604 -1.9373  3.2141
  212MOL   H16938571   3.894   4.314   6.141  0.3298  0.8546 -2.6219
  212MOL   H17038572   4.092   4.201   6.181  2.0928  0.0710 -0.3669
  212MOL   H17138573   4.079   4.096   6.040 -0.3449  0.5135 -1.0753
  212MOL   H17238574   4.105   4.273   6.016 -1.3301 -1.1091 -1.9947
  212MOL   C17338575   3.859   4.254   5.948 -0.2300  0.6283  0.3660
  212MOL   C17438576   3.888   4.159   5.837 -0.0492  0.3312 -0.7810
  212MOL   C17538577   3.830   4.193   5.700 -0.0051 -0.5507  0.1296
  212MOL   H17638578   3.751   4.272   5.945 -0.3262  0.1572  0.8541
  212MOL   H17738579   3.906   4.350   5.933  0.3285  0.2478 -0.3091
  212MOL   H17838580   3.850   4.062   5.870  1.4859  0.1651  0.5576
  212MOL   H17938581   3.870   4.282   5.652 -1.8245 -0.0591 -0.5356
  212MOL   H18038582   3.852   4.106   5.639  1.4534  0.0343 -0.2114
  212MOL   H18138583   3.721   4.195   5.707  0.1537 -0.6665  3.7161
  212MOL   H18238584   3.995   4.144   5.828  0.1434  0.4780  1.0065
  213MOL     C138585   4.141   1.228   4.783 -0.4727 -0.3738  0.1368
  213MOL     C238586   4.274   1.284   4.831 -0.0325  0.1615  0.3742
  213MOL     C338587   4.380   1.173   4.853 -0.1875  0.8683 -0.8327
  213MOL     H438588   4.059   1.292   4.817  0.8612  0.6690  1.5231
  213MOL     H538589   4.120   1.126   4.816  2.1909 -0.8834  0.3763
  213MOL     H638590   4.251   1.324   4.930 -0.6743  0.1017  0.2515
  213MOL     H738591   4.343   1.115   4.937  0.8662  1.0007 -0.2743
  213MOL     H838592   4.401   1.101   4.774  0.8303 -0.6967  0.8278
  213MOL     H938593   4.476   1.210   4.889 -1.1592  1.8585  0.8153
  213MOL    H1038594   4.141   1.233   4.674 -0.1802 -0.4436  0.1318
  213MOL    C1138595   4.332   1.403   4.748  0.6781 -0.4445  0.1231
  213MOL    C1238596   4.257   1.538   4.757 -0.6490 -0.2844  0.8301
  213MOL    C1338597   4.274   1.607   4.895  0.1811 -0.1587  0.0914
  213MOL    H1438598   4.428   1.426   4.793  0.0007 -0.2489  1.4874
  213MOL    H1538599   4.355   1.378   4.644 -0.0590  2.1241 -0.7013
  213MOL    H1638600   4.149   1.532   4.739 -0.7310  2.3839  0.1530
  213MOL    H1738601   4.368   1.662   4.896  0.2848 -0.2720 -1.6410
  213MOL    H1838602   4.192   1.672   4.925 -0.2618 -0.3079 -0.7825
  213MOL    H1938603   4.291   1.528   4.969 -0.1441  0.8765  1.2913
  213MOL    C2038604   4.308   1.634   4.647 -0.6164  0.7103  0.1636
  213MOL    C2138605   4.227   1.615   4.520 -0.5981 -0.9039 -0.6384
  213MOL    C2238606   4.295   1.696   4.406  0.1116  0.4978 -0.2225
  213MOL    H2338607   4.297   1.736   4.683 -0.8942  0.8273 -0.2595
  213MOL    H2438608   4.415   1.616   4.633 -0.8583  0.6206 -1.6270
  213MOL    H2538609   4.128   1.658   4.538 -0.0549 -0.3092  0.9511
  213MOL    H2638610   4.397   1.656   4.407  0.2392  0.8028 -0.9078
  213MOL    H2738611   4.251   1.700   4.307  0.2339  0.2137 -0.2879
  213MOL    H2838612   4.306   1.803   4.428 -3.4464  1.0590 -1.0086
  213MOL    C2938613   4.198   1.472   4.460 -0.1338 -0.9301  0.1616
  213MOL    C3038614   4.073   1.458   4.372  0.2507 -0.1951  0.3984
  213MOL    C3138615   4.080   1.330   4.280  0.6061 -0.0107 -0.1503
  213MOL    H3238616   4.282   1.432   4.404  0.6466  0.3884  0.3708
  213MOL    H3338617   4.177   1.403   4.542 -0.6463 -0.7581  0.1788
  213MOL    H3438618   4.070   1.543   4.303  0.2673  0.0740  0.7290
  213MOL    H3538619   4.046   1.236   4.324 -1.5101  1.5108  1.6059
  213MOL    H3638620   4.015   1.331   4.192 -1.7582 -1.6573  1.5050
  213MOL    H3738621   4.177   1.313   4.234 -0.1107 -1.7189 -1.0880
  213MOL    C3838622   3.938   1.462   4.447 -0.2152  0.4859  0.0879
  213MOL    C3938623   3.810   1.412   4.375 -0.0408 -0.2992 -0.3869
  213MOL    C4038624   3.697   1.391   4.482  0.2808  0.4073 -0.3733
  213MOL    H4138625   3.958   1.404   4.538 -0.0315  1.8746  0.9516
  213MOL    H4238626   3.929   1.565   4.481  1.6451  0.5127  0.5698
  213MOL    H4338627   3.824   1.315   4.326  0.5832  0.2514 -1.2974
  213MOL    H4438628   3.745   1.341   4.567 -2.3941 -0.5050  0.6671
  213MOL    H4538629   3.657   1.486   4.517 -0.3016 -0.5236  1.5454
  213MOL    H4638630   3.617   1.327   4.444 -0.5350 -0.7133  3.0565
  213MOL    C4738631   3.762   1.505   4.257 -0.3048  0.3182  0.1818
  213MOL    C4838632   3.654   1.447   4.165  0.1156  0.7233  0.4501
  213MOL    C4938633   3.588   1.562   4.091  0.0286 -0.0528  0.0246
  213MOL    H5038634   3.730   1.594   4.310  0.3194  2.0068 -2.2047
  213MOL    H5138635   3.846   1.538   4.195 -0.7165  2.0073  0.5199
  213MOL    H5238636   3.576   1.401   4.226  0.6290 -1.1366 -0.2669
  213MOL    H5338637   3.524   1.524   4.012 -1.4889 -1.2761  1.7946
  213MOL    H5438638   3.533   1.629   4.158  0.4990  0.1318  0.2326
  213MOL    H5538639   3.670   1.617   4.045  1.4884  0.0192  2.5810
  213MOL    C5638640   3.695   1.326   4.071 -0.0521 -0.0594 -0.0348
  213MOL    C5738641   3.598   1.207   4.081  0.5796  0.1786  0.5572
  213MOL    C5838642   3.474   1.249   3.996  0.4331  0.3238 -0.7749
  213MOL    H5938643   3.716   1.363   3.970 -0.2515 -0.6676 -0.2996
  213MOL    H6038644   3.792   1.295   4.109 -0.3059 -1.9702 -0.8916
  213MOL    H6138645   3.571   1.184   4.184  1.6159 -0.3114  0.7274
  213MOL    H6238646   3.409   1.162   3.993 -0.3076  0.8135  0.7887
  213MOL    H6338647   3.417   1.330   4.041 -1.0065 -0.5253 -1.0246
  213MOL    H6438648   3.492   1.271   3.891 -1.1346 -1.8212 -1.5268
  213MOL    C6538649   3.658   1.079   4.021 -0.4441  0.4153 -0.0380
  213MOL    C6638650   3.774   1.010   4.103 -1.0356  0.1568 -0.5899
  213MOL    C6738651   3.711   0.940   4.225  0.0506  0.1897  0.3187
  213MOL    H6838652   3.589   1.000   3.993  3.8703 -2.7677 -2.1645
  213MOL    H6938653   3.697   1.106   3.923 -1.9435  0.7790 -0.5424
  213MOL    H7038654   3.839   1.086   4.145 -0.2135 -1.6684  1.5465
  213MOL    H7138655   3.644   0.860   4.197  0.8923 -0.4544  0.1321
  213MOL    H7238656   3.795   0.904   4.285 -0.4922 -0.1285  0.8926
  213MOL    H7338657   3.660   1.012   4.289 -1.5455  0.3068 -1.0643
  213MOL    C7438658   3.856   0.904   4.021  0.4899 -0.1757 -0.7154
  213MOL    C7538659   3.954   0.967   3.909 -0.7343 -0.1029 -0.2338
  213MOL    C7638660   4.060   1.068   3.960 -0.1383  0.5403 -0.3621
  213MOL    H7738661   3.923   0.849   4.087 -1.2866 -0.9706  0.4682
  213MOL    H7838662   3.785   0.834   3.979  0.3297 -0.5302  0.1324
  213MOL    H7938663   3.897   1.031   3.841  0.9276  2.1681  0.4490
  213MOL    H8038664   4.149   1.020   4.002  0.7435  1.2500 -1.3784
  213MOL    H8138665   4.115   1.131   3.890 -0.7385  0.6309 -0.7588
  213MOL    H8238666   4.019   1.133   4.038  0.0200 -0.6690  0.7380
  213MOL    C8338667   4.021   0.853   3.829 -0.0938 -0.4842 -0.0760
  213MOL    C8438668   3.922   0.749   3.761  0.0564  0.1175 -1.0250
  213MOL    C8538669   3.842   0.833   3.655  0.1838  0.3035 -0.2663
  213MOL    H8638670   4.096   0.895   3.762  0.4451 -0.7183  0.3766
  213MOL    H8738671   4.092   0.802   3.895 -0.3532  0.3596  0.8851
  213MOL    H8838672   3.851   0.704   3.832  0.1996 -0.3202 -1.1589
  213MOL    H8938673   3.912   0.893   3.596  1.3807  0.0621  0.8857
  213MOL    H9038674   3.787   0.774   3.582 -0.3125  0.6806 -0.1969
  213MOL    H9138675   3.775   0.897   3.712  3.1608  2.0128  1.4533
  213MOL    C9238676   3.993   0.627   3.703 -0.2918 -0.0566  0.0613
  213MOL    C9338677   4.005   0.511   3.806 -0.8236  0.3515 -0.6783
  213MOL    C9438678   3.872   0.444   3.829 -0.3327 -0.9549  0.2904
  213MOL    H9538679   3.951   0.606   3.605  0.6760 -0.4122 -0.2776
  213MOL    H9638680   4.086   0.675   3.674 -0.2116  0.0383  0.4720
  213MOL    H9738681   4.033   0.538   3.908  0.3542 -1.2337 -0.5638
  213MOL    H9838682   3.812   0.460   3.740 -2.8713 -1.6509  1.8048
  213MOL    H9938683   3.877   0.338   3.854 -1.5993 -1.5175 -1.7375
  213MOL   H10038684   3.807   0.495   3.901 -1.4958 -2.3064  0.2010
  213MOL   C10138685   4.104   0.411   3.739  0.2576 -0.3980 -0.6256
  213MOL   C10238686   4.149   0.287   3.821 -0.0060 -0.2136 -0.1042
  213MOL   C10338687   4.236   0.202   3.725  0.0640  1.0320 -0.4625
  213MOL   H10438688   4.061   0.373   3.646  3.8943  0.7037 -2.8905
  213MOL   H10538689   4.190   0.472   3.712  0.8201  1.1514  4.2230
  213MOL   H10638690   4.062   0.225   3.838  0.6984 -1.4696 -0.9357
  213MOL   H10738691   4.316   0.270   3.697 -1.1895  2.4164 -0.7885
  213MOL   H10838692   4.276   0.114   3.775 -0.1054  1.1306 -0.1484
  213MOL   H10938693   4.186   0.176   3.632  0.6208 -1.3249 -0.1178
  213MOL   C11038694   4.229   0.322   3.953  0.5547 -0.2980 -0.1085
  213MOL   C11138695   4.144   0.340   4.073 -0.2305 -0.2289 -0.5995
  213MOL   C11238696   4.072   0.205   4.130  0.8226  0.1965  0.0538
  213MOL   H11338697   4.289   0.234   3.977 -0.3181 -0.8271  0.1759
  213MOL   H11438698   4.301   0.401   3.933  0.3602 -0.0352  0.2287
  213MOL   H11538699   4.053   0.396   4.051 -1.7956 -2.2625  0.4517
  213MOL   H11638700   4.134   0.116   4.139  1.2461  0.6092  1.3381
  213MOL   H11738701   4.023   0.215   4.227  2.3461  0.9303  0.7695
  213MOL   H11838702   3.998   0.181   4.054  1.2595  2.5054 -1.1489
  213MOL   C11938703   4.228   0.412   4.180  0.0672  0.1246  0.0439
  213MOL   C12038704   4.148   0.447   4.312  0.2419 -0.1649 -0.6965
  213MOL   C12138705   4.251   0.499   4.423 -0.5141 -0.3342  1.0113
  213MOL   H12238706   4.309   0.350   4.217 -0.0633 -0.0616  0.0245
  213MOL   H12338707   4.276   0.500   4.138  0.3804 -0.5615 -1.0402
  213MOL   H12438708   4.097   0.362   4.355 -1.4872  1.8650  1.3979
  213MOL   H12538709   4.184   0.544   4.496 -0.6590  0.5833  0.3272
  213MOL   H12638710   4.307   0.427   4.483  2.8390  0.7158 -0.7410
  213MOL   H12738711   4.316   0.575   4.378 -0.3991 -0.0296  1.6715
  213MOL   C12838712   4.044   0.561   4.290  0.1653  0.4362  0.6318
  213MOL   C12938713   3.955   0.587   4.414  0.2095  0.1396  0.8766
  213MOL   C13038714   3.976   0.729   4.460  0.0351 -0.3016 -0.2666
  213MOL   H13138715   4.094   0.654   4.261 -2.2490  1.2125 -1.1467
  213MOL   H13238716   3.977   0.537   4.208  0.7258  0.8340  0.0526
  213MOL   H13338717   3.981   0.535   4.506 -1.1403 -1.4034  0.4285
  213MOL   H13438718   4.075   0.741   4.506 -0.5188  0.8349  0.6728
  213MOL   H13538719   3.965   0.798   4.377 -0.2144  0.5782  0.4876
  213MOL   H13638720   3.907   0.767   4.535 -0.1549  0.8106 -1.0001
  213MOL   C13738721   3.805   0.571   4.386  0.1170 -0.1169  0.3118
  213MOL   C13838722   3.766   0.422   4.377  0.0852  0.1330 -0.6184
  213MOL   C13938723   3.780   0.362   4.526 -0.5299 -1.0112  0.0523
  213MOL   H14038724   3.738   0.619   4.456  1.5342 -0.3176  1.8487
  213MOL   H14138725   3.786   0.618   4.290 -0.6268 -2.9712 -0.9998
  213MOL   H14238726   3.845   0.372   4.320  2.0847  1.9232  0.4991
  213MOL   H14338727   3.735   0.424   4.603  0.0739 -2.5236  1.6523
  213MOL   H14438728   3.729   0.266   4.532 -0.4555 -1.0583 -0.0648
  213MOL   H14538729   3.884   0.344   4.555 -0.8573 -0.8571  1.3184
  213MOL   C14638730   3.631   0.406   4.319 -0.1241 -0.5261 -0.4157
  213MOL   C14738731   3.622   0.417   4.164 -0.2674  0.2410  0.0390
  213MOL   C14838732   3.654   0.274   4.117 -0.0468  0.7826  0.4101
  213MOL   H14938733   3.592   0.310   4.353 -2.7139  0.6084 -0.0519
  213MOL   H15038734   3.564   0.474   4.370 -2.1596 -1.0150 -2.3400
  213MOL   H15138735   3.696   0.488   4.126 -0.8571  0.6278 -0.3898
  213MOL   H15238736   3.582   0.197   4.145 -0.2235  0.1453 -1.7145
  213MOL   H15338737   3.661   0.269   4.008  0.2284 -1.4871  0.5054
  213MOL   H15438738   3.749   0.234   4.150 -1.0113 -2.0332 -0.1002
  213MOL   C15538739   3.490   0.466   4.110 -0.1232  0.0395 -0.2946
  213MOL   C15638740   3.461   0.622   4.124  0.7036 -0.3508 -1.5452
  213MOL   C15738741   3.518   0.691   3.998  0.0658 -0.5355 -0.1420
  213MOL   H15838742   3.489   0.449   4.002 -1.1237  0.5092 -0.3663
  213MOL   H15938743   3.406   0.409   4.148 -0.3603  0.5959  0.0212
  213MOL   H16038744   3.516   0.656   4.212  1.2167  0.3442 -2.1134
  213MOL   H16138745   3.467   0.641   3.915 -0.8951  0.8555 -0.4143
  213MOL   H16238746   3.499   0.798   3.986 -1.0155 -0.6202  0.7044
  213MOL   H16338747   3.623   0.663   3.990  0.0847 -0.3868 -0.4156
  213MOL   C16438748   3.309   0.641   4.148  0.6798 -0.2189 -0.3892
  213MOL   C16538749   3.247   0.783   4.138  0.5081 -0.9978  0.6772
  213MOL   C16638750   3.093   0.759   4.153 -0.0696  0.1611 -0.0756
  213MOL   H16738751   3.258   0.577   4.077  0.4097 -1.7051  1.1037
  213MOL   H16838752   3.288   0.593   4.244  1.4981  0.3173  0.0665
  213MOL   H16938753   3.275   0.823   4.040 -2.0571 -1.2639 -0.2057
  213MOL   H17038754   3.044   0.856   4.144 -0.4145 -0.0571 -0.5818
  213MOL   H17138755   3.048   0.694   4.079 -0.0365 -1.5953  1.4259
  213MOL   H17238756   3.077   0.719   4.253  3.8452 -1.0544  0.1423
  213MOL   C17338757   3.287   0.877   4.252  0.0097 -0.6308  0.1299
  213MOL   C17438758   3.273   1.021   4.219 -0.2544  0.0896  0.9067
  213MOL   C17538759   3.296   1.117   4.334  0.6750 -0.5463  0.4328
  213MOL   H17638760   3.233   0.854   4.343  0.4990  1.0088  0.8445
  213MOL   H17738761   3.390   0.864   4.287  0.2202 -2.0059 -0.9328
  213MOL   H17838762   3.184   1.056   4.165  1.2635  2.1379 -0.3443
  213MOL   H17938763   3.295   1.223   4.310 -0.7168 -0.6344  0.0488
  213MOL   H18038764   3.218   1.111   4.411  0.5026  0.9176  0.3886
  213MOL   H18138765   3.389   1.092   4.386  1.0296  0.7664  0.4493
  213MOL   H18238766   3.356   1.042   4.152  0.5444 -0.9623  1.5529
  214MOL     C138767   4.972   2.797   6.363 -0.8096 -0.3128  0.1241
  214MOL     C238768   5.007   2.936   6.411  0.3358  0.6257  0.2383
  214MOL     C338769   4.883   3.022   6.371 -0.1838  0.5037  0.8718
  214MOL     H438770   4.959   2.790   6.255  1.6427  0.7647 -0.2874
  214MOL     H538771   4.888   2.749   6.413  0.4027 -1.2140  1.3417
  214MOL     H638772   5.099   2.969   6.362  0.3776 -1.5192 -1.1789
  214MOL     H738773   4.881   3.125   6.405  1.3539  0.5326  0.9273
  214MOL     H838774   4.876   3.015   6.263  1.0313  1.6012  0.7130
  214MOL     H938775   4.792   2.980   6.413  0.2542 -0.7295  0.6225
  214MOL    H1038776   5.065   2.742   6.379 -0.8654 -0.8722 -1.4112
  214MOL    C1138777   5.021   2.953   6.564 -0.0870  0.1712 -0.1338
  214MOL    C1238778   5.142   2.875   6.626  0.1233 -0.2136 -0.0187
  214MOL    C1338779   5.276   2.901   6.552  0.1985  0.3198  0.0142
  214MOL    H1438780   5.031   3.055   6.600  0.1387 -0.2925  1.1619
  214MOL    H1538781   4.934   2.905   6.610  0.2533 -1.0051 -0.6896
  214MOL    H1638782   5.119   2.769   6.616 -1.4211  0.2195 -1.3428
  214MOL    H1738783   5.360   2.861   6.609  0.4355 -1.9372 -1.8147
  214MOL    H1838784   5.269   2.847   6.457  0.9135 -1.2699  0.8440
  214MOL    H1938785   5.300   3.005   6.529 -1.1315  0.3362 -1.4086
  214MOL    C2038786   5.151   2.902   6.783 -0.1236  0.1900  0.0979
  214MOL    C2138787   5.211   2.785   6.866 -0.1703 -0.3603  0.3600
  214MOL    C2238788   5.265   2.837   7.008  0.0614 -0.0494 -0.1924
  214MOL    H2338789   5.189   3.001   6.805 -1.7952  1.3535 -2.0328
  214MOL    H2438790   5.050   2.923   6.819  0.0471  1.0697  0.0589
  214MOL    H2538791   5.297   2.746   6.812  0.1303  2.5015 -1.3497
  214MOL    H2638792   5.315   2.761   7.069  0.0265 -0.8579 -1.1533
  214MOL    H2738793   5.327   2.924   6.989  1.5018 -0.5029  2.1817
  214MOL    H2838794   5.187   2.864   7.079 -1.6403 -1.3028 -1.5419
  214MOL    C2938795   5.104   2.676   6.894 -0.6461  0.1050 -0.1041
  214MOL    C3038796   5.166   2.540   6.918 -0.4134 -0.3797 -0.1023
  214MOL    C3138797   5.067   2.455   6.995  0.3585 -0.2523  0.0001
  214MOL    H3238798   5.039   2.700   6.978  1.6517  2.5545  1.0622
  214MOL    H3338799   5.035   2.671   6.811 -1.0026 -1.7120  0.2749
  214MOL    H3438800   5.250   2.560   6.985 -0.3515 -0.5885 -0.1161
  214MOL    H3538801   5.116   2.359   7.011 -0.9418 -1.3748 -2.4945
  214MOL    H3638802   5.036   2.490   7.094  1.1430  0.0943  0.1305
  214MOL    H3738803   4.976   2.436   6.939  1.0270 -1.9638 -0.5386
  214MOL    C3838804   5.221   2.463   6.797  0.0722 -0.2399  0.2285
  214MOL    C3938805   5.340   2.364   6.841 -0.7372 -0.8873  0.2161
  214MOL    C4038806   5.314   2.223   6.792  0.5369 -0.1613 -0.1504
  214MOL    H4138807   5.142   2.414   6.741 -0.6602 -0.8038  1.7473
  214MOL    H4238808   5.260   2.539   6.728  0.3436 -0.8944 -0.3534
  214MOL    H4338809   5.356   2.361   6.949  0.4726  0.0334  0.0832
  214MOL    H4438810   5.226   2.177   6.835  1.9403  0.5088  3.5725
  214MOL    H4538811   5.316   2.208   6.684 -1.4713 -0.9401 -0.0953
  214MOL    H4638812   5.397   2.158   6.819  1.9153  1.0804 -1.3027
  214MOL    C4738813   5.472   2.434   6.794  0.0352  0.7491  0.1409
  214MOL    C4838814   5.602   2.366   6.851  0.8790  0.2669 -0.2253
  214MOL    C4938815   5.730   2.405   6.779 -0.4882  0.0127  0.3301
  214MOL    H5038816   5.477   2.436   6.686  0.0721 -1.3199  0.0718
  214MOL    H5138817   5.486   2.536   6.829  1.8874  0.0857  1.4178
  214MOL    H5238818   5.593   2.257   6.846  2.1900  0.0425  1.6720
  214MOL    H5338819   5.769   2.502   6.810 -0.1764  0.1755 -0.5777
  214MOL    H5438820   5.807   2.330   6.799  1.4771  2.3156  1.6799
  214MOL    H5538821   5.708   2.403   6.673  1.8996 -0.0679 -0.2074
  214MOL    C5638822   5.624   2.384   7.008 -0.4735  0.2540  0.3384
  214MOL    C5738823   5.746   2.309   7.064 -0.7770  0.0671  0.0479
  214MOL    C5838824   5.875   2.389   7.079  0.4420 -0.0278  0.0308
  214MOL    H5938825   5.634   2.492   7.024  0.0647  0.1798  0.5167
  214MOL    H6038826   5.529   2.368   7.059 -1.7182  1.9818 -1.3649
  214MOL    H6138827   5.789   2.229   7.004 -0.9219 -0.2241  0.3304
  214MOL    H6238828   5.856   2.464   7.156  2.1412  0.2120  0.2296
  214MOL    H6338829   5.968   2.336   7.102  0.8149 -0.1539 -1.7271
  214MOL    H6438830   5.880   2.444   6.986 -0.3452 -0.7695 -0.4535
  214MOL    C6538831   5.722   2.236   7.204  0.4727  0.2711  0.5009
  214MOL    C6638832   5.663   2.093   7.195 -0.3068  0.4428 -0.5373
  214MOL    C6738833   5.757   1.995   7.122 -0.2540  0.9683 -0.6338
  214MOL    H6838834   5.814   2.226   7.262  0.4165 -0.1730  0.5159
  214MOL    H6938835   5.670   2.311   7.264 -0.0213  0.2914  0.0453
  214MOL    H7038836   5.571   2.099   7.136 -0.8335 -0.7291  0.1338
  214MOL    H7138837   5.759   2.015   7.015 -0.4067  0.4501 -0.7365
  214MOL    H7238838   5.862   1.995   7.153 -0.5260  1.6043  0.3269
  214MOL    H7338839   5.720   1.893   7.130 -2.4189  1.7373 -0.7006
  214MOL    C7438840   5.625   2.037   7.338 -0.1709 -0.3672  0.5898
  214MOL    C7538841   5.541   1.909   7.348  0.1972 -0.0499  0.3913
  214MOL    C7638842   5.531   1.860   7.490 -0.0119 -0.2803 -0.3129
  214MOL    H7738843   5.712   2.022   7.402  0.3231 -0.1502 -0.0272
  214MOL    H7838844   5.572   2.122   7.382  1.0612  0.7801 -0.1097
  214MOL    H7938845   5.595   1.829   7.296 -0.7274 -1.1856  1.1494
  214MOL    H8038846   5.478   1.765   7.498 -1.1185  0.4023  0.6630
  214MOL    H8138847   5.627   1.857   7.541  0.1916 -1.4104 -0.7356
  214MOL    H8238848   5.458   1.925   7.538  1.2039 -0.5535  1.9641
  214MOL    C8338849   5.411   1.911   7.275  1.4158 -0.2474  0.1927
  214MOL    C8438850   5.292   1.995   7.321  0.5032  0.0735 -0.2190
  214MOL    C8538851   5.283   2.122   7.240  0.3498  0.0505  0.6107
  214MOL    H8638852   5.428   1.943   7.172 -2.4186  1.4963  0.0100
  214MOL    H8738853   5.386   1.806   7.258  1.0555  0.2638 -2.8901
  214MOL    H8838854   5.309   2.026   7.424 -0.7409  0.9651 -0.2697
  214MOL    H8938855   5.260   2.104   7.135 -0.5977 -2.6848  1.2511
  214MOL    H9038856   5.201   2.178   7.285  0.5742 -0.0913  1.2045
  214MOL    H9138857   5.367   2.186   7.267  0.3470  0.3842 -0.1553
  214MOL    C9238858   5.157   1.923   7.317 -0.0793 -0.0160 -0.5921
  214MOL    C9338859   5.139   1.817   7.433 -0.2550  0.5989  0.0845
  214MOL    C9438860   5.122   1.883   7.574 -0.0036 -0.6786  0.2667
  214MOL    H9538861   5.075   1.994   7.328  0.1721  0.1720  0.1173
  214MOL    H9638862   5.149   1.872   7.221  1.4056 -2.9764  0.8231
  214MOL    H9738863   5.233   1.765   7.451 -0.2639 -0.1737 -1.9627
  214MOL    H9838864   5.191   1.966   7.590  0.5987 -1.0897 -0.1948
  214MOL    H9938865   5.022   1.926   7.582 -0.1168 -1.0962  1.0596
  214MOL   H10038866   5.131   1.808   7.652  1.4243 -1.9657 -1.1113
  214MOL   C10138867   5.033   1.707   7.405 -0.6265 -0.3034 -0.2530
  214MOL   C10238868   5.073   1.591   7.306  0.0717 -0.4264  0.3451
  214MOL   C10338869   5.212   1.528   7.317  0.2645  0.0299 -0.2258
  214MOL   H10438870   5.012   1.655   7.498 -0.8104 -0.6610 -0.4933
  214MOL   H10538871   4.934   1.739   7.371 -0.0170  0.1078 -1.6798
  214MOL   H10638872   5.073   1.638   7.208  2.6677 -1.5318 -0.2254
  214MOL   H10738873   5.238   1.476   7.224  1.9256  0.6839 -0.1491
  214MOL   H10838874   5.284   1.610   7.320  0.0630  0.2147 -0.3918
  214MOL   H10938875   5.225   1.461   7.402 -1.7745  2.3880  2.0044
  214MOL   C11038876   4.962   1.483   7.309 -0.1460  0.2568  0.0283
  214MOL   C11138877   4.964   1.378   7.189 -0.2330  0.2731  0.1711
  214MOL   C11238878   4.844   1.291   7.222 -0.2004  0.8238 -0.5938
  214MOL   H11338879   4.978   1.428   7.401  0.8615  1.1859  0.4141
  214MOL   H11438880   4.860   1.521   7.315 -1.3892 -2.4593 -2.2739
  214MOL   H11538881   5.050   1.311   7.194 -0.4825  0.0495  1.7050
  214MOL   H11638882   4.830   1.199   7.166  1.4274 -0.5786  1.2455
  214MOL   H11738883   4.843   1.260   7.326  1.3831  0.7249 -0.6043
  214MOL   H11838884   4.749   1.345   7.215 -1.9397 -2.1958 -1.4917
  214MOL   C11938885   4.965   1.435   7.046  0.7658 -0.3528 -0.0915
  214MOL   C12038886   4.985   1.334   6.922  0.1863  0.4734 -0.1321
  214MOL   C12138887   4.936   1.386   6.783 -0.9512 -0.0195 -0.5025
  214MOL   H12238888   4.867   1.480   7.029  1.0141  0.4290  0.5169
  214MOL   H12338889   5.045   1.505   7.024  0.4807  0.1286  0.4097
  214MOL   H12438890   4.916   1.252   6.943  1.3405 -0.7640 -1.0743
  214MOL   H12538891   4.844   1.443   6.795 -1.5533 -0.7888 -1.4290
  214MOL   H12638892   5.006   1.444   6.724 -1.3051  1.2130  0.2608
  214MOL   H12738893   4.912   1.300   6.720 -5.1537 -0.3182  1.3262
  214MOL   C12838894   5.134   1.292   6.917 -0.0657  0.0654  0.0526
  214MOL   C12938895   5.167   1.153   6.861 -0.4011  0.4377 -0.2457
  214MOL   C13038896   5.307   1.140   6.812 -0.2995 -0.5507  0.2867
  214MOL   H13138897   5.207   1.355   6.866 -0.9122  0.7221 -0.3530
  214MOL   H13238898   5.176   1.289   7.017 -2.8411  0.5777  1.2614
  214MOL   H13338899   5.103   1.136   6.774 -1.1709  0.9761  0.2045
  214MOL   H13438900   5.318   1.199   6.721  1.0264  1.6390  1.8025
  214MOL   H13538901   5.377   1.175   6.888  2.4982 -0.5838 -2.1980
  214MOL   H13638902   5.335   1.036   6.796 -1.7883 -0.7226 -1.2652
  214MOL   C13738903   5.135   1.042   6.964 -0.1295 -0.5469  0.0949
  214MOL   C13838904   5.071   0.914   6.907  0.1093 -0.7019  0.2701
  214MOL   C13938905   5.085   0.808   7.013  0.2789 -0.3250  1.1804
  214MOL   H14038906   5.221   1.008   7.020 -0.2913 -0.3885  0.4403
  214MOL   H14138907   5.073   1.083   7.044  1.2662  0.1937  0.8024
  214MOL   H14238908   5.147   0.876   6.839 -1.2203  0.5344 -1.9656
  214MOL   H14338909   5.013   0.825   7.093 -2.6032 -0.2926 -1.3149
  214MOL   H14438910   5.054   0.711   6.974  0.7626 -1.0267  2.5066
  214MOL   H14538911   5.181   0.792   7.062  2.1973  2.7216 -1.4072
  214MOL   C14638912   4.935   0.919   6.848 -0.1419  0.3985 -0.2180
  214MOL   C14738913   4.911   0.843   6.716 -0.0934 -0.0544 -0.4075
  214MOL   C14838914   4.935   0.698   6.741  0.2117 -0.0731 -0.0156
  214MOL   H14938915   4.857   0.896   6.922 -1.0034  2.1083 -0.5852
  214MOL   H15038916   4.899   1.019   6.825  2.7120  1.6585  0.5923
  214MOL   H15138917   4.983   0.883   6.644  1.2388 -3.1321 -0.8505
  214MOL   H15238918   4.868   0.663   6.821  2.2337 -0.7313  1.4341
  214MOL   H15338919   4.922   0.634   6.654  2.0014  1.1527 -1.1975
  214MOL   H15438920   5.038   0.682   6.772 -0.5220 -1.9230  1.6777
  214MOL   C15538921   4.777   0.884   6.655 -0.3307 -0.2683 -0.1285
  214MOL   C15638922   4.785   0.867   6.502  0.0324 -0.5697  0.0678
  214MOL   C15738923   4.654   0.780   6.478  0.2008 -0.4864  0.0681
  214MOL   H15838924   4.688   0.840   6.701 -0.9057  1.5089  0.5039
  214MOL   H15938925   4.752   0.987   6.681 -2.5512 -0.0379 -2.8498
  214MOL   H16038926   4.865   0.796   6.483 -0.1082 -0.8012  0.3337
  214MOL   H16138927   4.645   0.739   6.377 -3.4770 -0.6180  0.3881
  214MOL   H16238928   4.638   0.697   6.547  3.8728 -0.4243  1.1069
  214MOL   H16338929   4.561   0.837   6.477 -0.4752 -1.4927  1.7853
  214MOL   C16438930   4.792   0.992   6.416  0.3653  0.8415  0.3041
  214MOL   C16538931   4.928   1.061   6.417 -0.3342  0.2570  0.0812
  214MOL   C16638932   5.049   0.971   6.369  0.2718 -0.4237 -0.2991
  214MOL   H16738933   4.764   0.955   6.317  1.7523 -0.9461  0.5515
  214MOL   H16838934   4.714   1.058   6.454  0.2020  0.9933 -0.2800
  214MOL   H16938935   4.949   1.090   6.520  0.1045 -1.6330  0.5432
  214MOL   H17038936   5.058   0.896   6.448  1.1356  0.4976  0.4956
  214MOL   H17138937   5.043   0.918   6.274 -2.7943 -1.1058  0.2339
  214MOL   H17238938   5.142   1.026   6.354 -0.4006  0.9338  0.4219
  214MOL   C17338939   4.937   1.181   6.325  0.7337 -0.1625 -0.1660
  214MOL   C17438940   4.841   1.298   6.363  0.1735 -0.0119  0.1708
  214MOL   C17538941   4.872   1.431   6.285 -0.0378  0.6810  0.3998
  214MOL   H17638942   5.042   1.210   6.320  0.8877 -0.4199  1.3969
  214MOL   H17738943   4.909   1.152   6.224  1.0188 -1.2722  0.0680
  214MOL   H17838944   4.853   1.324   6.469 -0.5501 -2.0465  0.7826
  214MOL   H17938945   4.967   1.478   6.309  0.1261 -0.0717  1.2734
  214MOL   H18038946   4.873   1.412   6.177 -0.1398 -0.3079  0.5683
  214MOL   H18138947   4.798   1.505   6.315  1.4989  1.9806  1.0179
  214MOL   H18238948   4.734   1.278   6.352  0.2623 -0.2490 -0.2754
  215MOL     C138949   7.173   2.954   3.647  0.1254 -0.2325 -0.4128
  215MOL     C238950   7.059   2.859   3.616 -0.1364  0.7544 -0.4216
  215MOL     C338951   6.983   2.806   3.739 -0.1247  0.8485 -0.0323
  215MOL     H438952   7.221   2.923   3.740  2.5041  3.5970 -0.2538
  215MOL     H538953   7.169   3.062   3.638  1.1283 -0.1632 -0.0605
  215MOL     H638954   7.107   2.778   3.561 -0.2127 -0.2127  0.9122
  215MOL     H738955   6.921   2.719   3.718  1.4759 -0.3551  0.1905
  215MOL     H838956   7.058   2.784   3.815  1.2099  0.9966 -1.2789
  215MOL     H938957   6.927   2.892   3.775 -1.0691  0.4977 -0.6432
  215MOL    H1038958   7.237   2.932   3.562  1.3688 -1.6538  0.8504
  215MOL    C1138959   6.958   2.904   3.507 -0.1352  0.1063  0.0874
  215MOL    C1238960   7.017   2.939   3.362  0.1485 -0.1590  0.0050
  215MOL    C1338961   7.049   2.812   3.286  0.0565 -0.7425 -0.1033
  215MOL    H1438962   6.893   2.818   3.492  1.3809 -0.9457 -0.6102
  215MOL    H1538963   6.902   2.986   3.552  1.2200  0.5273  1.0400
  215MOL    H1638964   7.113   2.985   3.384  0.6691 -1.5716  0.7351
  215MOL    H1738965   6.973   2.734   3.277 -0.7966  0.1477 -0.6152
  215MOL    H1838966   7.082   2.835   3.185  1.4545  2.0952  0.9391
  215MOL    H1938967   7.137   2.771   3.336  1.3739  1.3827 -0.6428
  215MOL    C2038968   6.920   3.036   3.287 -0.6059  0.0106 -0.4123
  215MOL    C2138969   6.938   3.175   3.358 -0.3668 -0.8373 -0.1275
  215MOL    C2238970   7.050   3.265   3.289  0.8062  0.0336  0.2051
  215MOL    H2338971   6.938   3.046   3.179 -0.6571  1.9306 -0.2537
  215MOL    H2438972   6.816   3.008   3.304 -1.2162  0.5520 -3.0460
  215MOL    H2538973   6.974   3.161   3.460  2.9975  3.4591 -0.5889
  215MOL    H2638974   7.051   3.359   3.343  2.0867 -0.0054  0.2649
  215MOL    H2738975   7.147   3.217   3.278  2.1485  3.0346 -1.4170
  215MOL    H2838976   7.014   3.287   3.188  0.1443 -1.0999  0.1824
  215MOL    C2938977   6.812   3.261   3.352 -0.2686 -0.4680  0.5157
  215MOL    C3038978   6.690   3.222   3.432  0.1061 -0.0974  0.4437
  215MOL    C3138979   6.688   3.277   3.571  0.0071 -0.7709 -0.0512
  215MOL    H3238980   6.836   3.361   3.388 -4.9939  0.7550  0.5812
  215MOL    H3338981   6.787   3.265   3.246  0.5349 -1.2445  0.2885
  215MOL    H3438982   6.690   3.114   3.446  0.0519  0.0785  1.8871
  215MOL    H3538983   6.607   3.241   3.634 -1.5793  0.4136 -1.3632
  215MOL    H3638984   6.771   3.235   3.628 -0.5577  0.3806  1.6492
  215MOL    H3738985   6.692   3.386   3.567 -2.0358 -0.6903 -0.2741
  215MOL    C3838986   6.559   3.260   3.357  0.0125 -0.7050  0.5704
  215MOL    C3938987   6.530   3.160   3.242 -0.4533  0.0202  0.1759
  215MOL    C4038988   6.470   3.026   3.291  0.0814  0.5788 -0.0509
  215MOL    H4138989   6.476   3.255   3.428 -1.5223 -0.2712 -1.1525
  215MOL    H4238990   6.569   3.364   3.325 -0.3790 -1.1495 -1.0584
  215MOL    H4338991   6.622   3.138   3.189 -0.7773 -0.9587  0.0177
  215MOL    H4438992   6.419   2.978   3.208 -0.3934 -1.9090  1.6070
  215MOL    H4538993   6.555   2.967   3.327 -0.6623  0.7522  2.1055
  215MOL    H4638994   6.391   3.045   3.363 -1.2946  0.4523 -1.5091
  215MOL    C4738995   6.437   3.215   3.121 -0.0434 -0.1248 -0.6200
  215MOL    C4838996   6.468   3.360   3.068  0.5450 -0.0735  0.0303
  215MOL    C4938997   6.613   3.378   3.012 -0.1034 -0.6643  0.4807
  215MOL    H5038998   6.447   3.140   3.042  0.8477 -1.2186  0.5043
  215MOL    H5138999   6.334   3.200   3.153  1.1074 -2.1636  2.3280
  215MOL    H5239000   6.461   3.430   3.151  1.2334  0.4413 -0.3354
  215MOL    H5339001   6.637   3.472   2.962  0.9456 -1.9024 -1.4072
  215MOL    H5439002   6.692   3.375   3.087  0.9520 -0.1096 -0.6008
  215MOL    H5539003   6.644   3.296   2.948  2.8268  0.9661 -0.2498
  215MOL    C5639004   6.363   3.393   2.968  0.1759  0.5517 -0.3559
  215MOL    C5739005   6.313   3.538   2.962  0.3515  0.0167  0.1952
  215MOL    C5839006   6.426   3.628   2.912  0.4546  0.2133 -0.2940
  215MOL    H5939007   6.395   3.371   2.866  0.5792 -0.9730  0.0938
  215MOL    H6039008   6.281   3.323   2.980  1.2727 -0.4172  1.7734
  215MOL    H6139009   6.291   3.575   3.063 -1.2216  2.0484 -0.8591
  215MOL    H6239010   6.482   3.582   2.831 -1.1941  1.0397 -1.9351
  215MOL    H6339011   6.405   3.734   2.894 -2.7282 -0.2613  0.3822
  215MOL    H6439012   6.503   3.639   2.989  1.6879 -0.7211 -1.3826
  215MOL    C6539013   6.182   3.547   2.875 -0.7154  0.1083 -0.2673
  215MOL    C6639014   6.104   3.680   2.875  0.1966  0.1016  0.6595
  215MOL    C6739015   5.991   3.673   2.766  0.6788  0.4151 -0.5510
  215MOL    H6839016   6.200   3.516   2.772 -2.5739 -2.9085  0.2392
  215MOL    H6939017   6.118   3.467   2.912 -0.3365 -1.4603 -2.8268
  215MOL    H7039018   6.169   3.763   2.850 -1.4031  0.4071 -2.7565
  215MOL    H7139019   5.939   3.768   2.756 -3.7281 -1.7039  0.6652
  215MOL    H7239020   6.031   3.649   2.667 -0.2758  0.5014 -0.9688
  215MOL    H7339021   5.915   3.598   2.786  1.1588  0.2510  0.6782
  215MOL    C7439022   6.039   3.702   3.013  0.2252  0.7497 -0.4268
  215MOL    C7539023   5.968   3.834   3.054  0.3830 -0.2758 -0.2661
  215MOL    C7639024   5.946   3.839   3.207 -0.0837 -0.7783 -0.2832
  215MOL    H7739025   5.960   3.628   3.029 -0.0059  1.2376  0.7840
  215MOL    H7839026   6.121   3.702   3.086 -1.1065  2.3297  1.1216
  215MOL    H7939027   5.868   3.820   3.013 -0.9326  0.9479  2.4177
  215MOL    H8039028   6.031   3.868   3.269 -0.8321  0.4984  0.1572
  215MOL    H8139029   5.856   3.895   3.230  1.5350  2.1142 -0.7127
  215MOL    H8239030   5.926   3.738   3.242 -0.6000 -0.5951 -0.0545
  215MOL    C8339031   6.036   3.963   2.998 -0.2865 -0.7903 -0.3495
  215MOL    C8439032   5.966   4.094   3.020  0.2749 -0.3275 -0.2674
  215MOL    C8539033   6.063   4.203   2.986 -0.3235 -0.3794 -0.3570
  215MOL    H8639034   6.132   3.973   3.049  0.1076  1.8030 -1.5320
  215MOL    H8739035   6.067   3.958   2.893  1.9062 -0.0286  0.2469
  215MOL    H8839036   5.925   4.103   3.121  0.1442  0.7879 -0.4143
  215MOL    H8939037   6.078   4.222   2.879  3.5285  0.9774  0.3104
  215MOL    H9039038   6.014   4.294   3.020 -3.1495 -2.0127  0.1073
  215MOL    H9139039   6.160   4.209   3.036 -2.1647  0.7623  3.2163
  215MOL    C9239040   5.838   4.088   2.924  0.2787 -0.5720 -0.2331
  215MOL    C9339041   5.757   4.221   2.921  0.4750 -0.4948 -0.4543
  215MOL    C9439042   5.794   4.297   2.790  0.1877  0.8663 -0.1728
  215MOL    H9539043   5.871   4.050   2.827  1.5216 -1.0860  0.3884
  215MOL    H9639044   5.771   4.006   2.952 -0.8014  0.0706 -0.8937
  215MOL    H9739045   5.773   4.297   2.997  2.4479  1.3984 -2.6788
  215MOL    H9839046   5.773   4.241   2.699 -2.5449  3.4517 -1.1982
  215MOL    H9939047   5.730   4.383   2.772 -0.9385  0.2738  0.9454
  215MOL   H10039048   5.894   4.341   2.795 -0.3827  2.0329  1.5410
  215MOL   C10139049   5.606   4.197   2.937 -0.5445 -0.1072 -0.8978
  215MOL   C10239050   5.551   4.118   3.064  0.3794 -0.0627 -0.1020
  215MOL   C10339051   5.544   3.964   3.053  0.8518  0.1342  0.5383
  215MOL   H10439052   5.555   4.293   2.945 -1.7625 -0.8099  0.0872
  215MOL   H10539053   5.583   4.149   2.841  0.3588  1.1665 -1.7636
  215MOL   H10639054   5.448   4.153   3.069 -0.0418 -1.1745 -0.8578
  215MOL   H10739055   5.463   3.919   3.111  3.2042 -2.1681  2.1520
  215MOL   H10839056   5.532   3.943   2.947  2.3344  4.3101 -0.5559
  215MOL   H10939057   5.635   3.910   3.082 -0.1690 -2.0915 -0.2366
  215MOL   C11039058   5.614   4.164   3.190 -0.3148 -0.2813  0.4322
  215MOL   C11139059   5.551   4.283   3.262 -0.3715 -0.3803 -0.1762
  215MOL   C11239060   5.434   4.232   3.360  0.3726 -0.1351  0.0772
  215MOL   H11339061   5.617   4.078   3.256  0.8936 -0.3936  0.2323
  215MOL   H11439062   5.720   4.177   3.173 -0.2616 -1.3177 -0.0868
  215MOL   H11539063   5.509   4.360   3.198 -0.3664  0.9857  1.4295
  215MOL   H11639064   5.358   4.310   3.365 -0.7264 -1.1538 -0.6779
  215MOL   H11739065   5.379   4.146   3.322 -0.4480  0.2099  0.4839
  215MOL   H11839066   5.475   4.214   3.459 -1.6882  2.3735  1.4544
  215MOL   C11939067   5.646   4.369   3.351  0.1130  0.5351 -0.8306
  215MOL   C12039068   5.764   4.439   3.289  0.1535 -0.0217 -0.1418
  215MOL   C12139069   5.721   4.546   3.199 -0.0416  0.1624 -0.5661
  215MOL   H12239070   5.584   4.445   3.398  0.1130 -0.2457  0.4730
  215MOL   H12339071   5.685   4.302   3.427 -1.2331  0.2852 -0.3507
  215MOL   H12439072   5.804   4.358   3.228  1.1733  1.3050 -1.2688
  215MOL   H12539073   5.691   4.632   3.259 -2.0026  0.0777 -1.3737
  215MOL   H12639074   5.789   4.564   3.115 -0.7593 -0.7650 -1.3528
  215MOL   H12739075   5.632   4.520   3.142 -1.1036  0.7799  0.8012
  215MOL   C12839076   5.867   4.482   3.399  1.4010  0.4830  0.0006
  215MOL   C12939077   5.958   4.369   3.453  0.0321  0.3368 -0.3361
  215MOL   C13039078   6.058   4.341   3.343 -0.2899 -0.8883 -0.0953
  215MOL   H13139079   5.926   4.570   3.377  0.4388  1.5756  1.6755
  215MOL   H13239080   5.810   4.531   3.478  1.7967  0.4462  0.3137
  215MOL   H13339081   5.908   4.274   3.470 -1.8544  1.1542 -1.1919
  215MOL   H13439082   6.118   4.426   3.312  0.0539 -1.1229 -0.0733
  215MOL   H13539083   6.132   4.275   3.386  0.7829  0.4393  0.1284
  215MOL   H13639084   6.021   4.282   3.259  0.5529  1.4170 -2.1352
  215MOL   C13739085   6.029   4.417   3.590  0.1564 -0.2446  0.0207
  215MOL   C13839086   5.950   4.413   3.725 -0.1018  0.0033  0.2269
  215MOL   C13939087   5.824   4.503   3.729 -0.6577  0.3596  0.2795
  215MOL   H14039088   6.125   4.367   3.602  0.8023  0.7207 -0.9482
  215MOL   H14139089   6.057   4.522   3.577  1.3785 -0.9066 -3.2031
  215MOL   H14239090   6.009   4.470   3.797 -0.3108  0.9844 -0.3661
  215MOL   H14339091   5.745   4.457   3.670 -0.6771  1.2141 -0.3838
  215MOL   H14439092   5.786   4.525   3.828 -2.2809 -0.1208 -0.2203
  215MOL   H14539093   5.845   4.605   3.694  0.2186  0.0456 -0.1214
  215MOL   C14639094   5.924   4.267   3.772 -0.0002  0.3447 -0.2386
  215MOL   C14739095   6.041   4.175   3.789  0.2510 -0.4613  1.0916
  215MOL   C14839096   6.141   4.217   3.899  0.1517 -0.7378  0.9644
  215MOL   H14939097   5.862   4.264   3.861 -0.9029 -1.2191 -0.9086
  215MOL   H15039098   5.866   4.222   3.691 -1.1707 -2.0944  1.9200
  215MOL   H15139099   6.101   4.177   3.699 -2.3468  3.7913 -0.6492
  215MOL   H15239100   6.234   4.162   3.883  1.0581  0.2773  2.6766
  215MOL   H15339101   6.167   4.323   3.893 -1.2862 -0.3799  0.9630
  215MOL   H15439102   6.099   4.193   3.996 -1.2151 -1.1027  0.2931
  215MOL   C15539103   5.999   4.026   3.806  0.1341  0.2654  0.4890
  215MOL   C15639104   6.107   3.911   3.807 -0.4244  0.4150  0.0897
  215MOL   C15739105   6.062   3.777   3.880  0.3428 -0.1805  0.1623
  215MOL   H15839106   5.962   4.032   3.909  0.5396 -0.0119  0.6502
  215MOL   H15939107   5.917   4.006   3.736 -0.7305  1.7832  1.0323
  215MOL   H16039108   6.184   3.950   3.874 -1.0164  0.7667  0.5705
  215MOL   H16139109   6.014   3.792   3.976 -1.0033 -1.5595 -0.2709
  215MOL   H16239110   5.982   3.724   3.828 -0.5867  1.3985 -0.0309
  215MOL   H16339111   6.151   3.714   3.881  2.1008  2.1185 -3.2576
  215MOL   C16439112   6.178   3.880   3.673 -0.5429 -0.1422  0.3776
  215MOL   C16539113   6.319   3.956   3.663  0.5328  0.5452 -0.0103
  215MOL   C16639114   6.426   3.897   3.759  0.4409 -0.2963  0.4344
  215MOL   H16739115   6.209   3.776   3.677 -0.0770 -0.1650 -2.6981
  215MOL   H16839116   6.105   3.877   3.593 -0.8093  1.6488  0.5353
  215MOL   H16939117   6.291   4.058   3.691 -0.7464  0.4785 -1.0106
  215MOL   H17039118   6.445   3.791   3.740 -0.5228 -0.5053  0.6417
  215MOL   H17139119   6.521   3.947   3.739 -0.0313 -0.3692 -2.0899
  215MOL   H17239120   6.403   3.899   3.866  0.7792 -1.4871  0.5382
  215MOL   C17339121   6.375   3.952   3.517  0.9463 -0.0608 -0.1787
  215MOL   C17439122   6.284   4.016   3.412 -1.0426 -0.0297  0.3358
  215MOL   C17539123   6.355   4.019   3.273  0.5916  0.1882 -0.5006
  215MOL   H17639124   6.470   4.005   3.523 -0.5884  2.5485  2.7381
  215MOL   H17739125   6.405   3.854   3.481  0.3395 -0.5992  0.7642
  215MOL   H17839126   6.271   4.120   3.443 -0.8165 -0.1691  0.8997
  215MOL   H17939127   6.459   4.053   3.280  0.6194 -0.1458  0.7135
  215MOL   H18039128   6.357   3.917   3.234 -0.5096 -1.0232  2.4921
  215MOL   H18139129   6.291   4.077   3.207 -0.2632 -0.4165 -0.2039
  215MOL   H18239130   6.188   3.965   3.406  0.3406 -3.1747  3.6114
  216MOL     C139131   1.559   7.005   1.894 -0.4174  0.2892 -0.1348
  216MOL     C239132   1.469   7.105   1.968 -0.1544  0.5837 -1.2815
  216MOL     C339133   1.345   7.021   2.012 -0.4499 -0.0704 -0.3400
  216MOL     H439134   1.497   6.946   1.826  0.1587 -0.4450 -0.0338
  216MOL     H539135   1.601   6.937   1.968  2.1643  0.1680 -1.6451
  216MOL     H639136   1.433   7.171   1.889  1.2949  0.8613 -1.7192
  216MOL     H739137   1.300   6.952   1.940 -1.7656 -0.8307  1.1965
  216MOL     H839138   1.360   6.960   2.101 -0.1041 -1.1305 -1.1159
  216MOL     H939139   1.269   7.095   2.037  1.4164  1.7210  0.2168
  216MOL    H1039140   1.630   7.071   1.844 -1.0145  0.3913 -0.8598
  216MOL    C1139141   1.535   7.180   2.088  0.2530 -0.1136 -0.5053
  216MOL    C1239142   1.613   7.311   2.051 -0.7597 -0.6433 -0.4425
  216MOL    C1339143   1.515   7.423   1.998  0.6206 -0.6472 -0.7358
  216MOL    H1439144   1.451   7.202   2.154 -0.1939 -2.3092 -0.3016
  216MOL    H1539145   1.600   7.106   2.134 -1.2287 -1.2137 -0.1246
  216MOL    H1639146   1.687   7.280   1.977  0.7111  1.6360  0.0221
  216MOL    H1739147   1.574   7.503   1.954  0.8424  1.0866  2.5783
  216MOL    H1839148   1.428   7.399   1.937  0.8047 -0.7203 -0.9705
  216MOL    H1939149   1.481   7.468   2.091  2.1561 -0.5179 -0.2214
  216MOL    C2039150   1.687   7.364   2.175  0.6653 -0.2214  0.1054
  216MOL    C2139151   1.798   7.466   2.147  0.6042 -0.7787 -0.7308
  216MOL    C2239152   1.835   7.538   2.278  0.2204 -0.1378 -0.4870
  216MOL    H2339153   1.618   7.399   2.251 -0.0206 -3.1826  0.9160
  216MOL    H2439154   1.731   7.272   2.215 -2.9390 -2.7540 -1.5302
  216MOL    H2539155   1.751   7.543   2.087  1.1802  0.2474  0.1084
  216MOL    H2639156   1.908   7.618   2.268 -1.5377  1.5022 -0.3193
  216MOL    H2739157   1.752   7.594   2.319  0.6216  1.0573 -1.2927
  216MOL    H2839158   1.874   7.469   2.353  1.6687  2.2066  0.9732
  216MOL    C2939159   1.924   7.409   2.084  0.3315 -0.4692  0.7329
  216MOL    C3039160   2.004   7.486   1.977  0.5827 -0.1602  0.0455
  216MOL    C3139161   2.030   7.635   2.022 -0.1909 -0.8115 -0.6182
  216MOL    H3239162   1.998   7.388   2.162  2.3195 -0.4329 -1.0944
  216MOL    H3339163   1.904   7.312   2.041 -1.5053 -0.8376  2.3663
  216MOL    H3439164   1.942   7.494   1.887  1.2466  1.5416 -0.2817
  216MOL    H3539165   1.936   7.689   2.035  0.5903  0.8176 -1.6046
  216MOL    H3639166   2.092   7.641   2.112  0.5450 -4.2451 -0.8315
  216MOL    H3739167   2.074   7.693   1.941  2.1281  0.0452  1.2052
  216MOL    C3839168   2.130   7.418   1.922 -0.0373 -0.1855 -0.0253
  216MOL    C3939169   2.095   7.287   1.832  0.2518  0.6276 -0.1897
  216MOL    C4039170   2.035   7.339   1.692  0.5399 -0.6140 -0.5346
  216MOL    H4139171   2.201   7.485   1.874 -2.1819  0.7144 -1.9623
  216MOL    H4239172   2.186   7.383   2.009  0.8697  1.1534 -0.0554
  216MOL    H4339173   2.031   7.216   1.883 -1.1673  1.3375 -0.9492
  216MOL    H4439174   2.027   7.264   1.613  2.1993  1.0454 -2.3260
  216MOL    H4539175   1.935   7.381   1.705  0.7619 -0.3810  0.5072
  216MOL    H4639176   2.092   7.423   1.653 -2.2383  2.3758  1.5347
  216MOL    C4739177   2.219   7.203   1.805  0.1802 -0.1925 -0.1937
  216MOL    C4839178   2.333   7.271   1.728 -0.1576 -0.0982 -0.0068
  216MOL    C4939179   2.462   7.203   1.784 -0.2167 -0.3518  0.0874
  216MOL    H5039180   2.254   7.165   1.901 -0.3812 -3.0455 -1.0927
  216MOL    H5139181   2.190   7.111   1.754  0.0481 -1.6583  2.4685
  216MOL    H5239182   2.345   7.379   1.741  3.4566 -0.2523 -1.4811
  216MOL    H5339183   2.473   7.106   1.735  0.9908 -1.1304  1.8327
  216MOL    H5439184   2.544   7.269   1.753 -0.9111 -0.4493 -2.0615
  216MOL    H5539185   2.467   7.186   1.892 -3.3237 -4.3069 -0.2792
  216MOL    C5639186   2.318   7.259   1.573 -0.2283 -0.2856  0.6555
  216MOL    C5739187   2.429   7.322   1.489 -0.1782 -0.0943 -0.2546
  216MOL    C5839188   2.419   7.258   1.349 -1.1347 -0.4528  0.1240
  216MOL    H5939189   2.336   7.152   1.559 -2.5405 -0.6333  0.2846
  216MOL    H6039190   2.222   7.285   1.530  0.6337  2.8801  0.4908
  216MOL    H6139191   2.522   7.290   1.537  0.1425 -1.4473 -1.7022
  216MOL    H6239192   2.327   7.274   1.293 -2.2218  0.2152  2.0521
  216MOL    H6339193   2.510   7.285   1.296 -0.1988 -0.5474  1.6559
  216MOL    H6439194   2.442   7.152   1.354  3.0885  0.3293 -0.7201
  216MOL    C6539195   2.419   7.475   1.485 -0.2573  0.2954 -0.1493
  216MOL    C6639196   2.557   7.543   1.518  0.2425 -0.2364  0.6671
  216MOL    C6739197   2.558   7.681   1.437 -0.8257 -0.4986  0.2887
  216MOL    H6839198   2.395   7.505   1.383 -0.9144  2.6699  0.6551
  216MOL    H6939199   2.343   7.521   1.548 -0.7826  0.4823 -0.9081
  216MOL    H7039200   2.623   7.471   1.471 -0.9088 -0.6376 -0.3458
  216MOL    H7139201   2.650   0.042   1.447  1.0819 -3.3927  0.5929
  216MOL    H7239202   2.553   7.657   1.331 -0.0077 -0.0149  0.1362
  216MOL    H7339203   2.473   0.041   1.473 -0.2459  0.4422  0.1667
  216MOL    C7439204   2.570   7.565   1.669 -0.2453  0.3721  0.4711
  216MOL    C7539205   2.717   7.576   1.721  0.8969 -0.0208  0.0043
  216MOL    C7639206   2.761   0.024   1.712 -0.3322 -0.1367  0.3369
  216MOL    H7739207   2.515   7.649   1.712 -0.6155  0.3647  0.0181
  216MOL    H7839208   2.535   7.473   1.716 -0.7954 -0.6230 -1.8140
  216MOL    H7939209   2.784   7.518   1.658  0.1718 -0.7240 -0.1245
  216MOL    H8039210   2.864   0.028   1.746  0.0257 -1.4025 -0.5504
  216MOL    H8139211   2.771   0.044   1.605  0.7807  2.8398  0.9681
  216MOL    H8239212   2.700   0.092   1.772 -1.0171  0.4375 -0.9838
  216MOL    C8339213   2.734   7.527   1.870  0.7688 -0.6734  0.7246
  216MOL    C8439214   2.878   7.525   1.927 -0.9692 -0.3813 -0.0986
  216MOL    C8539215   2.885   7.632   2.041  0.2092 -0.3608 -0.1726
  216MOL    H8639216   2.676   7.577   1.947  1.8922 -1.2824  1.9943
  216MOL    H8739217   2.693   7.426   1.872 -1.2446  0.1554  2.4360
  216MOL    H8839218   2.947   7.566   1.853 -1.1888 -1.1915 -0.7542
  216MOL    H8939219   2.804   7.621   2.113  0.8553 -0.8816  0.4693
  216MOL    H9039220   2.980   7.620   2.093  0.1625 -0.3619 -0.0876
  216MOL    H9139221   2.878   0.038   2.004 -1.2766 -0.1134  0.7611
  216MOL    C9239222   2.931   7.381   1.964 -0.0020  0.6219  0.4156
  216MOL    C9339223   2.951   7.283   1.845  1.1511  0.4842 -0.0444
  216MOL    C9439224   3.053   7.327   1.740 -0.3386 -0.1353 -0.6599
  216MOL    H9539225   3.032   7.384   2.003  0.6390 -1.5581 -0.9882
  216MOL    H9639226   2.869   7.341   2.044  1.9243  2.8571  3.1283
  216MOL    H9739227   2.857   7.273   1.791  1.7540  1.7082 -1.3570
  216MOL    H9839228   3.028   7.428   1.708  0.2574  1.0291  2.3871
  216MOL    H9939229   3.152   7.334   1.783 -0.5159  2.6810 -0.5862
  216MOL   H10039230   3.056   7.264   1.651  2.2828 -0.0365 -0.6590
  216MOL   C10139231   2.995   7.139   1.872 -0.5185  0.6421 -0.3160
  216MOL   C10239232   2.902   7.063   1.974 -0.1223  0.1773  0.0919
  216MOL   C10339233   2.765   7.028   1.912 -0.5750  0.0249  0.2186
  216MOL   H10439234   2.995   7.082   1.779  0.2163  0.0084  0.0622
  216MOL   H10539235   3.098   7.142   1.908  0.2903 -1.5627 -2.3191
  216MOL   H10639236   2.892   7.130   2.060  0.8032  0.1745  0.2085
  216MOL   H10739237   2.773   6.983   1.813  0.1377 -0.0367  0.3042
  216MOL   H10839238   2.711   6.960   1.979  0.0745 -0.0168  0.7069
  216MOL   H10939239   2.712   7.123   1.905  0.4301  0.5567 -0.2022
  216MOL   C11039240   2.968   6.939   2.032  0.1637 -0.4093  0.1793
  216MOL   C11139241   3.075   6.941   2.149 -0.1830 -0.9242  0.3751
  216MOL   C11239242   3.199   7.022   2.125 -0.5373  0.6978  0.6365
  216MOL   H11339243   2.900   6.857   2.056 -2.0517  0.3286 -3.1622
  216MOL   H11439244   3.022   6.894   1.949  1.1216  2.5858 -0.8792
  216MOL   H11539245   3.110   6.839   2.163  4.5604  0.5360 -0.1116
  216MOL   H11639246   3.174   7.128   2.133  0.5844  1.0592 -0.4864
  216MOL   H11739247   3.268   6.995   2.205  0.6344  0.0206 -0.5802
  216MOL   H11839248   3.243   7.010   2.026 -0.7043 -1.1894  0.7774
  216MOL   C11939249   3.021   6.988   2.284 -0.3110  0.1253 -0.7953
  216MOL   C12039250   2.919   6.905   2.358 -0.3404  1.0459  0.1284
  216MOL   C12139251   2.981   6.769   2.396 -0.6225 -0.0909  0.1718
  216MOL   H12239252   3.104   6.984   2.355 -1.2621 -3.1633  0.2043
  216MOL   H12339253   2.983   7.090   2.271  1.1650  0.6514 -1.1661
  216MOL   H12439254   2.841   6.884   2.285 -1.1976 -0.0924  1.3258
  216MOL   H12539255   3.072   6.768   2.455  0.4570 -1.5729 -1.4756
  216MOL   H12639256   2.904   6.713   2.450 -2.8947  3.5218  0.8862
  216MOL   H12739257   3.006   6.714   2.305 -2.3426  1.0007 -1.0044
  216MOL   C12839258   2.864   6.976   2.488  0.4400 -0.1503  0.0034
  216MOL   C12939259   2.779   7.106   2.459  0.0773 -0.0453  0.6036
  216MOL   C13039260   2.681   7.073   2.351 -0.3884  0.1616  0.8891
  216MOL   H13139261   2.797   6.919   2.551  0.6957 -1.2439 -0.6916
  216MOL   H13239262   2.943   6.995   2.561 -0.4944 -0.2788  1.0550
  216MOL   H13339263   2.854   7.174   2.419  1.0749 -0.3810  1.8652
  216MOL   H13439264   2.721   7.035   2.257 -1.4607  0.2947  0.3679
  216MOL   H13539265   2.624   6.986   2.382  1.2952 -0.8612  1.1994
  216MOL   H13639266   2.607   7.150   2.330 -0.3957  0.2934  1.3938
  216MOL   C13739267   2.715   7.166   2.593  0.0920  0.0849  0.0875
  216MOL   C13839268   2.636   7.295   2.599 -0.3296 -0.2226 -0.6276
  216MOL   C13939269   2.632   7.343   2.749 -0.2550  0.0415  0.3473
  216MOL   H14039270   2.651   7.082   2.617 -2.6926  1.7596 -1.2450
  216MOL   H14139271   2.798   7.168   2.664  2.3690 -3.4089 -2.2985
  216MOL   H14239272   2.535   7.279   2.561 -1.3838 -0.6982  2.3245
  216MOL   H14339273   2.574   7.277   2.814 -1.6186  0.5319 -0.3572
  216MOL   H14439274   2.730   7.355   2.796 -0.5013 -0.9183  1.1328
  216MOL   H14539275   2.572   7.433   2.756 -0.3855  0.0021 -0.2148
  216MOL   C14639276   2.690   7.407   2.500  0.9690  0.0328 -0.1512
  216MOL   C14739277   2.614   7.538   2.505  0.4328 -0.1621 -0.0718
  216MOL   C14839278   2.683   7.634   2.401 -0.2560  0.0361 -0.2759
  216MOL   H14939279   2.795   7.421   2.525  0.9748 -1.1015  0.5221
  216MOL   H15039280   2.697   7.368   2.399  1.6567 -0.7332  0.1868
  216MOL   H15139281   2.624   7.580   2.605 -1.7128  1.4671 -0.4943
  216MOL   H15239282   2.787   7.657   2.428 -0.0676 -0.4501 -0.5737
  216MOL   H15339283   2.683   7.596   2.299 -0.4848 -0.2168 -0.1822
  216MOL   H15439284   2.641   0.037   2.399 -2.2682 -0.7378  1.1434
  216MOL   C15539285   2.464   7.525   2.479  0.2896 -0.2842 -0.7631
  216MOL   C15639286   2.383   7.650   2.444 -0.4550 -0.7079  0.4515
  216MOL   C15739287   2.237   7.609   2.409  1.1656 -0.3341 -0.2622
  216MOL   H15839288   2.466   7.462   2.390  0.1025 -1.8102  0.2915
  216MOL   H15939289   2.417   7.456   2.550 -2.0105 -1.8733 -3.7239
  216MOL   H16039290   2.428   7.692   2.353 -1.6436 -0.8677 -0.2200
  216MOL   H16139291   2.180   7.689   2.362 -2.2304 -1.2225  2.1301
  216MOL   H16239292   2.247   7.536   2.329  2.0662 -0.5175  0.0199
  216MOL   H16339293   2.179   7.577   2.496  1.3769 -2.1006 -0.7471
  216MOL   C16439294   2.375   0.068   2.553  0.8703 -0.4347  0.4717
  216MOL   C16539295   2.339   0.208   2.495 -0.1005  0.8483  0.4080
  216MOL   C16639296   2.190   0.238   2.517  0.1166 -0.3248  0.0692
  216MOL   H16739297   2.305   0.028   2.627 -1.5095  0.7869 -1.0397
  216MOL   H16839298   2.478   0.090   2.580  0.7482  1.8616 -0.7643
  216MOL   H16939299   2.350   0.206   2.386  0.4489  0.5905  0.4674
  216MOL   H17039300   2.153   0.339   2.495  0.9550 -0.3485 -1.5464
  216MOL   H17139301   2.130   0.174   2.452  0.6735 -0.5634 -0.2136
  216MOL   H17239302   2.166   0.219   2.621  0.8089 -0.0365  0.2861
  216MOL   C17339303   2.420   0.327   2.550  0.4788  0.6474 -0.1227
  216MOL   C17439304   2.559   0.346   2.476 -0.3015  0.1402  0.6537
  216MOL   C17539305   2.564   0.343   2.325 -0.3316  1.3360 -0.6853
  216MOL   H17639306   2.365   0.421   2.534  0.4281  0.3253 -2.0264
  216MOL   H17739307   2.432   0.328   2.658 -0.8044 -1.7250  0.0735
  216MOL   H17839308   2.623   0.266   2.512 -1.9405 -0.5892  2.0056
  216MOL   H17939309   2.563   0.245   2.277  0.9040  0.7045  0.5557
  216MOL   H18039310   2.491   0.411   2.280  0.1664  1.9174 -0.6198
  216MOL   H18139311   2.659   0.376   2.285 -0.1765  1.5483 -0.1529
  216MOL   H18239312   2.607   0.441   2.501 -0.2463 -0.3673  2.4832
  217MOL     C139313   0.678   2.439   1.187  0.1074 -0.4450 -0.0769
  217MOL     C239314   0.763   2.316   1.218 -0.0088 -0.6487  0.2630
  217MOL     C339315   0.760   2.228   1.096  0.4361 -0.0497  0.2177
  217MOL     H439316   0.573   2.414   1.171 -0.1829 -0.3400  1.6059
  217MOL     H539317   0.718   2.472   1.091 -0.4989 -0.2671 -0.2726
  217MOL     H639318   0.721   2.271   1.307  1.5046  0.3079  1.4854
  217MOL     H739319   0.665   2.175   1.089  0.7454 -1.1100  3.4198
  217MOL     H839320   0.797   2.270   1.002  0.0013 -1.9319 -0.8354
  217MOL     H939321   0.834   2.149   1.107 -0.0814 -0.4702  0.6825
  217MOL    H1039322   0.691   2.519   1.260  0.2581  0.1319 -0.7258
  217MOL    C1139323   0.916   2.362   1.246  0.6791 -0.3165  0.0205
  217MOL    C1239324   0.942   2.433   1.379  0.2139 -0.0218 -0.1730
  217MOL    C1339325   0.880   2.350   1.494 -0.3446  0.6566 -0.2576
  217MOL    H1439326   0.985   2.277   1.243  2.4752  0.9527  3.0200
  217MOL    H1539327   0.946   2.432   1.168  0.1564 -1.3387 -1.1157
  217MOL    H1639328   0.885   2.526   1.379  0.5668  0.2041 -1.5149
  217MOL    H1739329   0.775   2.373   1.513 -0.3130  0.4380  0.1895
  217MOL    H1839330   0.872   2.243   1.472 -0.6917  0.5533  0.3675
  217MOL    H1939331   0.940   2.351   1.584 -2.0468 -0.1446  0.9195
  217MOL    C2039332   1.094   2.468   1.406  0.3074 -0.4654 -0.1182
  217MOL    C2139333   1.137   2.578   1.502  0.1499 -0.0829 -0.2149
  217MOL    C2239334   1.291   2.575   1.526  0.2576  0.2758 -0.0810
  217MOL    H2339335   1.143   2.378   1.444  1.3788 -0.8310 -2.2514
  217MOL    H2439336   1.132   2.481   1.304  0.4978  1.2433  0.1518
  217MOL    H2539337   1.105   2.556   1.604  0.9680  0.5916  0.2003
  217MOL    H2639338   1.347   2.593   1.435  0.1096  2.9068  0.2969
  217MOL    H2739339   1.323   2.657   1.590 -1.1370  0.3596  0.5313
  217MOL    H2839340   1.316   2.478   1.569  1.6877  1.6251  2.2229
  217MOL    C2939341   1.093   2.714   1.444  0.0688  0.1883  0.2933
  217MOL    C3039342   1.098   2.831   1.541 -0.3048  0.2760  0.7426
  217MOL    C3139343   1.100   2.969   1.475  0.1549  0.2656  0.8513
  217MOL    H3239344   1.159   2.730   1.359 -0.6449 -0.6283 -0.4203
  217MOL    H3339345   0.991   2.702   1.410 -0.1082 -0.5729  1.0783
  217MOL    H3439346   1.192   2.823   1.596  0.4929  1.2204 -0.4419
  217MOL    H3539347   0.999   2.992   1.441  0.2408  0.9337  1.0495
  217MOL    H3639348   1.130   3.048   1.544  0.6918  0.7986  0.0167
  217MOL    H3739349   1.171   2.970   1.393  0.7530 -0.3602  1.3555
  217MOL    C3839350   0.984   2.821   1.646  0.1646  0.1669  0.4918
  217MOL    C3939351   0.987   2.895   1.773  0.0651 -0.3262  0.3525
  217MOL    C4039352   0.853   2.878   1.848 -0.2568 -0.0640  0.1832
  217MOL    H4139353   0.896   2.847   1.588  0.9536  2.0877  0.0964
  217MOL    H4239354   0.966   2.716   1.666 -0.8281  0.1861 -0.3079
  217MOL    H4339355   0.993   3.000   1.743  1.0478 -0.9724 -1.7602
  217MOL    H4439356   0.839   2.776   1.885  0.6376  0.5128  2.1836
  217MOL    H4539357   0.849   2.942   1.936 -0.4474 -0.1896  0.2660
  217MOL    H4639358   0.763   2.915   1.798 -1.5075 -1.0057  1.6641
  217MOL    C4739359   1.121   2.897   1.852  0.4986 -0.5125 -0.5817
  217MOL    C4839360   1.183   2.760   1.896 -0.6277  0.2087 -0.4175
  217MOL    C4939361   1.334   2.778   1.932 -0.1875  0.4912 -0.1886
  217MOL    H5039362   1.194   2.958   1.798 -1.2134  0.2279 -2.1164
  217MOL    H5139363   1.092   2.949   1.943  0.9810  0.5703 -1.0365
  217MOL    H5239364   1.168   2.692   1.812  1.6720  0.0906 -0.7581
  217MOL    H5339365   1.400   2.692   1.946  1.3366  1.9115  1.5085
  217MOL    H5439366   1.390   2.833   1.856 -0.5031 -1.0049 -1.5289
  217MOL    H5539367   1.333   2.829   2.028 -3.4563 -0.8130  0.5319
  217MOL    C5639368   1.113   2.690   2.012 -0.1414  0.6606 -0.2975
  217MOL    C5739369   1.155   2.552   2.050 -0.2906 -0.8614  0.8846
  217MOL    C5839370   1.098   2.517   2.184  1.0441 -0.5615  0.3768
  217MOL    H5939371   1.125   2.761   2.094  0.4190 -0.4902  0.6275
  217MOL    H6039372   1.008   2.693   1.982 -0.6113  1.4184  1.3303
  217MOL    H6139373   1.264   2.549   2.057 -0.2692 -1.8655  0.2623
  217MOL    H6239374   1.119   2.593   2.259  0.8065  0.6015 -0.7290
  217MOL    H6339375   0.990   2.498   2.182  0.3782  2.2052  3.8322
  217MOL    H6439376   1.136   2.424   2.227  0.0298 -1.2852 -0.2609
  217MOL    C6539377   1.095   2.455   1.943  0.0668 -0.4170  0.0531
  217MOL    C6639378   1.146   2.307   1.953 -0.1235 -0.1004  0.3941
  217MOL    C6739379   1.055   2.224   1.866  0.1977  0.2665  0.4394
  217MOL    H6839380   0.986   2.460   1.943  0.1111  0.7105 -0.6145
  217MOL    H6939381   1.135   2.492   1.849 -1.2039  0.3177 -0.2205
  217MOL    H7039382   1.133   2.270   2.054 -0.2778 -1.1468 -0.0045
  217MOL    H7139383   1.070   2.252   1.762  1.0049 -4.2620 -0.7444
  217MOL    H7239384   1.050   2.117   1.884 -1.0780  0.1722 -0.3859
  217MOL    H7339385   0.957   2.269   1.888 -0.5786 -0.3882 -1.5376
  217MOL    C7439386   1.293   2.289   1.897 -0.2366  0.5356 -0.2472
  217MOL    C7539387   1.370   2.183   1.974 -0.6834 -0.3223  0.2180
  217MOL    C7639388   1.502   2.144   1.903  0.4790  0.1830  0.1523
  217MOL    H7739389   1.272   2.262   1.794 -0.5092 -1.6943  0.3558
  217MOL    H7839390   1.345   2.385   1.897 -0.7086  0.8057  0.9981
  217MOL    H7939391   1.314   2.089   1.972 -1.1919 -0.0115 -2.5478
  217MOL    H8039392   1.581   2.219   1.904  0.8592 -0.2306  1.0308
  217MOL    H8139393   1.552   2.057   1.946 -0.0628 -0.4493 -0.4798
  217MOL    H8239394   1.487   2.121   1.797  4.6358  0.8645 -0.6698
  217MOL    C8339395   1.397   2.236   2.117 -0.5697  0.0778 -0.7618
  217MOL    C8439396   1.436   2.127   2.221  0.5242  0.0019  0.2476
  217MOL    C8539397   1.488   2.210   2.343  0.7251  0.4830 -1.1337
  217MOL    H8639398   1.478   2.310   2.120 -0.4611 -0.0378 -0.8381
  217MOL    H8739399   1.320   2.297   2.164  0.5914  0.6964  0.3928
  217MOL    H8839400   1.518   2.066   2.182 -1.2853 -1.4075 -1.4335
  217MOL    H8939401   1.561   2.286   2.316  0.1463  0.9506 -1.3822
  217MOL    H9039402   1.415   2.269   2.398  0.2717  0.7059 -1.9658
  217MOL    H9139403   1.535   2.148   2.419 -1.3476 -1.7962 -1.6564
  217MOL    C9239404   1.319   2.034   2.244 -0.0243 -0.1498  0.0886
  217MOL    C9339405   1.306   1.948   2.374 -0.2242 -0.0069  0.5185
  217MOL    C9439406   1.159   1.909   2.399  0.2711  0.4063  0.0780
  217MOL    H9539407   1.231   2.098   2.243  0.5873  0.6880 -0.2937
  217MOL    H9639408   1.308   1.963   2.161  1.4277 -1.6349  1.1413
  217MOL    H9739409   1.350   1.992   2.463 -0.7448  0.5775  0.4912
  217MOL    H9839410   1.161   1.838   2.481  0.6800  0.0557 -0.2314
  217MOL    H9939411   1.077   1.974   2.427 -1.9097 -0.3587 -4.0092
  217MOL   H10039412   1.108   1.861   2.315 -0.0142 -0.5589  0.7866
  217MOL   C10139413   1.393   1.828   2.357 -0.4384  0.2912  0.2260
  217MOL   C10239414   1.465   1.757   2.485  0.1137  0.5958  1.0696
  217MOL   C10339415   1.556   1.642   2.438 -0.4476 -0.1700  0.1043
  217MOL   H10439416   1.337   1.748   2.310 -1.8192  0.2329  1.9114
  217MOL   H10539417   1.475   1.859   2.292  1.7438 -1.5041  2.0650
  217MOL   H10639418   1.384   1.713   2.543 -0.9917  2.1868  0.7548
  217MOL   H10739419   1.573   1.565   2.513  0.9004  0.9778  0.9958
  217MOL   H10839420   1.529   1.599   2.342 -1.6385 -2.0929  1.2613
  217MOL   H10939421   1.653   1.681   2.408 -0.9908  1.6336  0.5867
  217MOL   C11039422   1.555   1.851   2.574 -0.0395  0.0576 -0.1885
  217MOL   C11139423   1.626   1.785   2.690 -0.0412  0.1219  0.3069
  217MOL   C11239424   1.721   1.889   2.752 -0.7243 -0.0637 -0.7270
  217MOL   H11339425   1.625   1.910   2.515  0.4281 -1.5361 -1.2574
  217MOL   H11439426   1.481   1.918   2.617 -0.1003 -1.4619  2.1935
  217MOL   H11539427   1.681   1.699   2.652 -2.9875 -0.9372 -1.8237
  217MOL   H11639428   1.818   1.885   2.703 -0.1095 -0.1179  0.4698
  217MOL   H11739429   1.687   1.992   2.742 -1.5318 -0.2670 -0.1402
  217MOL   H11839430   1.740   1.862   2.856  0.4431 -2.0208 -1.4223
  217MOL   C11939431   1.529   1.725   2.794  0.6629 -0.3670  0.5249
  217MOL   C12039432   1.555   1.581   2.836  0.5392  0.6727  0.3661
  217MOL   C12139433   1.704   1.571   2.877  0.4864 -0.1796 -0.1425
  217MOL   H12239434   1.506   1.796   2.874  1.9743  0.4952  0.1406
  217MOL   H12339435   1.429   1.731   2.750  1.8292 -1.4306 -2.3394
  217MOL   H12439436   1.561   1.514   2.750  0.6950  0.7558  0.3120
  217MOL   H12539437   1.788   1.584   2.809  2.2556 -0.8809  1.8580
  217MOL   H12639438   1.721   1.645   2.955 -1.0412 -0.0905  0.1225
  217MOL   H12739439   1.713   1.473   2.924 -0.2548 -1.0280 -1.7183
  217MOL   C12839440   1.456   1.523   2.943 -0.3829 -0.7799 -0.3505
  217MOL   C12939441   1.325   1.479   2.875 -0.3718 -0.1180  0.3534
  217MOL   C13039442   1.329   1.359   2.784 -0.1452  0.8994 -0.4485
  217MOL   H13139443   1.504   1.445   3.002 -1.9118  0.2249  2.3007
  217MOL   H13239444   1.436   1.604   3.012 -0.3849  1.5713 -3.0389
  217MOL   H13339445   1.295   1.560   2.809  1.7430 -1.9152 -2.9407
  217MOL   H13439446   1.231   1.318   2.761 -0.0277 -0.7978  1.8995
  217MOL   H13539447   1.369   1.412   2.697 -0.6774  1.9934 -0.0349
  217MOL   H13639448   1.391   1.279   2.824  1.0966  1.9695 -0.1761
  217MOL   C13739449   1.217   1.450   2.992 -0.2286  0.1627  0.5644
  217MOL   C13839450   1.102   1.560   3.007  0.4672  0.1186  0.6656
  217MOL   C13939451   1.050   1.598   2.867 -0.4364  0.6431  0.2031
  217MOL   H14039452   1.176   1.352   2.965  0.1333  0.7797 -2.4102
  217MOL   H14139453   1.271   1.433   3.085  3.9722 -1.8431 -2.0956
  217MOL   H14239454   1.145   1.648   3.055 -0.0184  0.1769  1.0028
  217MOL   H14339455   0.954   1.648   2.872 -1.1410 -0.7080  0.6588
  217MOL   H14439456   1.124   1.661   2.819 -0.2085 -0.2841 -0.6750
  217MOL   H14539457   1.029   1.512   2.804  0.9414  0.5450 -0.1346
  217MOL   C14639458   0.978   1.510   3.088  0.1198 -0.5406 -0.3348
  217MOL   C14739459   0.998   1.432   3.223  0.0782 -0.6668  0.4694
  217MOL   C14839460   1.068   1.528   3.329  0.0102 -0.0146  0.2101
  217MOL   H14939461   0.922   1.598   3.119  0.6898  1.0169 -3.5049
  217MOL   H15039462   0.910   1.453   3.024  0.5842  0.9026 -2.1373
  217MOL   H15139463   1.066   1.347   3.216  0.5071 -0.1751 -1.4751
  217MOL   H15239464   1.012   1.619   3.348  0.4913  0.0146  1.4768
  217MOL   H15339465   1.076   1.475   3.424 -0.3360 -0.7525 -0.1687
  217MOL   H15439466   1.170   1.545   3.293 -0.9514 -1.1468 -3.2935
  217MOL   C15539467   0.868   1.381   3.274  0.4035 -0.2689  0.7976
  217MOL   C15639468   0.864   1.314   3.410  0.3957  0.5038 -0.7194
  217MOL   C15739469   0.723   1.273   3.450 -0.3642 -0.3799  0.2910
  217MOL   H15839470   0.802   1.467   3.291 -0.5747 -0.7252 -0.5504
  217MOL   H15939471   0.831   1.311   3.199 -1.5177  0.2300  1.2434
  217MOL   H16039472   0.888   1.390   3.484  0.8768  1.0077 -1.3879
  217MOL   H16139473   0.680   1.188   3.398 -0.2489  1.2262 -2.5443
  217MOL   H16239474   0.718   1.261   3.558  1.0293  0.8265  0.5153
  217MOL   H16339475   0.652   1.353   3.430 -0.2946 -0.0392  1.3847
  217MOL   C16439476   0.962   1.199   3.423  1.1030  0.0182 -0.3339
  217MOL   C16539477   0.982   1.126   3.563  0.1265  0.2778 -0.1330
  217MOL   C16639478   1.068   0.998   3.550  0.8820  0.3582 -0.4924
  217MOL   H16739479   0.933   1.125   3.349 -1.5533  2.7625 -2.1533
  217MOL   H16839480   1.065   1.230   3.402  1.0908  0.2251 -0.0933
  217MOL   H16939481   0.884   1.100   3.602  0.5897 -1.8379 -0.3301
  217MOL   H17039482   1.037   0.938   3.464  1.3677 -0.0683 -0.3726
  217MOL   H17139483   1.174   1.024   3.541  1.0687 -0.6173 -1.1842
  217MOL   H17239484   1.055   0.934   3.637  0.7937  1.3849  0.2515
  217MOL   C17339485   1.033   1.224   3.667  0.0179  0.3443  0.1362
  217MOL   C17439486   1.066   1.152   3.801 -0.0667  0.1927  0.4987
  217MOL   C17539487   1.078   1.248   3.922 -0.3320  1.1508  0.0789
  217MOL   H17639488   1.133   1.250   3.630 -0.1510  0.1933 -0.4370
  217MOL   H17739489   0.967   1.309   3.682  0.1766  0.2438  1.4111
  217MOL   H17839490   1.143   1.075   3.791 -0.6701 -0.5094  1.1580
  217MOL   H17939491   0.996   1.318   3.935 -0.2469  1.0210  1.3433
  217MOL   H18039492   1.101   1.192   4.013  1.6585 -0.5826 -1.4452
  217MOL   H18139493   1.167   1.307   3.902  0.1934 -0.0350 -1.2247
  217MOL   H18239494   0.973   1.099   3.823  1.2726 -2.6534 -0.4041
  218MOL     C139495   5.383   5.983   2.061 -0.2011 -0.5428 -0.3279
  218MOL     C239496   5.397   5.824   2.064 -0.3123 -0.2753  0.5387
  218MOL     C339497   5.465   5.779   1.939  0.1921 -0.0489  0.2060
  218MOL     H439498   5.479   6.023   2.096  0.0900 -1.8452  0.4097
  218MOL     H539499   5.304   6.014   2.129  0.4695 -0.4783  0.4377
  218MOL     H639500   5.302   5.771   2.056 -0.0327 -0.5226 -1.3138
  218MOL     H739501   5.571   5.805   1.938 -0.1295  1.2442 -0.1722
  218MOL     H839502   5.470   5.670   1.937 -2.4731 -0.1871 -0.2375
  218MOL     H939503   5.410   5.818   1.853 -2.6613 -3.5901  0.2754
  218MOL    H1039504   5.370   6.028   1.963 -0.8216  0.5443  0.2481
  218MOL    C1139505   5.468   5.775   2.197  0.1591  0.0961  0.3497
  218MOL    C1239506   5.469   5.624   2.219  0.0994  0.1939 -0.5613
  218MOL    C1339507   5.590   5.597   2.303 -0.0021 -0.0104  0.7795
  218MOL    H1439508   5.571   5.807   2.187  0.1548 -0.7964 -3.0204
  218MOL    H1539509   5.429   5.827   2.285  0.2586 -2.1985  1.7965
  218MOL    H1639510   5.484   5.575   2.122  1.5830 -0.5521  0.0357
  218MOL    H1739511   5.683   5.616   2.248 -0.1569 -1.9125 -0.1655
  218MOL    H1839512   5.582   5.648   2.398  2.9324  0.2821  0.9015
  218MOL    H1939513   5.592   5.490   2.324  0.9800 -0.1806 -0.1234
  218MOL    C2039514   5.343   5.567   2.290  0.4214 -0.1827  0.3718
  218MOL    C2139515   5.202   5.590   2.228 -0.2686  0.1161  0.4299
  218MOL    C2239516   5.191   5.519   2.091  0.5433  0.5075 -0.0762
  218MOL    H2339517   5.359   5.460   2.296  0.3680 -0.2841 -1.2057
  218MOL    H2439518   5.329   5.602   2.393  1.4468  0.6881  0.2256
  218MOL    H2539519   5.174   5.694   2.213 -0.4616 -0.1573 -1.2138
  218MOL    H2639520   5.111   5.548   2.023  1.1370  1.1738 -0.5035
  218MOL    H2739521   5.281   5.545   2.036  0.9251 -0.2394  0.1955
  218MOL    H2839522   5.197   5.412   2.110 -1.4993  0.6630  1.5700
  218MOL    C2939523   5.094   5.540   2.325  0.5970  0.5531  0.5261
  218MOL    C3039524   4.947   5.566   2.272  0.7196  0.6735  0.3454
  218MOL    C3139525   4.843   5.455   2.331 -0.3505  0.4471  0.7863
  218MOL    H3239526   5.112   5.434   2.342 -0.4504  0.0015 -1.6242
  218MOL    H3339527   5.116   5.586   2.422  0.6644 -0.0864  0.8133
  218MOL    H3439528   4.942   5.563   2.163  1.3647  0.4318  0.3222
  218MOL    H3539529   4.891   5.358   2.317 -0.0670  0.4512  1.7112
  218MOL    H3639530   4.826   5.462   2.438 -0.1133 -0.2549  0.8705
  218MOL    H3739531   4.747   5.448   2.280  0.1822 -3.0150  0.1098
  218MOL    C3839532   4.900   5.712   2.304 -0.4195  0.0509  0.1062
  218MOL    C3939533   4.753   5.747   2.268 -0.2547 -0.1182 -0.3299
  218MOL    C4039534   4.711   5.885   2.334 -0.6933  0.6225 -0.0584
  218MOL    H4139535   4.912   5.731   2.411  0.4664  2.6453 -0.4104
  218MOL    H4239536   4.973   5.780   2.259  0.7438 -1.1607  0.1162
  218MOL    H4339537   4.689   5.668   2.307 -1.2198  0.4666 -0.6922
  218MOL    H4439538   4.771   5.969   2.296 -1.5363  0.0750 -2.7093
  218MOL    H4539539   4.606   5.907   2.318 -0.7523  0.1510 -0.3342
  218MOL    H4639540   4.711   5.878   2.442 -2.8609 -1.8965 -0.1778
  218MOL    C4739541   4.730   5.748   2.118 -0.1585 -0.3657  0.1425
  218MOL    C4839542   4.584   5.747   2.060 -0.0673  0.1708 -0.0805
  218MOL    C4939543   4.580   5.798   1.918  0.2695  0.0723 -0.3453
  218MOL    H5039544   4.777   5.834   2.071  2.1817 -2.1323 -0.8708
  218MOL    H5139545   4.785   5.662   2.079  2.7136  0.1479  2.8754
  218MOL    H5239546   4.532   5.819   2.122 -2.1828 -1.9917  0.7533
  218MOL    H5339547   4.636   5.891   1.908 -0.1316  0.3322 -0.1931
  218MOL    H5439548   4.619   5.724   1.849  1.4026  0.3390 -0.0105
  218MOL    H5539549   4.477   5.814   1.885 -0.1737 -1.6406  0.1545
  218MOL    C5639550   4.516   5.608   2.060  0.4097 -1.2046  0.6970
  218MOL    C5739551   4.358   5.605   2.050  0.1794 -0.6043  0.5650
  218MOL    C5839552   4.313   5.495   1.953 -0.3849  0.0820  0.5302
  218MOL    H5939553   4.557   5.550   1.978 -0.5889 -0.6723 -0.1877
  218MOL    H6039554   4.551   5.553   2.147 -0.9678 -0.3120  1.8426
  218MOL    H6139555   4.319   5.703   2.020 -1.1651 -0.9878  1.0078
  218MOL    H6239556   4.335   5.393   1.984 -2.4599  0.4935  3.5256
  218MOL    H6339557   4.205   5.499   1.941 -0.5582 -0.2070  1.9233
  218MOL    H6439558   4.358   5.505   1.853 -0.0538 -1.0153  0.5626
  218MOL    C6539559   4.293   5.565   2.185  0.1699  0.6187 -0.0965
  218MOL    C6639560   4.301   5.674   2.286 -0.5672  0.0336 -0.6284
  218MOL    C6739561   4.200   5.796   2.248 -0.1089 -0.4751  0.1322
  218MOL    H6839562   4.187   5.545   2.170  0.2490  1.5044 -1.9781
  218MOL    H6939563   4.337   5.470   2.213 -1.1598 -0.2900 -1.0769
  218MOL    H7039564   4.405   5.707   2.291 -0.5750 -0.1251  0.8196
  218MOL    H7139565   4.193   5.842   2.150 -1.6886  0.8100  0.8095
  218MOL    H7239566   4.098   5.769   2.279  0.0137  0.4086  1.3657
  218MOL    H7339567   4.222   5.883   2.310 -0.0929  0.5220 -1.2555
  218MOL    C7439568   4.270   5.621   2.427  0.4943  0.1574  0.1957
  218MOL    C7539569   4.382   5.538   2.499 -0.0164  0.0540  0.1368
  218MOL    C7639570   4.495   5.629   2.563 -0.2455  0.7996 -0.7747
  218MOL    H7739571   4.254   5.699   2.501 -2.4015 -1.1377  1.0182
  218MOL    H7839572   4.181   5.566   2.399  2.0506 -0.8350 -3.0527
  218MOL    H7939573   4.425   5.489   2.411  1.4157 -0.7020  1.2410
  218MOL    H8039574   4.449   5.691   2.640  2.1961  0.5950  0.9007
  218MOL    H8139575   4.571   5.562   2.601 -2.0189  0.0799  1.6392
  218MOL    H8239576   4.542   5.696   2.491  1.7209  0.8940  0.5368
  218MOL    C8339577   4.331   5.440   2.603 -0.1160  0.0850 -0.0758
  218MOL    C8439578   4.265   5.314   2.540 -0.0850 -0.5907 -0.4903
  218MOL    C8539579   4.381   5.223   2.502  0.1598  0.1662 -0.3363
  218MOL    H8639580   4.407   5.410   2.674  1.2464  2.1793 -0.5910
  218MOL    H8739581   4.257   5.495   2.660  0.1151 -0.6847  0.9724
  218MOL    H8839582   4.213   5.342   2.449 -1.3579 -2.0628 -0.2216
  218MOL    H8939583   4.341   5.124   2.484 -1.5148  0.6188  0.6976
  218MOL    H9039584   4.437   5.253   2.414  0.9788  0.0074  0.1252
  218MOL    H9139585   4.448   5.207   2.586 -1.3873 -1.1531  0.6826
  218MOL    C9239586   4.167   5.254   2.638  0.0153  0.3196 -0.1623
  218MOL    C9339587   4.027   5.328   2.660 -0.2137 -0.1945  0.5292
  218MOL    C9439588   3.951   5.332   2.524 -0.4443 -0.2727  0.3268
  218MOL    H9539589   4.150   5.154   2.600  0.1718  0.0258  0.5390
  218MOL    H9639590   4.219   5.242   2.733 -0.8547  0.4400  0.3412
  218MOL    H9739591   4.031   5.430   2.697 -0.2176  0.2800 -0.7742
  218MOL    H9839592   3.844   5.327   2.544 -0.1041 -1.4945  2.0163
  218MOL    H9939593   3.978   5.419   2.464 -2.4230  0.1826  0.0357
  218MOL   H10039594   3.961   5.240   2.466  1.2017  0.0370  0.0930
  218MOL   C10139595   3.946   5.261   2.777 -0.0161 -0.8008  0.6539
  218MOL   C10239596   4.013   5.256   2.920 -0.3961 -0.2792 -0.1479
  218MOL   C10339597   4.070   5.394   2.965 -0.3653 -0.7663 -0.5187
  218MOL   H10439598   3.858   5.324   2.790 -0.3344 -1.2289  0.5884
  218MOL   H10539599   3.923   5.159   2.744 -0.1766 -0.3996 -0.5062
  218MOL   H10639600   4.100   5.191   2.920 -0.3997 -0.2926  0.8900
  218MOL   H10739601   3.991   5.469   2.958  2.2824  2.0472 -1.3946
  218MOL   H10839602   4.123   5.393   3.060  2.7145  2.9181 -2.1076
  218MOL   H10939603   4.153   5.425   2.901  0.3693  1.0759  1.2762
  218MOL   C11039604   3.921   5.201   3.024 -0.3935 -0.1273  0.2301
  218MOL   C11139605   3.985   5.171   3.165  0.2221 -1.4178 -0.3700
  218MOL   C11239606   3.872   5.118   3.258  0.4629  0.0695 -0.1490
  218MOL   H11339607   3.841   5.274   3.039  0.1908  0.4847  0.3662
  218MOL   H11439608   3.872   5.105   3.004  0.0623 -0.1610 -0.7433
  218MOL   H11539609   4.025   5.266   3.199 -1.3356  0.0940 -2.5574
  218MOL   H11639610   3.911   5.116   3.360  0.2373  1.1793 -0.0382
  218MOL   H11739611   3.779   5.174   3.251  0.2713 -0.3732 -1.2399
  218MOL   H11839612   3.826   5.021   3.237 -0.8701  0.3607  1.2516
  218MOL   C11939613   4.098   5.065   3.155 -0.4726  0.2124  0.8741
  218MOL   C12039614   4.237   5.127   3.192  0.5142 -0.3720 -0.1038
  218MOL   C12139615   4.251   5.142   3.344 -0.0486  0.1842  0.7504
  218MOL   H12239616   4.066   4.970   3.198  0.1536 -0.4313 -0.0597
  218MOL   H12339617   4.103   5.039   3.049  0.0225 -0.3034  1.0205
  218MOL   H12439618   4.237   5.228   3.153 -0.1128 -0.0927  0.6222
  218MOL   H12539619   4.177   5.212   3.383 -0.1671  0.4673  0.0235
  218MOL   H12639620   4.237   5.043   3.389 -0.3664  0.3337  0.9761
  218MOL   H12739621   4.355   5.166   3.366  0.7202 -0.6076 -1.7311
  218MOL   C12839622   4.352   5.032   3.139 -0.1895 -0.1998  0.7928
  218MOL   C12939623   4.409   5.068   2.996 -0.4594 -0.3308  0.5100
  218MOL   C13039624   4.455   5.217   2.986  0.0863  0.5138  0.6882
  218MOL   H13139625   4.437   5.028   3.207  0.6789 -1.5190 -0.3319
  218MOL   H13239626   4.322   4.928   3.137  1.3287 -0.6429  0.0925
  218MOL   H13339627   4.345   5.051   2.909  1.5039 -1.2834 -0.7881
  218MOL   H13439628   4.532   5.239   3.060 -0.1717  2.8536  0.3182
  218MOL   H13539629   4.487   5.246   2.886 -1.2113  1.4507  0.5186
  218MOL   H13639630   4.369   5.279   3.013 -0.2742  0.9710 -1.4295
  218MOL   C13739631   4.536   4.981   2.973  0.4421 -0.0712 -0.1011
  218MOL   C13839632   4.507   4.840   2.913  0.1421  0.0985 -0.6120
  218MOL   C13939633   4.510   4.842   2.765  0.1616 -0.2205 -0.1331
  218MOL   H14039634   4.606   5.034   2.907 -1.8131  0.8179 -1.8797
  218MOL   H14139635   4.584   4.971   3.070 -1.6454  0.7852  1.0721
  218MOL   H14239636   4.405   4.807   2.934 -0.1284  2.2392  1.7196
  218MOL   H14339637   4.453   4.755   2.731  0.5670 -1.1234  1.4557
  218MOL   H14439638   4.461   4.928   2.720  0.3966  0.4648  0.9078
  218MOL   H14539639   4.612   4.837   2.728  0.4315 -1.4766  0.7575
  218MOL   C14639640   4.598   4.733   2.979  0.8183  0.0927 -0.1162
  218MOL   C14739641   4.572   4.692   3.130 -0.2354 -0.2880 -0.0312
  218MOL   C14839642   4.451   4.603   3.132  0.4355 -0.3054 -0.5193
  218MOL   H14939643   4.591   4.638   2.927 -0.9289 -0.3256  0.8442
  218MOL   H15039644   4.702   4.763   2.966  1.3130 -1.9321 -0.9859
  218MOL   H15139645   4.553   4.779   3.192 -0.2320 -0.9289  0.8966
  218MOL   H15239646   4.487   4.512   3.083 -0.6999 -1.5124  0.8656
  218MOL   H15339647   4.424   4.579   3.234  0.2595  1.2404 -0.1856
  218MOL   H15439648   4.361   4.641   3.084  0.7093  1.0792  0.0151
  218MOL   C15539649   4.701   4.625   3.182 -0.1053  0.1054 -0.7545
  218MOL   C15639650   4.826   4.709   3.217 -0.6587  0.3278 -0.2563
  218MOL   C15739651   4.790   4.858   3.230 -0.0521 -0.0727 -0.2294
  218MOL   H15839652   4.670   4.575   3.274  0.3123  1.9414  0.4258
  218MOL   H15939653   4.724   4.537   3.123 -1.4732 -1.0048  0.3316
  218MOL   H16039654   4.896   4.711   3.134 -1.7860 -0.6418 -1.2508
  218MOL   H16139655   4.876   4.917   3.259 -0.2508 -0.2749  0.7816
  218MOL   H16239656   4.763   4.907   3.136 -0.1710  0.2580 -0.0236
  218MOL   H16339657   4.715   4.865   3.309  1.2633 -0.9619  1.1266
  218MOL   C16439658   4.897   4.651   3.344 -0.5833 -0.0625 -0.2537
  218MOL   C16539659   5.008   4.556   3.298  0.3686 -0.1530  0.4660
  218MOL   C16639660   5.123   4.637   3.236 -0.4640  1.2100  0.4605
  218MOL   H16739661   4.940   4.730   3.404  1.7677 -0.1008 -1.8451
  218MOL   H16839662   4.821   4.609   3.411 -1.8402  2.7651  0.1454
  218MOL   H16939663   4.977   4.504   3.207  3.1675  1.2513 -1.3819
  218MOL   H17039664   5.160   4.714   3.305 -0.0249  3.0798 -1.7994
  218MOL   H17139665   5.204   4.571   3.206 -0.3564  1.0729  1.0474
  218MOL   H17239666   5.105   4.690   3.143  0.1731  0.0156 -0.3526
  218MOL   C17339667   5.060   4.451   3.399  0.1828 -0.3014  0.3249
  218MOL   C17439668   4.954   4.350   3.455  0.9456 -0.0304  0.3020
  218MOL   C17539669   4.983   4.268   3.576 -0.3072  0.8183 -0.3215
  218MOL   H17639670   5.138   4.394   3.348 -1.0203 -0.3057 -1.5597
  218MOL   H17739671   5.106   4.504   3.482 -0.4856  2.3001 -0.8866
  218MOL   H17839672   4.913   4.286   3.376  0.7345  0.5899 -0.0942
  218MOL   H17939673   4.998   4.332   3.663 -1.4450 -1.0726  1.3216
  218MOL   H18039674   4.910   4.194   3.608  0.6014  0.4818  1.0195
  218MOL   H18139675   5.071   4.206   3.559  0.5390  2.4916 -2.2900
  218MOL   H18239676   4.864   4.405   3.482  1.2400 -0.3483  1.9755
  219MOL     C139677   4.142   0.693   5.577  0.1344 -0.1882  0.7334
  219MOL     C239678   4.088   0.811   5.658 -0.4441  0.0803 -0.6817
  219MOL     C339679   4.198   0.862   5.750 -0.0270 -0.3684  0.2639
  219MOL     H439680   4.164   0.608   5.642 -1.3722 -1.3782 -0.2911
  219MOL     H539681   4.234   0.714   5.523 -0.7900  1.2010 -0.3432
  219MOL     H639682   4.008   0.763   5.715 -0.9447  0.3414 -1.1552
  219MOL     H739683   4.250   0.776   5.793  1.1400 -1.0445 -2.3799
  219MOL     H839684   4.268   0.918   5.688 -2.8666  2.1453 -0.8062
  219MOL     H939685   4.155   0.919   5.832  1.2760 -0.0150  0.7074
  219MOL    H1039686   4.061   0.654   5.516  1.4715 -2.2501  0.2153
  219MOL    C1139687   4.031   0.917   5.570 -0.4631  1.1801  0.0095
  219MOL    C1239688   3.968   1.043   5.643  0.1689  0.0312  0.0286
  219MOL    C1339689   3.932   1.148   5.532 -0.0847  0.6350 -0.1047
  219MOL    H1439690   4.111   0.947   5.502  0.7557 -2.6688 -0.3806
  219MOL    H1539691   3.960   0.860   5.509  0.8506 -1.2878  0.6984
  219MOL    H1639692   4.048   1.101   5.691 -0.0019  0.8017 -0.6036
  219MOL    H1739693   3.883   1.091   5.454 -0.8026  2.2351 -0.8411
  219MOL    H1839694   3.854   1.218   5.564 -2.8512 -1.2451 -2.5101
  219MOL    H1939695   4.021   1.199   5.494 -0.1332 -0.8004 -2.2266
  219MOL    C2039696   3.857   1.017   5.735  0.1116  0.1683 -0.0559
  219MOL    C2139697   3.812   1.140   5.822 -0.1223 -0.1823 -0.4518
  219MOL    C2239698   3.688   1.100   5.906  0.5432  0.1877 -0.2661
  219MOL    H2339699   3.772   0.972   5.684  0.4592  0.1924 -0.6646
  219MOL    H2439700   3.893   0.944   5.808  0.1384 -1.4222 -1.6178
  219MOL    H2539701   3.783   1.223   5.757 -0.2908 -0.0134 -0.1642
  219MOL    H2639702   3.628   1.020   5.862 -1.1179  1.4143 -0.2842
  219MOL    H2739703   3.717   1.053   6.000  0.3870  0.6263  0.0071
  219MOL    H2839704   3.620   1.182   5.931  1.7886  1.0052  0.4703
  219MOL    C2939705   3.919   1.182   5.921 -0.1455 -0.5978 -0.9144
  219MOL    C3039706   3.999   1.308   5.870 -0.0249 -0.3669  0.7752
  219MOL    C3139707   3.912   1.438   5.882 -0.4730 -0.4866 -0.8849
  219MOL    H3239708   3.886   1.214   6.020 -0.9146 -2.8983 -0.4015
  219MOL    H3339709   3.984   1.096   5.934 -2.8137 -2.3985  1.4054
  219MOL    H3439710   4.025   1.311   5.764 -0.2792 -0.7535  0.7008
  219MOL    H3539711   3.875   1.439   5.985 -0.6020  0.6538 -0.9435
  219MOL    H3639712   3.971   1.528   5.868  0.3368 -0.9575 -0.5656
  219MOL    H3739713   3.818   1.437   5.827 -0.8246  0.7239 -0.3193
  219MOL    C3839714   4.128   1.341   5.947 -0.3431 -0.9634 -0.4606
  219MOL    C3939715   4.237   1.231   5.944 -0.2517 -0.0227  0.6748
  219MOL    C4039716   4.295   1.221   5.796 -0.5086  0.3362 -0.3153
  219MOL    H4139717   4.181   1.423   5.899 -0.3556 -1.4690 -1.3576
  219MOL    H4239718   4.106   1.379   6.047 -0.0723  3.2264 -1.9171
  219MOL    H4339719   4.178   1.142   5.968 -3.3777  1.1471 -2.2299
  219MOL    H4439720   4.373   1.297   5.786 -0.7372  0.7095  0.6546
  219MOL    H4539721   4.336   1.120   5.793 -1.1831  0.1068 -4.0525
  219MOL    H4639722   4.222   1.231   5.716 -3.0450 -1.7893  1.6734
  219MOL    C4739723   4.342   1.237   6.060 -0.4158 -0.4807 -0.6544
  219MOL    C4839724   4.457   1.134   6.066  0.3442 -0.3284  0.1761
  219MOL    C4939725   4.562   1.176   6.164 -0.6438  0.1224 -0.8545
  219MOL    H5039726   4.389   1.334   6.048  0.1347 -0.8238 -1.3779
  219MOL    H5139727   4.286   1.225   6.152  0.3072  0.0446 -0.1461
  219MOL    H5239728   4.496   1.140   5.965  0.6208  0.6768  0.3360
  219MOL    H5339729   4.653   1.117   6.176  0.2554  1.6683  0.0864
  219MOL    H5439730   4.587   1.281   6.148  0.4146  0.1800  0.9923
  219MOL    H5539731   4.516   1.167   6.262  0.1733  0.0082 -0.4774
  219MOL    C5639732   4.406   0.986   6.086 -0.4933  0.5826 -0.3670
  219MOL    C5739733   4.502   0.867   6.078 -0.5231  0.4029  0.1451
  219MOL    C5839734   4.426   0.736   6.101  0.7673  0.3751 -0.2533
  219MOL    H5939735   4.349   0.974   6.178 -0.2169 -2.0998 -0.4964
  219MOL    H6039736   4.335   0.973   6.004 -0.6576 -1.4257  0.0601
  219MOL    H6139737   4.567   0.884   6.164 -1.5036 -0.5896  1.1056
  219MOL    H6239738   4.489   0.647   6.094 -0.4863 -0.6842  1.5681
  219MOL    H6339739   4.382   0.729   6.200  2.5860  4.3516  0.9351
  219MOL    H6439740   4.351   0.713   6.025 -2.4894  0.4888  2.8034
  219MOL    C6539741   4.595   0.879   5.949  0.3041 -0.0801 -0.1679
  219MOL    C6639742   4.693   0.769   5.921  0.0265  0.4244  0.0587
  219MOL    C6739743   4.762   0.798   5.786 -0.0123 -0.3441 -0.5658
  219MOL    H6839744   4.538   0.895   5.857 -0.0033 -0.0844  0.0182
  219MOL    H6939745   4.642   0.977   5.960 -1.6506  0.8897 -0.0764
  219MOL    H7039746   4.636   0.677   5.905 -0.8924  1.1051 -0.5757
  219MOL    H7139747   4.688   0.836   5.716 -0.4931  0.9024  0.5807
  219MOL    H7239748   4.843   0.870   5.796 -0.7506  0.5817 -1.0983
  219MOL    H7339749   4.803   0.710   5.738  2.0477  2.1919 -3.5938
  219MOL    C7439750   4.791   0.730   6.032  0.3431  0.0530  0.0730
  219MOL    C7539751   4.885   0.613   6.012  0.7848  0.3908 -0.4936
  219MOL    C7639752   4.992   0.640   6.127  0.5348  0.1873 -0.4567
  219MOL    H7739753   4.853   0.819   6.041  0.0993  0.5963 -2.9476
  219MOL    H7839754   4.744   0.723   6.130 -0.7692  0.8412 -0.3919
  219MOL    H7939755   4.941   0.607   5.919  0.4637  2.0161 -0.7972
  219MOL    H8039756   5.051   0.731   6.118  1.3352 -0.4317 -1.6423
  219MOL    H8139757   4.960   0.634   6.230 -0.0600  0.1331 -0.6453
  219MOL    H8239758   5.064   0.558   6.125  0.5750  0.2230 -0.4482
  219MOL    C8339759   4.823   0.472   6.044  0.3531  0.5377  0.2654
  219MOL    C8439760   4.729   0.400   5.938  0.6926 -0.1486  0.6210
  219MOL    C8539761   4.808   0.364   5.808 -0.3923  0.0253  0.1500
  219MOL    H8639762   4.905   0.404   6.069  2.5687  2.6137 -1.1042
  219MOL    H8739763   4.767   0.480   6.137 -1.7149  0.3792 -0.9289
  219MOL    H8839764   4.666   0.483   5.905  1.2022  0.2243  0.5706
  219MOL    H8939765   4.858   0.454   5.773  0.5499 -0.6981 -0.3985
  219MOL    H9039766   4.871   0.276   5.822  0.0754  0.0718 -1.5538
  219MOL    H9139767   4.726   0.341   5.741 -0.3720  0.5812 -0.0688
  219MOL    C9239768   4.667   0.269   6.002 -0.6098 -0.3047  0.1977
  219MOL    C9339769   4.568   0.263   6.118 -0.2149 -0.4063 -0.2228
  219MOL    C9439770   4.438   0.337   6.093  0.3954  0.1662  0.3942
  219MOL    H9539771   4.616   0.217   5.920 -0.9955 -1.1304  0.9521
  219MOL    H9639772   4.759   0.216   6.029  0.0409  0.7208 -0.0023
  219MOL    H9739773   4.613   0.316   6.203 -0.3034  0.2403 -0.5727
  219MOL    H9839774   4.376   0.355   6.181  0.1161 -0.8964  0.4261
  219MOL    H9939775   4.467   0.431   6.047  2.0495 -0.4277  0.2029
  219MOL   H10039776   4.374   0.280   6.025 -0.1351 -2.0459  2.6271
  219MOL   C10139777   4.544   0.116   6.149  0.7198  0.6340 -0.0217
  219MOL   C10239778   4.460   0.083   6.272 -0.2506 -0.3843  0.3894
  219MOL   C10339779   4.448   7.633   6.278 -0.3167  0.3293  0.1141
  219MOL   H10439780   4.505   0.076   6.056  1.4104 -0.9458  0.3456
  219MOL   H10539781   4.644   0.073   6.158 -0.1788 -1.8282 -1.5067
  219MOL   H10639782   4.354   0.103   6.255  0.0819  0.6819 -0.5745
  219MOL   H10739783   4.402   7.586   6.191  0.7577 -0.4252 -0.0590
  219MOL   H10839784   4.543   7.590   6.308  0.4782  2.3159  0.5014
  219MOL   H10939785   4.369   7.615   6.351  0.3006  1.2497  1.0167
  219MOL   C11039786   4.498   0.136   6.417  0.0863 -0.6213 -0.3236
  219MOL   C11139787   4.466   0.286   6.452  0.3132  0.3372  0.1331
  219MOL   C11239788   4.312   0.295   6.464  0.4335  0.0335  0.2443
  219MOL   H11339789   4.446   0.080   6.495  3.3683 -1.6788  1.1630
  219MOL   H11439790   4.604   0.116   6.432 -0.7074 -3.6447  1.6444
  219MOL   H11539791   4.506   0.352   6.375  0.5130 -1.9099 -1.7464
  219MOL   H11639792   4.261   0.287   6.368  0.1512 -0.2538  0.4155
  219MOL   H11739793   4.266   0.217   6.525 -2.7058  3.4913  2.5339
  219MOL   H11839794   4.280   0.389   6.507 -2.8224 -0.3870 -1.1061
  219MOL   C11939795   4.528   0.323   6.587 -0.4408  0.1011  0.9985
  219MOL   C12039796   4.679   0.311   6.603 -0.7024  0.0212 -0.5511
  219MOL   C12139797   4.762   0.395   6.511 -0.4995 -0.5500 -0.2520
  219MOL   H12239798   4.509   0.426   6.615  0.2891 -0.1003  2.3108
  219MOL   H12339799   4.470   0.268   6.661 -2.3075  0.2092 -0.3487
  219MOL   H12439800   4.699   0.204   6.596 -0.5459 -0.0546  1.0425
  219MOL   H12539801   4.732   0.499   6.523  1.8566 -0.0863  1.8689
  219MOL   H12639802   4.868   0.374   6.519 -0.2388  0.6620 -0.4333
  219MOL   H12739803   4.735   0.368   6.408 -0.7642 -1.7209  0.1179
  219MOL   C12839804   4.719   0.347   6.747 -0.1216  0.0805 -0.0075
  219MOL   C12939805   4.861   0.299   6.795 -0.2261  0.0417 -0.8441
  219MOL   C13039806   4.908   0.374   6.925  0.3936 -0.2087 -0.4195
  219MOL   H13139807   4.725   0.455   6.762  0.3784  0.0635 -0.0743
  219MOL   H13239808   4.650   0.306   6.820  0.5360 -1.6956 -0.3702
  219MOL   H13339809   4.937   0.335   6.726  2.6546  1.7299  3.0062
  219MOL   H13439810   4.925   0.481   6.912 -0.3329 -0.2206 -1.4595
  219MOL   H13539811   4.847   0.362   7.015 -0.4464 -1.9500 -1.1929
  219MOL   H13639812   4.996   0.325   6.968 -0.5884 -0.7683  0.9854
  219MOL   C13739813   4.876   0.145   6.804  1.0458  0.4210 -0.0273
  219MOL   C13839814   4.769   0.077   6.900 -0.8381 -0.0300  0.1036
  219MOL   C13939815   4.661   0.009   6.814 -0.1453  0.3669 -0.4858
  219MOL   H14039816   4.867   0.103   6.704  0.1542  1.5168 -0.4279
  219MOL   H14139817   4.970   0.123   6.855  1.0917  0.1630 -0.2249
  219MOL   H14239818   4.724   0.153   6.963 -0.6646  0.2872 -0.1500
  219MOL   H14339819   4.704   7.665   6.724  1.3850  2.1079 -0.5638
  219MOL   H14439820   4.609   7.629   6.872  0.9304 -0.5371 -0.7225
  219MOL   H14539821   4.594   0.088   6.780  0.5063  0.1810 -2.2003
  219MOL   C14639822   4.826   7.670   7.001 -0.1653  0.5832 -0.1007
  219MOL   C14739823   4.912   0.035   7.114 -0.2749 -0.2133 -0.2074
  219MOL   C14839824   4.824   0.098   7.221  0.4337  0.0757  0.0346
  219MOL   H14939825   4.743   7.609   7.036  0.3122  1.0643  1.9332
  219MOL   H15039826   4.881   7.605   6.933  0.7054  2.0463 -0.8175
  219MOL   H15139827   4.971   0.115   7.069  0.0283  0.0146  0.5901
  219MOL   H15239828   4.770   0.029   7.285 -1.3017  0.4127 -1.0450
  219MOL   H15339829   4.883   0.167   7.281 -0.3434 -0.3970  1.3524
  219MOL   H15439830   4.749   0.162   7.176  1.7509 -0.3370 -2.8740
  219MOL   C15539831   5.008   7.625   7.175  0.1345  0.1545 -0.1032
  219MOL   C15639832   5.158   7.614   7.111 -1.2235 -0.0804 -0.5738
  219MOL   C15739833   5.238   0.045   7.114  0.4771 -0.8034 -0.0078
  219MOL   H15839834   5.009   7.645   7.282 -2.3475  0.2334 -0.0820
  219MOL   H15939835   4.948   7.535   7.160 -0.2920  0.9506 -3.6493
  219MOL   H16039836   5.141   7.593   7.006  0.8475 -0.9479 -0.7564
  219MOL   H16139837   5.233   0.086   7.215  2.4936 -3.3748  1.1896
  219MOL   H16239838   5.345   0.042   7.095  0.3816 -1.6764 -0.3844
  219MOL   H16339839   5.188   0.121   7.054  1.8567  0.1691  0.0453
  219MOL   C16439840   5.240   7.506   7.177  0.0035  0.5503  0.3770
  219MOL   C16539841   5.168   7.366   7.194  0.1880 -0.0571 -0.0179
  219MOL   C16639842   5.145   7.301   7.057  0.0950 -0.0852 -0.0306
  219MOL   H16739843   5.338   7.489   7.132 -0.5779 -0.7836 -0.4239
  219MOL   H16839844   5.265   7.541   7.277 -1.2047  1.1509  0.4816
  219MOL   H16939845   5.077   7.393   7.249  0.6758  0.1763  0.6875
  219MOL   H17039846   5.237   7.286   7.000 -0.4440  0.7508 -1.1219
  219MOL   H17139847   5.109   7.199   7.070 -0.4253  0.3326  2.0395
  219MOL   H17239848   5.070   7.354   6.999 -0.0489 -1.3476 -1.0113
  219MOL   C17339849   5.253   7.281   7.287 -0.1004 -0.5938  0.3625
  219MOL   C17439850   5.175   7.183   7.360  0.4729  0.4019 -0.4085
  219MOL   C17539851   5.261   7.100   7.453 -0.2059  0.4208 -0.4996
  219MOL   H17639852   5.341   7.234   7.242 -0.4702 -0.2709 -0.7219
  219MOL   H17739853   5.285   7.339   7.373 -2.3235  0.9753  0.1670
  219MOL   H17839854   5.140   7.114   7.284 -0.8889  0.7369 -0.1082
  219MOL   H17939855   5.310   7.168   7.523  0.8880  0.6236 -1.4561
  219MOL   H18039856   5.204   7.037   7.522  0.7642  0.2896  0.1910
  219MOL   H18139857   5.339   7.042   7.405  0.2899 -0.5570  1.4471
  219MOL   H18239858   5.094   7.224   7.421  1.0100  0.9665 -0.0642
  220MOL     C139859   5.845   3.490   5.073 -0.4935  0.5620 -0.5335
  220MOL     C239860   5.941   3.526   4.962  0.5060  0.7790 -0.2327
  220MOL     C339861   6.028   3.403   4.917  0.1726 -0.2032 -0.4391
  220MOL     H439862   5.812   3.563   5.146 -1.3674 -0.4394  0.0738
  220MOL     H539863   5.881   3.404   5.129  2.1817  1.2257 -1.1185
  220MOL     H639864   6.005   3.605   5.003  0.5468  1.1537 -1.0238
  220MOL     H739865   5.965   3.320   4.884  1.7666 -1.6120 -0.0136
  220MOL     H839866   6.081   3.452   4.836  0.2491  0.1621 -0.1644
  220MOL     H939867   6.098   3.361   4.989  0.2068 -0.4696 -0.6234
  220MOL    H1039868   5.752   3.453   5.030 -0.6638  0.0969  0.2415
  220MOL    C1139869   5.867   3.595   4.842  0.1703  0.2118 -0.2072
  220MOL    C1239870   5.783   3.725   4.873 -0.4523 -0.1214  0.1532
  220MOL    C1339871   5.869   3.842   4.927 -0.9767 -0.4097 -0.2839
  220MOL    H1439872   5.950   3.634   4.783  0.9339  2.2714  2.1239
  220MOL    H1539873   5.825   3.512   4.786 -0.2928  0.9666 -0.9811
  220MOL    H1639874   5.714   3.682   4.946 -0.5884 -0.1318  0.0185
  220MOL    H1739875   5.946   3.867   4.854 -0.6877  1.3946  0.6110
  220MOL    H1839876   5.816   3.935   4.951  0.2622 -0.4798  3.0590
  220MOL    H1939877   5.932   3.836   5.016 -0.5935 -0.5487 -0.5625
  220MOL    C2039878   5.708   3.774   4.751  0.2892 -0.0951  0.9331
  220MOL    C2139879   5.619   3.668   4.684  0.6336 -0.3282 -0.1664
  220MOL    C2239880   5.513   3.628   4.786 -0.2534 -0.1982  0.4147
  220MOL    H2339881   5.653   3.864   4.778  0.2997  0.8042 -1.8977
  220MOL    H2439882   5.796   3.799   4.692 -0.9010  2.1795  0.0608
  220MOL    H2539883   5.683   3.582   4.663  3.1505  1.9494 -2.1950
  220MOL    H2639884   5.553   3.600   4.884  0.5848 -3.4873 -0.8087
  220MOL    H2739885   5.441   3.705   4.815 -1.0509 -0.3367 -1.1842
  220MOL    H2839886   5.456   3.547   4.742 -0.1321  0.9645 -1.9165
  220MOL    C2939887   5.546   3.723   4.556 -0.2080  0.1268  0.0386
  220MOL    C3039888   5.635   3.778   4.446  0.0655  0.5050  0.0820
  220MOL    C3139889   5.697   3.920   4.476 -0.1613  0.8894  0.5328
  220MOL    H3239890   5.490   3.641   4.511  1.0212 -1.5521  1.4955
  220MOL    H3339891   5.472   3.796   4.588  0.9545  1.8939 -1.1980
  220MOL    H3439892   5.566   3.792   4.363 -0.7196  2.5287  1.0334
  220MOL    H3539893   5.732   3.963   4.382  1.2726 -1.7831 -0.2229
  220MOL    H3639894   5.620   3.991   4.505 -0.6720 -0.4124  2.4137
  220MOL    H3739895   5.790   3.921   4.533  0.4935 -0.6641 -0.4606
  220MOL    C3839896   5.740   3.682   4.387 -0.3742  0.0163 -0.2569
  220MOL    C3939897   5.812   3.717   4.250  0.2774 -0.1804 -0.0655
  220MOL    C4039898   5.938   3.802   4.285  0.3398 -0.1555 -0.1240
  220MOL    H4139899   5.817   3.668   4.463  0.1153 -1.8986 -1.0756
  220MOL    H4239900   5.692   3.587   4.364 -2.0742  1.5746 -3.6298
  220MOL    H4339901   5.747   3.778   4.187 -0.0593 -0.4207  0.0471
  220MOL    H4439902   5.935   3.890   4.349  3.2346 -0.2542  0.1795
  220MOL    H4539903   6.016   3.743   4.332 -0.1709  0.1999  1.1786
  220MOL    H4639904   5.991   3.817   4.191  0.0553 -1.8198 -0.5715
  220MOL    C4739905   5.865   3.590   4.180  0.2489  0.2088 -0.1565
  220MOL    C4839906   5.767   3.493   4.120 -0.4164  0.0036  0.0152
  220MOL    C4939907   5.694   3.557   4.000  0.5813  0.1340  0.1356
  220MOL    H5039908   5.942   3.617   4.108 -0.5095  3.7383  0.2699
  220MOL    H5139909   5.922   3.539   4.257  0.9415  1.0185 -0.1416
  220MOL    H5239910   5.688   3.457   4.186 -0.8307 -1.5022 -1.2527
  220MOL    H5339911   5.757   3.599   3.921  3.2950 -0.4135  1.9458
  220MOL    H5439912   5.634   3.480   3.952  0.1848 -0.1487  1.0739
  220MOL    H5539913   5.637   3.640   4.041 -1.7256 -0.8288 -1.0398
  220MOL    C5639914   5.825   3.358   4.093  0.5486  0.2095 -0.1899
  220MOL    C5739915   5.882   3.278   4.217 -1.0018  0.4176  0.3525
  220MOL    C5839916   5.786   3.264   4.335  0.1909  0.8390  0.1284
  220MOL    H5939917   5.770   3.294   4.024  0.5082 -1.3328  1.2155
  220MOL    H6039918   5.918   3.383   4.043  0.2818 -0.1629 -0.8781
  220MOL    H6139919   5.963   3.332   4.265 -0.6832 -0.2298  0.5400
  220MOL    H6239920   5.747   3.355   4.381  0.1465  1.5890 -1.3816
  220MOL    H6339921   5.699   3.200   4.323  0.5854  0.2611  0.3117
  220MOL    H6439922   5.855   3.231   4.413  0.5956  1.5230  0.0631
  220MOL    C6539923   5.934   3.141   4.163 -0.5096  0.2144 -0.6053
  220MOL    C6639924   6.003   3.055   4.263  0.0955  0.1983 -0.1855
  220MOL    C6739925   6.041   2.920   4.196 -0.2451  0.2735 -0.1020
  220MOL    H6839926   5.854   3.080   4.120 -1.0142 -0.6578  1.5317
  220MOL    H6939927   6.013   3.158   4.090 -0.5770 -0.9246 -0.9503
  220MOL    H7039928   5.924   3.029   4.333  0.9399 -2.4486 -0.1326
  220MOL    H7139929   6.092   2.853   4.265 -0.5509 -0.1546 -0.2844
  220MOL    H7239930   5.954   2.862   4.163  0.0741 -0.6725  0.6866
  220MOL    H7339931   6.113   2.936   4.116 -0.7386 -0.1210 -0.6368
  220MOL    C7439932   6.129   3.107   4.338  0.0573 -0.5196 -0.6011
  220MOL    C7539933   6.241   3.161   4.242 -0.1265  0.7080  0.1405
  220MOL    C7639934   6.291   3.296   4.288  0.8254 -0.4031  0.4225
  220MOL    H7739935   6.100   3.182   4.411  0.7851 -0.6675 -0.1510
  220MOL    H7839936   6.178   3.026   4.392  0.4711 -0.1902 -0.4844
  220MOL    H7939937   6.202   3.173   4.140 -1.6167 -3.5599  0.0940
  220MOL    H8039938   6.342   3.290   4.384 -0.3052  0.5382  1.1092
  220MOL    H8139939   6.358   3.354   4.226  2.1604 -2.5372 -0.1503
  220MOL    H8239940   6.198   3.353   4.300  0.5803 -0.9505  1.2473
  220MOL    C8339941   6.359   3.064   4.223  0.3754  0.2233 -0.2812
  220MOL    C8439942   6.462   3.099   4.110 -0.1096 -0.9932  0.0647
  220MOL    C8539943   6.595   3.157   4.163 -0.2315  0.4956  0.3854
  220MOL    H8639944   6.408   3.052   4.319  0.3017  2.8812  0.1369
  220MOL    H8739945   6.314   2.965   4.222 -1.6262  1.0592  1.5202
  220MOL    H8839946   6.430   3.184   4.049  3.5455 -0.0039 -0.6441
  220MOL    H8939947   6.649   3.095   4.234 -2.1283 -0.9546  0.5970
  220MOL    H9039948   6.665   3.195   4.089  0.5904 -0.4770  0.6646
  220MOL    H9139949   6.570   3.252   4.211 -0.0630 -0.2012  1.8731
  220MOL    C9239950   6.487   2.982   4.019 -0.4247  0.9375 -0.3957
  220MOL    C9339951   6.530   3.008   3.868 -0.5205 -0.6865  0.3867
  220MOL    C9439952   6.681   2.983   3.839 -0.4802 -0.1856 -0.1568
  220MOL    H9539953   6.558   2.922   4.076 -0.3026  1.1228 -0.3526
  220MOL    H9639954   6.396   2.925   4.001 -0.4743  0.9677 -0.2361
  220MOL    H9739955   6.488   3.107   3.850 -0.5215 -0.7759 -0.0997
  220MOL    H9839956   6.714   2.987   3.735  1.2429  0.2868  0.3924
  220MOL    H9939957   6.757   3.040   3.893  0.1670 -1.4653  0.3044
  220MOL   H10039958   6.701   2.886   3.883  0.1361 -0.0596 -0.1527
  220MOL   C10139959   6.444   2.924   3.774 -0.4409  0.2666  0.7036
  220MOL   C10239960   6.296   2.965   3.762 -0.6560  0.1381  0.4554
  220MOL   C10339961   6.283   3.112   3.710  0.3648 -0.1081  0.2555
  220MOL   H10439962   6.475   2.933   3.670  0.1889  1.1430  0.9625
  220MOL   H10539963   6.457   2.820   3.803  3.9368  0.4108 -0.3572
  220MOL   H10639964   6.255   2.971   3.863  2.2801  0.5369  1.6917
  220MOL   H10739965   6.335   3.188   3.768  1.7258  0.8256 -2.1256
  220MOL   H10839966   6.329   3.122   3.612  0.5876 -1.6483  0.1868
  220MOL   H10939967   6.176   3.132   3.717  0.0167 -1.2516 -1.4758
  220MOL   C11039968   6.214   2.855   3.681  0.5224 -0.4758 -0.1170
  220MOL   C11139969   6.206   2.712   3.737 -0.2957 -0.0427 -0.3406
  220MOL   C11239970   6.171   2.702   3.885  0.1736 -0.4093  0.5048
  220MOL   H11339971   6.115   2.894   3.660 -0.0303 -2.4791 -1.3775
  220MOL   H11439972   6.246   2.858   3.577  0.2597  0.5284 -0.1743
  220MOL   H11539973   6.300   2.660   3.720  0.3210  1.3170 -1.2239
  220MOL   H11639974   6.158   2.595   3.900  0.8653 -0.4175  1.0633
  220MOL   H11739975   6.252   2.729   3.953 -0.0476 -2.7185  1.7209
  220MOL   H11839976   6.074   2.741   3.917 -0.1227  0.6437 -1.5828
  220MOL   C11939977   6.106   2.624   3.647  0.1644  0.5057  0.5221
  220MOL   C12039978   6.163   2.597   3.500  0.9212  0.2722 -0.4308
  220MOL   C12139979   6.256   2.470   3.503 -0.0537  0.0740 -0.3822
  220MOL   H12239980   6.076   2.529   3.691  0.5577 -0.7280 -1.7685
  220MOL   H12339981   6.010   2.676   3.638 -1.0971 -1.8214  0.1080
  220MOL   H12439982   6.217   2.683   3.459 -0.2588  0.2398 -2.1031
  220MOL   H12539983   6.321   2.460   3.590 -1.4991 -2.3928  0.4652
  220MOL   H12639984   6.194   2.381   3.506 -4.1110  2.7580 -0.7700
  220MOL   H12739985   6.314   2.461   3.411  0.9103 -2.1212  0.4063
  220MOL   C12839986   6.055   2.575   3.395 -0.3462 -0.6758 -0.0662
  220MOL   C12939987   5.950   2.688   3.368 -0.5187 -0.0394 -0.1499
  220MOL   C13039988   6.009   2.820   3.354 -0.3180 -0.2742 -0.5108
  220MOL   H13139989   6.102   2.529   3.308  2.0803  1.1734  0.2534
  220MOL   H13239990   5.998   2.487   3.426 -0.3897 -0.3194  0.9043
  220MOL   H13339991   5.893   2.695   3.460  0.5233 -1.2888  0.6096
  220MOL   H13439992   6.065   2.847   3.444  0.2189 -1.1595 -0.5768
  220MOL   H13539993   6.071   2.829   3.265  0.3128 -1.3656 -0.1894
  220MOL   H13639994   5.924   2.888   3.361 -0.5838 -0.6988  0.5382
  220MOL   C13739995   5.855   2.642   3.250  0.1860 -0.0399  0.4155
  220MOL   C13839996   5.746   2.535   3.270  0.1666 -0.6589  0.0689
  220MOL   C13939997   5.661   2.583   3.392 -0.2332 -0.2357  0.0108
  220MOL   H14039998   5.810   2.730   3.205  2.4094 -0.4150 -2.7335
  220MOL   H14139999   5.913   2.604   3.165 -1.6902 -2.4459  0.1293
  220MOL   H14240000   5.797   2.441   3.293 -1.7650 -1.5305  0.8547
  220MOL   H14340001   5.713   2.561   3.485 -0.6395  0.4837  0.4105
  220MOL   H14440002   5.647   2.690   3.383 -0.6712 -0.3974 -1.3698
  220MOL   H14540003   5.560   2.541   3.389  0.0774 -0.9324 -0.9479
  220MOL   C14640004   5.646   2.518   3.149 -0.6001  0.3194 -0.0460
  220MOL   C14740005   5.719   2.478   3.019 -0.2235  0.3587  0.0647
  220MOL   C14840006   5.804   2.354   3.049  0.1995  0.4087  0.2755
  220MOL   H14940007   5.565   2.446   3.163 -1.4743  1.4622  0.8284
  220MOL   H15040008   5.594   2.608   3.119  0.6518  0.7364 -0.9891
  220MOL   H15140009   5.791   2.558   3.002 -0.1419  0.0101 -1.3517
  220MOL   H15240010   5.899   2.372   3.099  0.4420  1.5704 -0.5804
  220MOL   H15340011   5.752   2.290   3.120  3.0744 -2.8172 -0.4416
  220MOL   H15440012   5.831   2.291   2.965  1.2073 -0.8743  1.5340
  220MOL   C15540013   5.636   2.462   2.892  0.6065 -0.1458  0.5582
  220MOL   C15640014   5.559   2.593   2.850 -0.3180 -0.4257  1.2210
  220MOL   C15740015   5.651   2.712   2.822 -0.3097  0.5966  0.8010
  220MOL   H15840016   5.689   2.419   2.807  1.5087  1.4830  0.2723
  220MOL   H15940017   5.562   2.386   2.915  0.9196 -0.4619  0.5151
  220MOL   H16040018   5.492   2.616   2.933 -1.7828 -0.0067 -0.0419
  220MOL   H16140019   5.724   2.688   2.745 -1.0913  3.7983 -1.0449
  220MOL   H16240020   5.595   2.797   2.783  1.1649  1.4273  0.4650
  220MOL   H16340021   5.690   2.745   2.918  0.9599 -2.1633  1.2736
  220MOL   C16440022   5.467   2.577   2.729  0.0204 -0.0509  0.4675
  220MOL   C16540023   5.312   2.580   2.758 -0.5816 -0.7527 -0.0501
  220MOL   C16640024   5.267   2.710   2.813  0.0544  0.6768  1.0265
  220MOL   H16740025   5.487   2.649   2.650 -0.8618  0.7801  0.9967
  220MOL   H16840026   5.496   2.481   2.686  3.2693  1.7454 -1.5949
  220MOL   H16940027   5.288   2.503   2.831 -0.0668  0.8046  1.8121
  220MOL   H17040028   5.321   2.735   2.904  0.7661  4.8492 -0.4563
  220MOL   H17140029   5.292   2.786   2.740 -1.6632  2.1227  1.8920
  220MOL   H17240030   5.160   2.720   2.834 -0.4870 -2.3902 -0.0751
  220MOL   C17340031   5.230   2.548   2.633 -0.2774 -0.2544  0.5871
  220MOL   C17440032   5.251   2.631   2.506  0.0230 -0.4045  0.4983
  220MOL   C17540033   5.146   2.614   2.397 -0.2620 -0.2641  0.0042
  220MOL   H17640034   5.244   2.443   2.604  2.2900  0.1862  0.1526
  220MOL   H17740035   5.124   2.557   2.658 -0.9665 -1.4438 -1.7079
  220MOL   H17840036   5.344   2.605   2.455 -0.5461 -0.3495 -0.5715
  220MOL   H17940037   5.167   2.683   2.316 -1.1200  0.9119  0.7672
  220MOL   H18040038   5.139   2.514   2.354  0.6685 -1.7278  3.1091
  220MOL   H18140039   5.048   2.647   2.434 -0.4103 -0.3967 -0.2692
  220MOL   H18240040   5.253   2.739   2.522 -0.5249 -0.3876  0.4494
  221MOL     C140041   7.580   4.768   3.850 -0.2706 -0.0543 -0.4558
  221MOL     C240042   7.514   4.707   3.979 -0.1709 -0.5304 -0.2000
  221MOL     C340043   7.451   4.579   3.939 -0.1612  0.3822  0.3598
  221MOL     H440044   7.666   4.707   3.827 -0.1480 -0.6013  1.3460
  221MOL     H540045   7.621   4.866   3.875 -0.2749 -0.0977 -0.2768
  221MOL     H640046   7.434   4.771   4.018 -3.0278 -2.6221 -2.3475
  221MOL     H740047   7.423   4.524   4.029 -0.4768 -1.8629 -1.0707
  221MOL     H840048   7.366   4.592   3.872 -0.7878 -0.2100  1.0366
  221MOL     H940049   7.515   4.521   3.874  1.0218  0.7871  1.1467
  221MOL    H1040050   7.515   4.772   3.762  1.9408 -0.6206 -2.1499
  221MOL    C1140051   7.616   4.682   4.089  0.0703 -0.0890  0.7183
  221MOL    C1240052   7.669   4.802   4.164  0.0721  0.0249 -0.5786
  221MOL    C1340053   7.552   4.893   4.226  0.0784  0.4766  0.9381
  221MOL    H1440054   7.576   4.619   4.169 -0.2578 -1.0160 -0.1642
  221MOL    H1540055   0.005   4.625   4.052  0.8219  0.8913  0.9358
  221MOL    H1640056   0.020   4.858   4.084 -1.6094 -0.0095 -1.6348
  221MOL    H1740057   7.596   4.980   4.275  2.3408 -0.3893  0.4932
  221MOL    H1840058   7.478   4.919   4.150  0.4492  3.7557  1.6000
  221MOL    H1940059   7.505   4.836   4.305 -0.5831  2.7240  2.2123
  221MOL    C2040060   0.074   4.758   4.269 -0.4616  0.3855 -0.2141
  221MOL    C2140061   0.191   4.865   4.287 -0.4029  0.1676  0.0515
  221MOL    C2240062   0.222   4.890   4.439  0.1195  0.4004  0.0682
  221MOL    H2340063   0.019   4.738   4.361  0.5581 -0.1311  0.2835
  221MOL    H2440064   0.120   4.666   4.235 -1.3598 -0.3431  0.5291
  221MOL    H2540065   0.149   4.956   4.245  4.5237  2.0652 -1.1144
  221MOL    H2640066   0.265   4.806   4.494  0.7097 -0.3999 -1.5955
  221MOL    H2740067   0.287   4.974   4.465  0.4153  0.7267 -1.6960
  221MOL    H2840068   0.127   4.921   4.482 -0.2134  0.4563 -0.7093
  221MOL    C2940069   0.321   4.824   4.206 -0.2146 -0.0867  0.1787
  221MOL    C3040070   0.439   4.917   4.197 -0.7079  0.2927  0.4125
  221MOL    C3140071   0.538   4.852   4.100 -0.0310 -0.0374  0.8865
  221MOL    H3240072   0.365   4.727   4.231 -2.2057 -0.8135  0.9906
  221MOL    H3340073   0.296   4.810   4.101  1.8566 -1.7902 -0.1387
  221MOL    H3440074   0.490   4.926   4.294 -0.0754  2.1200 -0.0642
  221MOL    H3540075   0.492   4.849   4.001  1.1419 -0.4213  0.3295
  221MOL    H3640076   0.637   4.897   4.096 -0.3607  0.5290 -1.7494
  221MOL    H3740077   0.556   4.748   4.128 -0.9359 -0.5949 -0.5364
  221MOL    C3840078   0.407   5.057   4.141  0.5244 -0.5365 -0.1264
  221MOL    C3940079   0.337   5.165   4.231 -0.3549  0.0476 -0.0523
  221MOL    C4040080   0.441   5.226   4.325  0.1782 -0.3474  0.3031
  221MOL    H4140081   0.508   5.095   4.127 -0.3435  1.5534 -1.0177
  221MOL    H4240082   0.367   5.056   4.039  0.3275 -1.2661 -0.0456
  221MOL    H4340083   0.266   5.131   4.307  1.2250 -2.9402  0.1665
  221MOL    H4440084   0.512   5.289   4.270  1.1871 -1.2396  0.5765
  221MOL    H4540085   0.405   5.295   4.401  2.0038  1.1448 -0.1310
  221MOL    H4640086   0.500   5.152   4.378 -0.0316 -2.2707 -2.0460
  221MOL    C4740087   0.258   5.272   4.145  0.1129 -0.2227  0.6578
  221MOL    C4840088   0.133   5.219   4.082  0.1237 -0.1991 -0.8911
  221MOL    C4940089   0.004   5.250   4.167  0.3643  0.3561 -0.3871
  221MOL    H5040090   0.239   5.361   4.205  0.3257 -0.9921  1.8789
  221MOL    H5140091   0.329   5.327   4.083  0.1983 -0.2101  0.7682
  221MOL    H5240092   0.134   5.111   4.072  1.7493 -0.2037 -0.8691
  221MOL    H5340093   7.609   5.214   4.122  0.6705 -0.4495 -0.3625
  221MOL    H5440094   0.003   5.200   4.263 -1.5507 -3.0663 -2.1147
  221MOL    H5540095   7.692   5.359   4.176  0.9069  0.2402  1.7188
  221MOL    C5640096   0.111   5.263   3.934  0.0435 -0.5930  0.0371
  221MOL    C5740097   0.198   5.199   3.821 -0.6376  0.4897  0.3931
  221MOL    C5840098   0.167   5.048   3.821  0.0659  0.3211  0.0610
  221MOL    H5940099   0.005   5.248   3.910  0.2191 -0.4112 -0.8421
  221MOL    H6040100   0.122   5.371   3.938 -0.2461 -0.5521 -0.2693
  221MOL    H6140101   0.304   5.221   3.830 -0.2262 -1.0496 -0.5119
  221MOL    H6240102   0.182   5.002   3.919  1.5676  0.1819 -0.2157
  221MOL    H6340103   0.064   5.027   3.794  0.0104  0.4753  0.1545
  221MOL    H6440104   0.223   4.988   3.748  0.1426  0.9205 -0.3801
  221MOL    C6540105   0.154   5.258   3.682 -0.0441  0.5665 -0.1244
  221MOL    C6640106   0.180   5.412   3.661  0.3096 -0.6669 -0.8076
  221MOL    C6740107   0.334   5.435   3.680 -0.5401 -0.2471  0.3705
  221MOL    H6840108   0.199   5.201   3.600  1.6528  0.8958  0.5594
  221MOL    H6940109   0.046   5.249   3.677  0.0512 -3.4010  2.8360
  221MOL    H7040110   0.126   5.456   3.745  1.5621  0.0180 -0.3500
  221MOL    H7140111   0.398   5.353   3.645  1.0227  1.8278 -1.7785
  221MOL    H7240112   0.372   5.523   3.629 -0.7250 -1.1004 -1.2805
  221MOL    H7340113   0.362   5.447   3.785 -2.4626 -0.0154  0.8618
  221MOL    C7440114   0.125   5.444   3.518 -0.3689  0.5498 -0.5692
  221MOL    C7540115   0.108   5.592   3.488  0.4298 -0.1319  0.5016
  221MOL    C7640116   0.065   5.600   3.344 -0.1666  0.8570 -0.1784
  221MOL    H7740117   0.199   5.398   3.454 -1.7732 -0.3622 -1.5482
  221MOL    H7840118   0.032   5.393   3.495  0.5286 -1.6740  0.5570
  221MOL    H7940119   0.208   5.633   3.504  0.1700  0.2265  1.2498
  221MOL    H8040120   0.126   5.547   3.271 -1.0788 -0.1864 -0.1905
  221MOL    H8140121   7.667   5.549   3.328  0.4040 -0.3307  0.1272
  221MOL    H8240122   0.054   5.707   3.327 -0.8337  0.4275 -2.6179
  221MOL    C8340123   0.012   5.654   3.591 -0.0107 -0.2316 -0.1308
  221MOL    C8440124   0.081   5.736   3.699  0.4302 -0.3304  0.0363
  221MOL    C8540125   0.090   5.883   3.654  0.0162 -0.1344  0.2674
  221MOL    H8640126   7.637   5.716   3.539 -2.0671 -2.5529 -0.1260
  221MOL    H8740127   7.644   5.582   3.641 -1.0353  0.3533 -0.6142
  221MOL    H8840128   0.184   5.701   3.709  0.4423  0.2597  2.1250
  221MOL    H8940129   0.144   5.881   3.559 -0.7767 -0.7842 -0.1710
  221MOL    H9040130   7.695   5.939   3.638  0.2528  0.6158  1.4477
  221MOL    H9140131   0.160   5.943   3.713  1.1401 -0.7470 -0.4233
  221MOL    C9240132   7.695   5.730   3.833 -0.1055  0.3467  0.0815
  221MOL    C9340133   0.078   5.774   3.962 -0.1373  0.0256  0.4839
  221MOL    C9440134   7.677   5.793   4.072  0.4322  0.1692 -0.0904
  221MOL    H9540135   7.606   5.792   3.820  1.6935  2.4594 -2.8578
  221MOL    H9640136   7.664   5.627   3.851 -3.0846  0.9446 -1.3596
  221MOL    H9740137   0.126   5.871   3.949  0.9367 -0.2250  2.4040
  221MOL    H9840138   0.021   5.847   4.158  0.6830  0.6353 -0.4983
  221MOL    H9940139   7.595   5.855   4.036  1.1001  0.9664 -0.2564
  221MOL   H10040140   7.633   5.699   4.104  2.5206 -0.4991  0.9270
  221MOL   C10140141   0.194   5.674   4.001 -0.5522  0.3059  0.2241
  221MOL   C10240142   0.327   5.736   4.052 -0.1703  0.1519  0.3551
  221MOL   C10340143   0.300   5.837   4.164 -0.3938  0.4270 -0.3837
  221MOL   H10440144   0.150   5.613   4.079  0.0726  0.9788  1.1081
  221MOL   H10540145   0.205   5.605   3.917  0.4408  0.7555 -0.0211
  221MOL   H10640146   0.369   5.788   3.966  4.0582 -0.2851  2.0091
  221MOL   H10740147   0.230   5.812   4.244 -0.4881 -0.4396 -0.7274
  221MOL   H10840148   0.398   5.852   4.208 -0.8673 -1.0801  1.2743
  221MOL   H10940149   0.272   5.936   4.130 -1.1337  0.5863  0.6415
  221MOL   C11040150   0.426   5.618   4.093 -0.2395  0.1152 -0.1701
  221MOL   C11140151   0.576   5.651   4.080  0.3735 -0.1338 -0.7786
  221MOL   C11240152   0.648   5.586   4.194 -0.0445  0.6653  0.1613
  221MOL   H11340153   0.394   5.594   4.195  1.2003  0.8630  0.4709
  221MOL   H11440154   0.406   5.526   4.039 -0.2988  0.8304 -1.3779
  221MOL   H11540155   0.579   5.758   4.096  1.0971 -0.0666 -1.3187
  221MOL   H11640156   0.619   5.480   4.195 -0.6876  0.8393  0.7886
  221MOL   H11740157   0.755   5.579   4.180 -0.2180  0.6274 -1.2389
  221MOL   H11840158   0.632   5.622   4.296  1.5114 -0.9227  1.0056
  221MOL   C11940159   0.643   5.610   3.945  0.4683 -0.6013  0.3064
  221MOL   C12040160   0.751   5.700   3.894 -0.3338 -0.3019  0.3753
  221MOL   C12140161   0.888   5.715   3.969 -0.0407 -0.6830  0.0348
  221MOL   H12240162   0.675   5.507   3.963  1.9831 -0.0749  0.7149
  221MOL   H12340163   0.558   5.612   3.877  1.0851  2.2731 -0.4366
  221MOL   H12440164   0.701   5.797   3.886  2.3218  1.3483  2.7630
  221MOL   H12540165   0.971   5.764   3.917 -0.9160 -0.4835 -1.1951
  221MOL   H12640166   0.889   5.765   4.066  1.7897 -1.4393  0.4292
  221MOL   H12740167   0.930   5.616   3.987 -0.3745 -0.1879  4.0028
  221MOL   C12840168   0.781   5.663   3.748 -0.4379  0.4002 -0.2363
  221MOL   C12940169   0.868   5.527   3.728  0.0540 -0.2713  0.8641
  221MOL   C13040170   0.817   5.459   3.599 -0.3391 -0.1095 -0.2166
  221MOL   H13140171   0.686   5.649   3.697 -0.0666 -5.2095  0.3101
  221MOL   H13240172   0.824   5.754   3.706 -0.5490  0.8125  0.5447
  221MOL   H13340173   0.839   5.469   3.816 -2.5676  1.3599  1.1288
  221MOL   H13440174   0.854   5.500   3.505 -1.0141  0.7469 -0.1183
  221MOL   H13540175   0.842   5.354   3.590 -1.3206 -0.7019  3.2233
  221MOL   H13640176   0.709   5.450   3.588 -0.4416  1.2077 -0.3629
  221MOL   C13740177   1.014   5.538   3.726 -0.3714  0.0538  0.0863
  221MOL   C13840178   1.092   5.402   3.752  0.0287  0.5696  0.4059
  221MOL   C13940179   1.229   5.423   3.691 -0.0886  0.3906 -0.4057
  221MOL   H14040180   1.039   5.581   3.629 -0.4163  0.9392  0.4550
  221MOL   H14140181   1.054   5.609   3.799 -1.8158  0.8159  0.1701
  221MOL   H14240182   1.040   5.317   3.707 -1.6159  0.9100  1.6255
  221MOL   H14340183   1.300   5.341   3.689 -1.1606 -0.6262  1.8973
  221MOL   H14440184   1.230   5.471   3.593 -1.5988 -1.5695 -1.3899
  221MOL   H14540185   1.275   5.502   3.751 -0.2777  1.4194 -1.5886
  221MOL   C14640186   1.091   5.370   3.908  0.4244  0.1351 -0.0980
  221MOL   C14740187   1.078   5.219   3.941 -0.3008 -0.5255  0.9064
  221MOL   C14840188   1.204   5.152   3.888  0.5908 -0.3042  0.9626
  221MOL   H14940189   1.178   5.421   3.951 -0.7010  0.6889  1.5808
  221MOL   H15040190   1.006   5.422   3.953  0.6557  1.7453 -1.4817
  221MOL   H15140191   0.990   5.188   3.886  0.5103  0.9212 -1.2844
  221MOL   H15240192   1.210   5.050   3.926 -0.5668 -1.3695 -1.6106
  221MOL   H15340193   1.204   5.149   3.779  0.4945  1.6139  0.9049
  221MOL   H15440194   1.288   5.207   3.929  1.1297 -1.3036  1.2093
  221MOL   C15540195   1.037   5.189   4.085 -0.1658 -0.1998  0.0397
  221MOL   C15640196   0.900   5.244   4.149 -0.7152 -0.2414 -0.1116
  221MOL   C15740197   0.779   5.216   4.066 -0.0309  0.6035 -0.1615
  221MOL   H15840198   1.030   5.081   4.098  1.6233 -0.6523 -2.3849
  221MOL   H15940199   1.122   5.219   4.147  0.1113 -0.5132 -0.1846
  221MOL   H16040200   0.923   5.350   4.154 -1.2057 -0.1727  0.6457
  221MOL   H16140201   0.784   5.227   3.957  1.8659  1.5349 -0.0104
  221MOL   H16240202   0.760   5.109   4.074  2.3047  0.1148 -0.6069
  221MOL   H16340203   0.686   5.263   4.097 -1.0554  0.4034 -2.7980
  221MOL   C16440204   0.873   5.195   4.294  0.5130  0.0782 -0.1429
  221MOL   C16540205   0.982   5.225   4.401 -0.6916  0.2092  0.6639
  221MOL   C16640206   0.997   5.385   4.407 -0.2165 -0.3344  0.6774
  221MOL   H16740207   0.781   5.245   4.325 -0.7167 -2.2167  0.0406
  221MOL   H16840208   0.863   5.086   4.293 -1.0612  0.1908  0.7486
  221MOL   H16940209   1.073   5.171   4.375 -2.4315 -1.7511 -1.6428
  221MOL   H17040210   1.070   5.421   4.479 -0.7359  0.1344  0.9722
  221MOL   H17140211   1.035   5.407   4.307 -2.5453 -0.9686 -0.3905
  221MOL   H17240212   0.897   5.427   4.411  0.1429  0.8495 -1.7706
  221MOL   C17340213   0.939   5.171   4.535  0.1350  0.1678 -0.4570
  221MOL   C17440214   1.041   5.178   4.647  0.0782 -0.2262  0.1425
  221MOL   C17540215   0.970   5.130   4.779 -0.9468 -0.1416 -0.6847
  221MOL   H17640216   0.844   5.216   4.560 -0.0133  0.7946 -2.0716
  221MOL   H17740217   0.917   5.064   4.528  0.7377  0.0060  0.0260
  221MOL   H17840218   1.091   5.274   4.658  2.2356 -1.1735 -1.2347
  221MOL   H17940219   0.896   5.205   4.807  0.3944  0.1446  2.2314
  221MOL   H18040220   0.919   5.034   4.786 -2.3188  0.6210 -0.2248
  221MOL   H18140221   1.047   5.124   4.855  0.5128 -1.5404 -2.2221
  221MOL   H18240222   1.115   5.102   4.622 -0.8506 -1.1703  0.2403
  222MOL     C140223   1.712   1.510   7.352  0.6951  0.7814  0.3234
  222MOL     C240224   1.788   1.576   7.243 -0.4937 -0.3028  0.6072
  222MOL     C340225   1.699   1.637   7.135  0.0664 -0.4218  0.2967
  222MOL     H440226   1.772   1.451   7.421  0.9637  2.7921  1.8568
  222MOL     H540227   1.642   1.438   7.309  1.1397  0.1148  0.7057
  222MOL     H640228   1.845   1.501   7.187 -1.4945 -0.6924  0.0899
  222MOL     H740229   1.752   1.687   7.054  0.3498  2.0584  1.9552
  222MOL     H840230   1.641   1.552   7.098  1.0944 -1.1638  0.3578
  222MOL     H940231   1.623   1.707   7.171 -1.4699 -2.2663  0.7276
  222MOL    H1040232   1.652   1.576   7.414 -0.5378 -1.6836  1.8460
  222MOL    C1140233   1.889   1.683   7.295  0.4664 -0.3481  0.1707
  222MOL    C1240234   1.996   1.637   7.401 -0.5771  0.5809 -0.5399
  222MOL    C1340235   2.117   1.562   7.332 -0.2151 -0.5578 -0.1564
  222MOL    H1440236   1.944   1.736   7.217  1.5393  0.5300  1.5059
  222MOL    H1540237   1.825   1.759   7.339 -1.7538 -2.2628  0.3310
  222MOL    H1640238   1.961   1.556   7.465  0.1645  0.9563  0.3587
  222MOL    H1740239   2.082   1.472   7.281  0.6875 -1.1635  0.2833
  222MOL    H1840240   2.155   1.622   7.249  1.3172 -1.3753 -0.0609
  222MOL    H1940241   2.203   1.537   7.394  0.2172 -3.4252 -1.8331
  222MOL    C2040242   2.030   1.757   7.495 -0.1137  0.0918 -0.1003
  222MOL    C2140243   1.978   1.766   7.639  0.6813 -0.4112  0.0373
  222MOL    C2240244   1.835   1.798   7.643  0.5975  0.0179  0.4652
  222MOL    H2340245   2.139   1.763   7.497 -0.0962 -0.1324 -0.4824
  222MOL    H2440246   2.003   1.851   7.446 -0.1910 -0.6927 -1.5786
  222MOL    H2540247   2.030   1.850   7.684 -1.1282 -0.0579  1.5124
  222MOL    H2640248   1.801   1.837   0.041 -2.6623 -0.5200 -0.3991
  222MOL    H2740249   1.807   1.873   7.569 -0.6162 -1.1510 -0.2769
  222MOL    H2840250   1.774   1.711   7.621  0.3515  0.4741 -0.7067
  222MOL    C2940251   2.009   1.638   0.024  0.4782  0.0209 -0.4086
  222MOL    C3040252   2.154   1.588   0.032 -0.1243  0.4223 -0.4638
  222MOL    C3140253   2.253   1.692   0.084 -0.0829 -0.0083  0.3149
  222MOL    H3240254   1.991   1.673   0.126  1.0885  1.6007 -0.8156
  222MOL    H3340255   1.946   1.555   7.691 -1.6669  2.4543 -2.9602
  222MOL    H3440256   2.187   1.578   7.626  2.6512  2.6477  0.1346
  222MOL    H3540257   2.216   1.730   0.179 -0.9538  1.7478 -0.7028
  222MOL    H3640258   2.353   1.651   0.102 -0.2170 -0.5146 -0.0795
  222MOL    H3740259   2.265   1.781   0.022  1.1070  0.1097  0.6998
  222MOL    C3840260   2.175   1.463   0.113  0.0248 -0.3679  0.4560
  222MOL    C3940261   2.113   1.333   0.057 -1.1354 -0.6937 -0.3886
  222MOL    C4040262   2.186   1.279   7.631  1.0338 -0.0764  0.0628
  222MOL    H4140263   2.283   1.447   0.115  0.2039  0.2496 -1.8833
  222MOL    H4240264   2.147   1.478   0.217  1.0066  0.5877  0.5897
  222MOL    H4340265   2.008   1.345   0.030 -1.6895 -1.3721  1.4041
  222MOL    H4440266   2.150   1.181   7.599 -1.5863  1.2103 -1.0381
  222MOL    H4540267   2.163   1.344   7.546  0.4492 -0.0405  0.2507
  222MOL    H4640268   2.294   1.259   7.630  1.3411  1.4798 -1.4805
  222MOL    C4740269   2.108   1.233   0.169 -0.2326 -0.3689  0.4226
  222MOL    C4840270   1.991   1.241   0.259 -0.3894 -0.5225  0.7427
  222MOL    C4940271   1.866   1.173   0.188  0.1259 -0.1784 -0.2509
  222MOL    H5040272   2.123   1.133   0.129 -1.4600 -1.0165  1.5754
  222MOL    H5140273   2.192   1.268   0.229 -0.3867  1.6417 -0.4886
  222MOL    H5240274   1.958   1.344   0.268  0.1235 -0.3501  0.6801
  222MOL    H5340275   1.884   1.076   0.142  4.1422 -0.8008  2.4098
  222MOL    H5440276   1.782   1.178   0.257 -0.6350  3.5013 -1.3381
  222MOL    H5540277   1.834   1.233   0.103  2.4390 -0.2162 -1.1882
  222MOL    C5640278   2.021   1.190   0.399 -0.0166  0.1199  1.0095
  222MOL    C5740279   1.901   1.205   0.494  0.7954 -0.2164 -0.7404
  222MOL    C5840280   1.921   1.117   0.619  0.2891 -0.0800 -0.8071
  222MOL    H5940281   2.045   1.084   0.399 -1.9165 -0.3328 -0.4376
  222MOL    H6040282   2.112   1.239   0.436  0.0220 -0.2173  1.3628
  222MOL    H6140283   1.809   1.160   0.456  0.0894  0.6313 -0.0677
  222MOL    H6240284   1.842   1.116   0.695  0.5721 -1.3628 -0.5178
  222MOL    H6340285   1.925   1.011   0.597 -1.5420 -0.6669  1.4791
  222MOL    H6440286   2.009   1.145   0.677 -2.0749  2.1333  1.9345
  222MOL    C6540287   1.874   1.356   0.533  0.1650 -0.3937  0.2976
  222MOL    C6640288   1.721   1.398   0.520 -0.4332  0.6750 -0.1082
  222MOL    C6740289   1.638   1.345   0.628 -0.5895 -0.6194 -0.5644
  222MOL    H6840290   1.909   1.375   0.634 -0.4708  1.3874  0.1947
  222MOL    H6940291   1.947   1.416   0.479  2.7061 -3.1052  0.5580
  222MOL    H7040292   1.690   1.351   0.426 -1.3810 -0.7314  0.8962
  222MOL    H7140293   1.542   1.318   0.585 -1.1396 -0.4523  0.5401
  222MOL    H7240294   1.672   1.250   0.671 -2.4758 -1.0012  0.1200
  222MOL    H7340295   1.613   1.418   0.705 -1.4992 -2.0032  0.4768
  222MOL    C7440296   1.721   1.555   0.510 -0.1042 -0.6531 -0.4322
  222MOL    C7540297   1.776   1.618   0.380 -0.2295  0.4953 -0.0261
  222MOL    C7640298   1.702   1.583   0.251 -0.5896  0.1784 -0.1822
  222MOL    H7740299   1.615   1.579   0.502  0.5802  1.8843 -2.4937
  222MOL    H7840300   1.775   1.597   0.595 -0.5031  1.4108 -1.1605
  222MOL    H7940301   1.878   1.587   0.359 -0.4644 -0.1224 -0.2709
  222MOL    H8040302   1.596   1.600   0.269 -0.4551 -1.3323  2.2330
  222MOL    H8140303   1.749   1.629   0.164 -0.4469 -3.3371 -2.0107
  222MOL    H8240304   1.722   1.477   0.235  0.5475  0.0967  1.5431
  222MOL    C8340305   1.781   1.773   0.399  1.3881 -0.0216 -0.5715
  222MOL    C8440306   1.906   1.827   0.473 -0.1069  0.0540 -0.5077
  222MOL    C8540307   2.029   1.801   0.387  0.4133 -0.0182 -0.1477
  222MOL    H8640308   1.772   1.823   0.302 -2.2904  2.1282  0.7456
  222MOL    H8740309   1.688   1.802   0.447  1.5141 -1.6457  0.7071
  222MOL    H8840310   1.921   1.769   0.565  3.1750 -0.5018 -1.3446
  222MOL    H8940311   2.119   1.839   0.435 -0.9658  0.6892  1.9240
  222MOL    H9040312   2.052   1.697   0.364 -0.0020  0.1561 -1.3934
  222MOL    H9140313   2.018   1.865   0.300  0.6248 -1.3707 -1.1813
  222MOL    C9240314   1.904   1.970   0.519 -0.1717 -0.2334 -0.8900
  222MOL    C9340315   1.790   2.000   0.625 -0.0928  0.6831  0.1304
  222MOL    C9440316   1.811   1.921   0.752  0.1525 -0.5717  0.3024
  222MOL    H9540317   2.003   2.005   0.550  0.6818 -2.9149 -0.4669
  222MOL    H9640318   1.881   2.021   0.426 -2.6880 -0.6204 -0.5136
  222MOL    H9740319   1.695   1.984   0.574  0.1359 -1.8867  0.4504
  222MOL    H9840320   1.916   1.920   0.780  0.9257  0.0235 -2.4503
  222MOL    H9940321   1.751   1.955   0.836  0.5454  0.1780  0.2825
  222MOL   H10040322   1.775   1.819   0.743  2.8792 -1.6558  1.1983
  222MOL   C10140323   1.785   2.149   0.647 -0.2244 -0.7928 -0.1039
  222MOL   C10240324   1.666   2.208   0.729  0.2027  0.3592  0.3502
  222MOL   C10340325   1.695   2.360   0.754 -0.2468  0.1137 -0.3771
  222MOL   H10440326   1.881   2.170   0.695 -0.4960 -0.7727  0.4299
  222MOL   H10540327   1.792   2.191   0.546 -0.1047  2.0173  1.0346
  222MOL   H10640328   1.654   2.162   0.827  0.7145 -1.8820 -0.6057
  222MOL   H10740329   1.710   2.420   0.664  1.2475  0.3662  0.0353
  222MOL   H10840330   1.605   2.394   0.805  1.6479  0.4748  2.8282
  222MOL   H10940331   1.773   2.390   0.824  0.4835 -0.2158 -1.0433
  222MOL   C11040332   1.535   2.191   0.650 -0.1446 -0.6108  0.3834
  222MOL   C11140333   1.410   2.267   0.701  0.3759  0.3417 -0.1298
  222MOL   C11240334   1.284   2.244   0.612  0.2539  0.0335 -0.8729
  222MOL   H11340335   1.567   2.227   0.552 -0.3929 -1.0927  0.1290
  222MOL   H11440336   1.501   2.088   0.649  1.7840 -1.2743  0.6292
  222MOL   H11540337   1.421   2.376   0.697  1.2423  0.2032 -1.4619
  222MOL   H11640338   1.190   2.294   0.636 -0.0461 -1.3389  0.8665
  222MOL   H11740339   1.320   2.282   0.516  0.3377  0.9579 -0.4843
  222MOL   H11840340   1.257   2.139   0.607 -0.7853  0.2437  0.1121
  222MOL   C11940341   1.383   2.238   0.854 -0.1313 -0.0816  0.2526
  222MOL   C12040342   1.275   2.324   0.928 -0.0076 -0.5855 -0.4140
  222MOL   C12140343   1.244   2.245   1.055  0.6345 -0.2877 -0.6733
  222MOL   H12240344   1.354   2.133   0.849 -5.2461  1.1990 -0.0029
  222MOL   H12340345   1.474   2.238   0.914  0.2748  1.8229 -0.3256
  222MOL   H12440346   1.185   2.325   0.866 -1.4367  1.7476  1.6004
  222MOL   H12540347   1.332   2.247   1.119 -1.9933  1.3771  3.0744
  222MOL   H12640348   1.174   2.299   1.119 -1.5091 -0.2827 -2.9622
  222MOL   H12740349   1.211   2.144   1.033  1.3370 -1.4560  3.2503
  222MOL   C12840350   1.321   2.472   0.956 -0.0028 -0.2527 -0.2328
  222MOL   C12940351   1.216   2.570   1.010  0.1721  0.0033 -0.6019
  222MOL   C13040352   1.285   2.678   1.105  0.1546 -0.0208  0.2579
  222MOL   H13140353   1.408   2.471   1.022  0.0627 -0.5840 -0.3210
  222MOL   H13240354   1.366   2.504   0.862 -0.3922  0.3325 -0.2173
  222MOL   H13340355   1.150   2.507   1.070 -0.7381  1.6585  0.1721
  222MOL   H13440356   1.220   2.747   1.158  1.3362  0.8661  0.5697
  222MOL   H13540357   1.345   2.630   1.182  3.2106 -0.8117 -2.4988
  222MOL   H13640358   1.371   2.734   1.068 -0.2228  0.7131  0.4685
  222MOL   C13740359   1.128   2.636   0.896 -0.4878  1.0607 -0.2635
  222MOL   C13840360   0.982   2.603   0.911  0.4795 -0.4346 -0.0563
  222MOL   C13940361   0.921   2.696   1.016 -0.2543 -0.3299  0.1165
  222MOL   H14040362   1.146   2.743   0.889  0.8984  0.7644 -1.4760
  222MOL   H14140363   1.169   2.607   0.799  1.1302 -1.1175  1.0285
  222MOL   H14240364   0.968   2.497   0.935 -2.2582 -0.1061 -0.0297
  222MOL   H14340365   0.954   2.672   1.117  0.4496  1.5314  0.3633
  222MOL   H14440366   0.954   2.799   1.002  0.8450 -1.0359 -2.8143
  222MOL   H14540367   0.813   2.701   1.000 -0.2418  1.5374  0.4587
  222MOL   C14640368   0.906   2.609   0.781  0.1151  0.0943 -0.1438
  222MOL   C14740369   0.918   2.497   0.666 -0.9478 -0.2557  0.0676
  222MOL   C14840370   0.862   2.360   0.709 -0.1859 -0.6666 -0.9539
  222MOL   H14940371   0.799   2.614   0.795  0.1259  0.7336 -0.2615
  222MOL   H15040372   0.922   2.708   0.739  2.1205  0.0622  0.4715
  222MOL   H15140373   1.023   2.482   0.640 -0.8371 -0.0851  0.4105
  222MOL   H15240374   0.906   2.308   0.794  0.9237 -0.2314 -1.2622
  222MOL   H15340375   0.753   2.358   0.705 -0.1792 -0.3805 -1.2942
  222MOL   H15440376   0.888   2.286   0.633  1.6652  0.5824 -1.5511
  222MOL   C15540377   0.840   2.554   0.549 -0.6574  0.1096  0.1414
  222MOL   C15640378   0.830   2.460   0.419 -0.2629  0.4084  0.7772
  222MOL   C15740379   0.737   2.529   0.322  0.2047 -0.5886  0.0967
  222MOL   H15840380   0.738   2.580   0.576  0.6970  0.7276  4.9907
  222MOL   H15940381   0.884   2.646   0.510  0.7630  0.2115  1.9156
  222MOL   H16040382   0.781   2.368   0.451 -0.5635  0.0986 -0.5712
  222MOL   H16140383   0.647   2.566   0.371 -0.4060 -1.6145 -0.2297
  222MOL   H16240384   0.788   2.614   0.277 -1.5151  0.3135 -0.2201
  222MOL   H16340385   0.702   2.454   0.251 -3.5597 -0.4364  1.6552
  222MOL   C16440386   0.969   2.418   0.361 -0.0809  0.0944 -0.1291
  222MOL   C16540387   0.974   2.339   0.227  0.2518 -0.4562  0.9963
  222MOL   C16640388   1.114   2.312   0.177  0.7197 -0.0664  0.0860
  222MOL   H16740389   1.023   2.513   0.357 -2.4135  1.4782  0.0752
  222MOL   H16840390   1.009   2.346   0.433 -0.7746 -0.5486 -0.3787
  222MOL   H16940391   0.946   2.416   0.155  1.4418 -0.8053  0.1359
  222MOL   H17040392   1.167   2.405   0.159  2.1904 -1.1289 -1.1826
  222MOL   H17140393   1.167   2.251   0.250  0.6890 -0.5170 -0.2596
  222MOL   H17240394   1.114   2.252   0.086  2.7623  0.5134 -0.3134
  222MOL   C17340395   0.873   2.226   0.219  0.5061  0.3092  0.3394
  222MOL   C17440396   0.919   2.109   0.299 -0.2217  0.4053  0.1458
  222MOL   C17540397   0.811   1.997   0.287 -0.0543 -0.4212  0.1224
  222MOL   H17640398   0.775   2.261   0.251  0.2551  0.4974 -0.6347
  222MOL   H17740399   0.868   2.192   0.115 -0.9022 -0.4586  0.6528
  222MOL   H17840400   0.928   2.141   0.403  2.8335 -0.3495  0.1425
  222MOL   H17940401   0.812   1.946   0.191 -3.5326 -1.0408  0.3192
  222MOL   H18040402   0.822   1.922   0.365 -1.3379  0.1340  0.8520
  222MOL   H18140403   0.714   2.044   0.306 -0.2384 -1.4068  1.6867
  222MOL   H18240404   1.014   2.073   0.260 -0.3811  0.4310 -0.2655
  223MOL     C140405   2.269   0.430   7.066  0.4497  0.3412  0.2290
  223MOL     C240406   2.291   0.281   7.083 -0.3801  0.5132 -0.1851
  223MOL     C340407   2.283   0.246   7.228 -0.2173 -0.0839 -0.9732
  223MOL     H440408   2.340   0.488   7.125  1.3716 -1.9309  1.3790
  223MOL     H540409   2.168   0.458   7.098  1.0036  1.4889  1.0085
  223MOL     H640410   2.391   0.263   7.045 -0.1935 -2.5695  1.5857
  223MOL     H740411   2.334   0.319   7.291 -0.2471 -0.4909 -0.4758
  223MOL     H840412   2.179   0.247   7.261 -0.5475 -0.7322 -1.9891
  223MOL     H940413   2.332   0.148   7.230 -1.2353 -0.5767  0.7735
  223MOL    H1040414   2.280   0.460   6.962 -0.5968  1.7128  0.4885
  223MOL    C1140415   2.191   0.187   7.013  0.2992  0.2941  0.5163
  223MOL    C1240416   2.188   0.191   6.856 -0.4578  0.7743 -0.8316
  223MOL    C1340417   2.300   0.114   6.798  0.5320 -0.0100  0.2716
  223MOL    H1440418   2.215   0.086   7.046  1.5954  0.6739  0.7413
  223MOL    H1540419   2.087   0.195   7.045 -0.2537  0.6957 -1.2703
  223MOL    H1640420   2.218   0.292   6.829  1.0113  0.8088  0.7565
  223MOL    H1740421   2.398   0.128   6.844  0.0609 -0.0558  1.3109
  223MOL    H1840422   2.288   0.006   6.811  0.5724  0.0884  1.1565
  223MOL    H1940423   2.323   0.150   6.698 -1.4461  0.5117 -0.0080
  223MOL    C2040424   2.047   0.168   6.787  0.9730 -0.2128 -0.1823
  223MOL    C2140425   1.958   0.290   6.795 -0.1803  0.6511  0.2501
  223MOL    C2240426   1.994   0.381   6.680  0.4144  0.1440  0.7238
  223MOL    H2340427   2.061   0.152   6.680 -0.4499  0.7291 -0.5276
  223MOL    H2440428   2.005   0.078   6.832 -0.7922 -0.3101 -1.9140
  223MOL    H2540429   1.975   0.332   6.894 -0.1966  0.7851  0.1953
  223MOL    H2640430   1.949   0.343   6.588  0.3859  2.2834 -0.1758
  223MOL    H2740431   1.954   0.481   6.696  0.3518 -0.1261  2.2719
  223MOL    H2840432   2.101   0.381   6.659  0.3700  0.1829  0.4992
  223MOL    C2940433   1.809   0.244   6.775  0.2101 -0.8384 -0.2161
  223MOL    C3040434   1.705   0.365   6.783 -0.4272  0.3414 -0.0741
  223MOL    C3140435   1.576   0.336   6.708  0.7818 -0.1933 -0.0504
  223MOL    H3240436   1.798   0.209   6.672 -1.4327  0.3336 -0.4733
  223MOL    H3340437   1.782   0.167   6.847  0.6458 -2.0153 -1.2898
  223MOL    H3440438   1.735   0.450   6.721  1.0751  0.6710  1.0638
  223MOL    H3540439   1.496   0.403   6.740  1.7214 -0.3818  2.7588
  223MOL    H3640440   1.592   0.337   6.600 -1.6353 -3.4793 -0.5121
  223MOL    H3740441   1.550   0.230   6.719  0.2165 -0.0012  0.5050
  223MOL    C3840442   1.673   0.402   6.931  0.0529  0.1234  0.3680
  223MOL    C3940443   1.613   0.544   6.968 -0.8867 -0.7755 -0.1390
  223MOL    C4040444   1.522   0.532   7.086 -0.0014  0.0806  0.3604
  223MOL    H4140445   1.626   0.315   6.977  1.3851 -0.8415 -0.0494
  223MOL    H4240446   1.764   0.392   6.989  0.4163  0.3337 -0.1634
  223MOL    H4340447   1.554   0.575   6.882  0.6986  0.2953 -0.8682
  223MOL    H4440448   1.457   0.446   7.070  1.4886 -1.0203  0.0918
  223MOL    H4540449   1.576   0.514   7.179  0.0137 -0.5295  0.2397
  223MOL    H4640450   1.455   0.616   7.102  0.1846  0.4675 -0.8549
  223MOL    C4740451   1.734   0.637   7.016  0.1876  0.8647  0.7245
  223MOL    C4840452   1.838   0.688   6.914 -0.0156 -0.6064  0.4218
  223MOL    C4940453   1.774   0.763   6.795  0.1012 -0.3624  0.9180
  223MOL    H5040454   1.697   0.732   7.055  0.5957  1.3382 -0.0229
  223MOL    H5140455   1.795   0.595   7.096 -1.2581 -2.1290  0.3040
  223MOL    H5240456   1.875   0.592   6.877  2.3331  0.0731  0.9599
  223MOL    H5340457   1.848   0.782   6.718 -1.4293  0.6223 -0.3500
  223MOL    H5440458   1.699   0.704   6.741 -1.0715  2.2200 -0.3920
  223MOL    H5540459   1.722   0.857   6.815 -2.2509 -0.8957 -2.1963
  223MOL    C5640460   1.946   0.771   6.984  0.1332  0.2168  0.0941
  223MOL    C5740461   2.059   0.829   6.888 -0.1324 -0.2411  0.2337
  223MOL    C5840462   2.184   0.888   6.963 -0.4926 -0.0814 -0.3950
  223MOL    H5940463   1.902   0.857   7.033  0.1060  0.0573  0.3528
  223MOL    H6040464   2.009   0.710   7.050  0.8928 -0.7977 -1.5263
  223MOL    H6140465   2.014   0.913   6.836  1.8624  0.4770 -0.4021
  223MOL    H6240466   2.244   0.956   6.902 -1.1600  0.5593 -0.3492
  223MOL    H6340467   2.154   0.950   7.048  0.2222 -2.6664  1.7882
  223MOL    H6440468   2.248   0.808   6.998 -0.9853  0.2462  1.3058
  223MOL    C6540469   2.125   0.720   6.789  0.6410  1.1282  0.3443
  223MOL    C6640470   2.242   0.754   6.694 -0.1886 -0.6106  0.0048
  223MOL    C6740471   2.293   0.627   6.628  0.4111  0.5605 -0.1069
  223MOL    H6840472   2.154   0.634   6.850  1.1739  2.5547  2.1706
  223MOL    H6940473   2.044   0.699   6.720  2.6182  1.5437 -2.1586
  223MOL    H7040474   2.323   0.804   6.747 -2.7574  0.2918  3.2495
  223MOL    H7140475   2.378   0.645   6.563 -0.0780  0.5212 -0.7553
  223MOL    H7240476   2.325   0.548   6.697 -1.5025  0.3101  0.5384
  223MOL    H7340477   2.214   0.586   6.566  0.7983  0.1685 -0.3435
  223MOL    C7440478   2.203   0.871   6.601  0.0662  0.0242  0.3709
  223MOL    C7540479   2.309   0.923   6.497 -0.6642 -0.3228  0.0811
  223MOL    C7640480   2.240   0.995   6.384  0.1652 -0.1013  0.4665
  223MOL    H7740481   2.111   0.850   6.546 -0.6441 -2.0977  2.2835
  223MOL    H7840482   2.170   0.957   6.658  1.0970  0.5672  0.1633
  223MOL    H7940483   2.349   0.836   6.445 -0.0671  0.5015 -0.8529
  223MOL    H8040484   2.309   1.021   6.304  0.9667  1.8306  1.7542
  223MOL    H8140485   2.154   0.941   6.344 -1.0060 -0.1079  2.9364
  223MOL    H8240486   2.197   1.088   6.421 -1.3195 -0.8171  0.5724
  223MOL    C8340487   2.423   1.007   6.550  0.3905 -0.3488  0.0432
  223MOL    C8440488   2.563   0.986   6.486  0.5300 -0.2411  0.0972
  223MOL    C8540489   2.640   1.108   6.451 -0.0175 -0.2451 -0.5661
  223MOL    H8640490   2.391   1.109   6.529 -0.9730 -1.0083 -1.1945
  223MOL    H8740491   2.430   1.013   6.658 -1.4221  1.2374  0.0953
  223MOL    H8840492   2.552   0.930   6.393 -0.2531  0.4908 -0.2642
  223MOL    H8940493   2.688   1.154   6.537  0.3133  1.2569 -1.5398
  223MOL    H9040494   2.726   1.079   6.391  0.4125 -0.4689  0.1601
  223MOL    H9140495   2.577   1.182   6.400 -0.1078  0.2478  0.2612
  223MOL    C9240496   2.639   0.894   6.577 -0.2650  0.2117  0.8129
  223MOL    C9340497   2.794   0.863   6.562  0.0157 -0.1323  0.5187
  223MOL    C9440498   2.850   0.798   6.687 -0.8879  0.1561  0.0553
  223MOL    H9540499   2.631   0.936   6.678  2.3191  2.8510 -0.0318
  223MOL    H9640500   2.598   0.793   6.577  0.6057 -0.1766  3.0023
  223MOL    H9740501   2.855   0.953   6.555 -0.4665  0.0136 -2.4107
  223MOL    H9840502   2.958   0.788   6.678 -1.0671 -1.1303 -0.9499
  223MOL    H9940503   2.823   0.853   6.776 -0.4565 -2.0233  1.5845
  223MOL   H10040504   2.806   0.698   6.689  2.7337 -1.5240  0.8380
  223MOL   C10140505   2.824   0.777   6.438 -0.4638  0.5094  0.4204
  223MOL   C10240506   2.970   0.801   6.390 -0.4453  0.2708  0.9969
  223MOL   C10340507   2.997   0.677   6.302 -0.1597 -0.1550  0.0112
  223MOL   H10440508   2.805   0.676   6.474  0.6949  0.3603  0.6526
  223MOL   H10540509   2.755   0.781   6.354 -0.5772  0.0994  0.4922
  223MOL   H10640510   3.034   0.789   6.478  0.5122 -0.9274  0.1512
  223MOL   H10740511   3.097   0.665   6.262  0.4786  1.8974  0.9054
  223MOL   H10840512   2.974   0.580   6.347  0.0043  0.6035  1.7694
  223MOL   H10940513   2.935   0.682   6.213 -1.5543 -0.9034  0.9209
  223MOL   C11040514   3.005   0.931   6.312 -0.5481 -0.6646 -0.2325
  223MOL   C11140515   3.157   0.938   6.277 -0.6476 -0.2496 -0.0542
  223MOL   C11240516   3.176   0.965   6.123 -0.2579  0.6821  0.0813
  223MOL   H11340517   2.939   0.944   6.226 -2.3444 -1.2110  1.0238
  223MOL   H11440518   2.986   1.022   6.369  1.0194  0.2691 -1.1612
  223MOL   H11540519   3.207   0.844   6.304  0.7123  0.5380  0.2463
  223MOL   H11640520   3.280   0.949   6.095 -0.2159  0.9512  0.0860
  223MOL   H11740521   3.119   0.893   6.063  0.6976 -0.8560  0.9985
  223MOL   H11840522   3.158   1.068   6.092 -2.2460  1.1457  2.6058
  223MOL   C11940523   3.213   1.057   6.363  0.5770  0.2319  0.7883
  223MOL   C12040524   3.245   1.023   6.516  0.0678 -0.1906  0.0765
  223MOL   C12140525   3.361   0.922   6.535 -0.1208  0.3242 -0.5829
  223MOL   H12240526   3.302   1.099   6.316  0.0295  1.3654  0.7393
  223MOL   H12340527   3.139   1.137   6.360 -1.0803 -1.3138 -1.8606
  223MOL   H12440528   3.154   0.979   6.558  0.5188 -2.2693 -1.0768
  223MOL   H12540529   3.384   0.904   6.640  1.6583  1.1231 -0.8158
  223MOL   H12640530   3.320   0.831   6.491 -0.6949  0.4692 -0.3632
  223MOL   H12740531   3.454   0.958   6.492 -0.7518  2.1218 -0.5180
  223MOL   C12840532   3.277   1.156   6.592  0.5305 -0.2365 -0.2018
  223MOL   C12940533   3.173   1.276   6.591 -0.3159 -0.0932 -0.6283
  223MOL   C13040534   3.029   1.221   6.616 -0.4600  0.2729  0.4473
  223MOL   H13140535   3.297   1.136   6.697 -0.0334 -4.1737 -0.7767
  223MOL   H13240536   3.371   1.191   6.548  0.3552  0.0050 -0.3823
  223MOL   H13340537   3.165   1.309   6.487 -1.8370 -0.4161 -0.6162
  223MOL   H13440538   2.992   1.178   6.523 -1.1547 -2.2389  1.8232
  223MOL   H13540539   3.024   1.152   6.701 -0.4637  0.0372  0.2582
  223MOL   H13640540   2.958   1.299   6.641  0.8024  1.1675  1.2960
  223MOL   C13740541   3.214   1.391   6.684 -0.2174  0.4234 -0.0606
  223MOL   C13840542   3.316   1.496   6.630 -0.4367 -0.5814 -0.1070
  223MOL   C13940543   3.243   1.626   6.596  0.2545 -0.2157 -0.2993
  223MOL   H14040544   3.120   1.440   6.710 -0.3908  0.8758 -1.5260
  223MOL   H14140545   3.250   1.337   6.772 -0.8642  0.8326  0.4635
  223MOL   H14240546   3.363   1.447   6.545  0.7364 -2.3501  1.5480
  223MOL   H14340547   3.211   1.682   6.684  2.1416  0.2178  0.1462
  223MOL   H14440548   3.305   1.693   6.536  0.1623 -0.2863 -0.4743
  223MOL   H14540549   3.159   1.607   6.530  0.6967  1.2062 -1.2811
  223MOL   C14640550   3.412   1.532   6.740 -0.0872 -0.4743  0.1364
  223MOL   C14740551   3.513   1.640   6.712  0.0379 -0.1597  0.4013
  223MOL   C14840552   3.578   1.694   6.844  0.1442 -0.9049 -0.2132
  223MOL   H14940553   3.340   1.571   6.812  0.4002  0.9534 -0.1271
  223MOL   H15040554   3.457   1.448   6.793 -0.1683 -0.0795  0.8401
  223MOL   H15140555   3.464   1.728   6.670  1.1001 -0.5322 -1.7274
  223MOL   H15240556   3.634   1.615   6.894  2.2486  1.0661  0.5945
  223MOL   H15340557   3.643   1.775   6.812 -0.2331 -0.5461 -0.0846
  223MOL   H15440558   3.500   1.739   6.906  2.3157 -1.0279  2.6826
  223MOL   C15540559   3.625   1.592   6.614  0.6053 -0.3754 -0.1487
  223MOL   C15640560   3.707   1.696   6.534  0.2516  0.0609 -0.0301
  223MOL   C15740561   3.845   1.642   6.506 -0.0608 -0.3181 -0.7425
  223MOL   H15840562   3.689   1.519   6.664 -1.6063 -2.3815 -0.1481
  223MOL   H15940563   3.561   1.541   6.543  1.0180 -1.5529  0.3194
  223MOL   H16040564   3.731   1.784   6.593  0.1115 -0.5176  0.8960
  223MOL   H16140565   3.913   1.708   6.452 -1.6308  1.0306 -1.1500
  223MOL   H16240566   3.886   1.611   6.601  0.0321  1.5279 -0.1616
  223MOL   H16340567   3.848   1.551   6.445  0.6865 -0.9932  0.2887
  223MOL   C16440568   3.626   1.755   6.410 -0.2050 -0.1512  0.1855
  223MOL   C16540569   3.678   1.886   6.344  0.7807  0.0863  0.3294
  223MOL   C16640570   3.699   1.853   6.192  0.6229 -0.5274  0.9127
  223MOL   H16740571   3.630   1.672   6.340  1.4873  0.5607 -0.5773
  223MOL   H16840572   3.520   1.766   6.435  0.0789  1.7143  0.6599
  223MOL   H16940573   3.781   1.901   6.376  0.7276  2.6968 -0.6614
  223MOL   H17040574   3.626   1.788   6.142  0.4380  0.3478  0.0352
  223MOL   H17140575   3.704   1.940   6.127 -0.3425 -2.3447 -1.6969
  223MOL   H17240576   3.790   1.795   6.180  1.3293  1.0505 -1.9635
  223MOL   C17340577   3.602   2.022   6.365  0.4066 -0.1466 -0.3757
  223MOL   C17440578   3.582   2.060   6.511  0.1170  0.0764  0.0268
  223MOL   C17540579   3.471   2.163   6.532 -0.3412 -0.3679  0.1289
  223MOL   H17640580   3.656   2.101   6.312  0.2520 -0.7337 -1.4080
  223MOL   H17740581   3.502   2.022   6.321 -0.1630 -1.1984  0.8870
  223MOL   H17840582   3.674   2.094   6.560 -0.2665 -1.3900  1.8605
  223MOL   H17940583   3.379   2.107   6.515  0.3241 -1.5804  0.5099
  223MOL   H18040584   3.474   2.198   6.635  0.7242 -1.5171  0.5025
  223MOL   H18140585   3.474   2.240   6.455  2.6067  1.2137  1.7199
  223MOL   H18240586   3.557   1.975   6.576  0.0490  1.5914  2.0188
  224MOL     C140587   0.811   4.243   6.511  0.0742  0.1898  0.4151
  224MOL     C240588   0.853   4.287   6.367  0.9187 -0.3739  0.6820
  224MOL     C340589   0.735   4.338   6.291 -0.0552 -0.2013  0.5597
  224MOL     H440590   0.754   4.318   6.567 -2.0676 -0.5844 -0.6413
  224MOL     H540591   0.900   4.205   6.561  0.4926 -1.4667 -1.5245
  224MOL     H640592   0.896   4.202   6.313 -0.5271 -0.2134 -0.7589
  224MOL     H740593   0.665   4.258   6.265  0.1999 -0.6277  1.1748
  224MOL     H840594   0.687   4.426   6.334  0.7904  0.3893  0.3123
  224MOL     H940595   0.766   4.377   6.194  2.0975  0.2965  1.4303
  224MOL    H1040596   0.737   4.164   6.496 -0.3235  0.5243  0.6042
  224MOL    C1140597   0.953   4.408   6.372  0.0439 -0.9698  0.1365
  224MOL    C1240598   1.088   4.379   6.436  0.5491 -0.0990 -0.3388
  224MOL    C1340599   1.153   4.258   6.372 -0.0132  0.1896 -0.1430
  224MOL    H1440600   0.964   4.450   6.272  3.2536  1.2005  1.3291
  224MOL    H1540601   0.903   4.485   6.431 -1.4289 -0.9897 -1.0439
  224MOL    H1640602   1.070   4.353   6.541  0.5284 -1.4155 -0.6496
  224MOL    H1740603   1.256   4.241   6.403  0.0016 -0.1024 -0.3486
  224MOL    H1840604   1.097   4.168   6.399  1.2031  0.5163  3.7538
  224MOL    H1940605   1.129   4.263   6.265 -3.4488 -0.8934  0.5183
  224MOL    C2040606   1.179   4.502   6.430  1.2103 -0.0402  0.7323
  224MOL    C2140607   1.143   4.612   6.521  0.7551  0.1779  0.2581
  224MOL    C2240608   1.114   4.571   6.667  0.0800 -0.6198  0.4853
  224MOL    H2340609   1.279   4.465   6.450  1.7818  0.1994 -1.5054
  224MOL    H2440610   1.182   4.551   6.332 -1.1245  0.3925  0.8615
  224MOL    H2540611   1.044   4.648   6.492  0.4453  1.7367  3.0268
  224MOL    H2640612   1.094   4.662   6.725  0.8826 -1.2961  1.8751
  224MOL    H2740613   1.041   4.492   6.684  0.5257 -1.2237 -0.3994
  224MOL    H2840614   1.205   4.530   6.711  0.4612  1.6232  1.9260
  224MOL    C2940615   1.250   4.722   6.518 -0.0689  0.1405 -0.2622
  224MOL    C3040616   1.255   4.810   6.390  0.0702 -0.1680 -0.8226
  224MOL    C3140617   1.117   4.867   6.342  0.4929  0.1317 -0.1632
  224MOL    H3240618   1.227   4.787   6.603  1.9131  1.0050 -0.3653
  224MOL    H3340619   1.350   4.682   6.533  0.8294  2.5007  0.3516
  224MOL    H3440620   1.290   4.749   6.306 -0.0025  0.0748 -1.0281
  224MOL    H3540621   1.037   4.797   6.317  1.4865 -1.2868  0.5877
  224MOL    H3640622   1.076   4.926   6.423 -0.8620  1.9698 -2.1227
  224MOL    H3740623   1.111   4.931   6.254 -0.5560  1.3195  0.7645
  224MOL    C3840624   1.364   4.926   6.405  0.3776 -0.5979 -0.3084
  224MOL    C3940625   1.514   4.892   6.399  0.3645  0.1291  0.2495
  224MOL    C4040626   1.572   4.869   6.253  0.1718  0.7196  0.2783
  224MOL    H4140627   1.346   5.005   6.333 -1.0228 -0.4596  0.1799
  224MOL    H4240628   1.335   4.968   6.502 -1.6616  0.8498 -1.5230
  224MOL    H4340629   1.532   4.799   6.453  2.4327  1.2212  1.5010
  224MOL    H4440630   1.681   4.865   6.253  0.0877 -3.4602  1.9086
  224MOL    H4540631   1.522   4.791   6.196  0.0982  0.6067  0.4965
  224MOL    H4640632   1.542   4.955   6.193 -1.3835  0.4440  0.6359
  224MOL    C4740633   1.595   5.008   6.469 -0.1669  0.1902 -0.7099
  224MOL    C4840634   1.745   4.978   6.495 -0.1676  1.0035  0.0337
  224MOL    C4940635   1.830   5.084   6.564  0.0447  0.2768 -0.0490
  224MOL    H5040636   1.587   5.101   6.412 -1.7013  0.3994 -0.1895
  224MOL    H5140637   1.553   5.024   6.569  2.5595  1.2089  0.2979
  224MOL    H5240638   1.791   4.981   6.396 -0.5205  1.4152 -0.1187
  224MOL    H5340639   1.934   5.053   6.564 -0.4977 -1.5959 -0.4330
  224MOL    H5440640   1.823   5.179   6.511  2.0601  0.7996  0.5966
  224MOL    H5540641   1.802   5.101   6.668 -1.2462  1.5961 -0.5915
  224MOL    C5640642   1.775   4.838   6.567  0.2330  0.1487 -0.0977
  224MOL    C5740643   1.836   4.719   6.482  0.2799 -0.1126 -0.3436
  224MOL    C5840644   1.978   4.747   6.443  0.2430  0.4012 -0.1227
  224MOL    H5940645   1.851   4.850   6.645 -1.0335 -1.5331  1.4611
  224MOL    H6040646   1.680   4.813   6.615  0.3051 -1.6211 -0.8464
  224MOL    H6140647   1.777   4.729   6.391 -0.0307  1.0838 -0.0226
  224MOL    H6240648   1.993   4.820   6.363  0.7275 -0.2502 -0.6220
  224MOL    H6340649   2.044   4.792   6.517  0.2270 -0.1087  0.2081
  224MOL    H6440650   2.022   4.661   6.394  1.4610  0.5293  0.7269
  224MOL    C6540651   1.816   4.582   6.548  0.9355 -0.9099  0.3421
  224MOL    C6640652   1.837   4.572   6.695 -0.0085 -0.6250  0.1457
  224MOL    C6740653   1.763   4.447   6.755 -0.6015 -0.3279  0.4256
  224MOL    H6840654   1.714   4.555   6.520  1.1243 -2.8388  1.4627
  224MOL    H6940655   1.881   4.512   6.495  1.4293 -0.6631  0.6161
  224MOL    H7040656   1.781   4.655   6.738  2.4185  0.1010  1.9882
  224MOL    H7140657   1.801   4.356   6.708 -0.7124 -0.4679  0.6049
  224MOL    H7240658   1.761   4.446   6.864 -2.8971  0.3906  0.4121
  224MOL    H7340659   1.659   4.451   6.723 -0.4265 -0.1051 -0.1193
  224MOL    C7440660   1.980   4.594   6.752 -0.0251 -0.2132  1.0691
  224MOL    C7540661   2.100   4.512   6.706 -0.4194  0.2331  0.2489
  224MOL    C7640662   2.227   4.593   6.696 -0.5378  0.6501 -0.2386
  224MOL    H7740663   2.015   4.696   6.733  3.9483 -2.0744 -2.2112
  224MOL    H7840664   1.967   4.603   6.859  0.4491  0.7734  1.0518
  224MOL    H7940665   2.070   4.479   6.606 -0.0456 -2.5630  1.0186
  224MOL    H8040666   2.214   4.690   6.647  0.2787  2.0627  2.2641
  224MOL    H8140667   2.271   4.612   6.794 -1.4167 -0.2906  0.3431
  224MOL    H8240668   2.314   4.544   6.651  0.1211  1.5389  0.0493
  224MOL    C8340669   2.110   4.374   6.781 -0.2320  0.3033  0.5538
  224MOL    C8440670   2.180   4.264   6.698  0.2787 -0.7155 -0.1026
  224MOL    C8540671   2.229   4.161   6.791  0.1029 -0.0980 -0.3391
  224MOL    H8640672   2.162   4.399   6.874 -0.7290 -1.1422  1.2520
  224MOL    H8740673   2.011   4.341   6.813 -0.6860  0.9413 -0.1968
  224MOL    H8840674   2.258   4.315   6.642  0.6960  0.3915  1.4680
  224MOL    H8940675   2.276   4.080   6.736  0.1460  0.3807 -1.0058
  224MOL    H9040676   2.288   4.208   6.870 -2.8196  0.3711  1.6640
  224MOL    H9140677   2.140   4.118   6.839  0.0658 -0.0520 -0.3675
  224MOL    C9240678   2.089   4.200   6.590 -0.0538  0.8952 -0.3208
  224MOL    C9340679   2.143   4.092   6.493 -0.3988  0.1869  0.1695
  224MOL    C9440680   2.025   4.052   6.399 -0.0807 -0.3382  0.5842
  224MOL    H9540681   2.006   4.163   6.650  0.7253 -0.6722 -0.1945
  224MOL    H9640682   2.043   4.281   6.533 -1.8611 -1.6552 -2.6111
  224MOL    H9740683   2.181   4.012   6.555  0.1940  1.5516  1.5948
  224MOL    H9840684   2.042   3.968   6.332 -0.7859 -0.8645  1.0620
  224MOL    H9940685   1.929   4.031   6.446 -1.3495  0.0013 -1.7693
  224MOL   H10040686   1.997   4.135   6.334 -0.9260 -0.6986  0.4790
  224MOL   C10140687   2.268   4.139   6.418  0.3808 -0.2012  0.3059
  224MOL   C10240688   2.354   4.021   6.365  0.0332  0.3005  0.2776
  224MOL   C10340689   2.435   4.060   6.238  0.4951  0.2442 -0.1603
  224MOL   H10440690   2.233   4.199   6.334  0.3687  1.2413  1.3243
  224MOL   H10540691   2.321   4.203   6.488 -0.6160 -0.1335  1.0021
  224MOL   H10640692   2.288   3.942   6.329 -0.0899  1.3674 -1.8811
  224MOL   H10740693   2.493   3.980   6.190 -1.3885 -0.2861 -1.6402
  224MOL   H10840694   2.380   4.117   6.163  0.7242 -0.7028 -1.0752
  224MOL   H10940695   2.520   4.126   6.253  0.2921  0.2880  0.7817
  224MOL   C11040696   2.446   3.963   6.478  0.0790  0.8201 -0.1735
  224MOL   C11140697   2.497   3.822   6.449  0.2454  0.4064  0.2004
  224MOL   C11240698   2.638   3.798   6.500  0.7660 -0.1919  0.3952
  224MOL   H11340699   2.529   4.034   6.481  0.1523  0.7334 -0.1581
  224MOL   H11440700   2.397   3.957   6.575 -0.4638 -1.1452 -0.5497
  224MOL   H11540701   2.513   3.805   6.342 -2.5346 -0.7984 -0.0605
  224MOL   H11640702   2.642   3.792   6.608 -2.6607  1.4985  0.7071
  224MOL   H11740703   2.674   3.706   6.454 -0.7822 -1.1472  1.0418
  224MOL   H11840704   2.712   3.870   6.465 -0.3746  0.3886 -0.9089
  224MOL   C11940705   2.410   3.719   6.513 -0.1729  0.6203  0.1259
  224MOL   C12040706   2.269   3.693   6.445  0.0406  0.0194 -0.1717
  224MOL   C12140707   2.285   3.650   6.303 -0.0178 -0.1076  0.2690
  224MOL   H12240708   2.465   3.625   6.520 -0.1164  0.4859 -1.8681
  224MOL   H12340709   2.389   3.746   6.616  2.3850 -1.0399  1.1166
  224MOL   H12440710   2.204   3.779   6.436 -0.8798 -0.4894  1.3696
  224MOL   H12540711   2.193   3.627   6.249  0.6728 -0.8895 -0.6000
  224MOL   H12640712   2.335   3.719   6.235 -0.7936  0.1331 -0.0532
  224MOL   H12740713   2.349   3.561   6.302  0.0104 -0.0904  0.5869
  224MOL   C12840714   2.194   3.586   6.526  0.4754 -0.2589  0.2698
  224MOL   C12940715   2.154   3.602   6.672 -0.1139  0.6757 -0.5705
  224MOL   C13040716   2.060   3.731   6.682 -0.9801 -0.2277  0.2420
  224MOL   H13140717   2.105   3.560   6.468 -0.4490  1.4827  0.8673
  224MOL   H13240718   2.253   3.494   6.526  2.9823  1.3141  0.6651
  224MOL   H13340719   2.245   3.629   6.724  0.7408 -1.2203 -1.0539
  224MOL   H13440720   2.117   3.822   6.664 -0.4992 -0.4639  0.5556
  224MOL   H13540721   1.981   3.726   6.606 -1.0635 -2.1695  0.4234
  224MOL   H13640722   2.011   3.744   6.778  0.4509 -2.4487  1.3133
  224MOL   C13740723   2.078   3.474   6.726 -0.4265  0.2356 -0.0285
  224MOL   C13840724   2.151   3.336   6.732  0.0857 -0.2726  0.2428
  224MOL   C13940725   2.283   3.340   6.808  0.3520 -0.0993  0.4033
  224MOL   H14040726   2.047   3.500   6.827  0.1887  2.0706 -0.2960
  224MOL   H14140727   1.986   3.466   6.667 -0.1360 -0.0220 -0.4518
  224MOL   H14240728   2.170   3.324   6.626  1.1028  0.7863  0.3008
  224MOL   H14340729   2.268   3.349   6.915 -1.0794  0.3882  0.1797
  224MOL   H14440730   2.341   3.252   6.782  3.6263  2.0913 -0.0214
  224MOL   H14540731   2.348   3.426   6.790 -0.7133  0.2792 -1.7990
  224MOL   C14640732   2.063   3.211   6.769  0.7703  0.4667  0.0064
  224MOL   C14740733   1.919   3.199   6.712  0.7752  0.3800  0.8153
  224MOL   C14840734   1.923   3.202   6.556 -0.3436  0.9468  0.2152
  224MOL   H14940735   2.123   3.123   6.747 -0.0458 -0.6490  2.0956
  224MOL   H15040736   2.061   3.201   6.877  1.5321 -1.4048 -0.1234
  224MOL   H15140737   1.861   3.285   6.747  0.6755  0.0879  1.3838
  224MOL   H15240738   1.824   3.193   6.512  0.4648 -1.4876 -1.2017
  224MOL   H15340739   1.971   3.294   6.523  0.9011  0.8120  1.5632
  224MOL   H15440740   1.981   3.122   6.510 -0.4165  0.6439  0.6398
  224MOL   C15540741   1.848   3.072   6.769 -0.6454 -0.0292 -0.0223
  224MOL   C15640742   1.761   3.083   6.898  0.1407 -0.5340 -0.6924
  224MOL   C15740743   1.687   2.954   6.923 -0.5650 -0.7141  0.2309
  224MOL   H15840744   1.776   3.045   6.692  0.6316 -0.2012 -1.1865
  224MOL   H15940745   1.915   2.986   6.777 -2.2598 -1.7412 -3.7086
  224MOL   H16040746   1.692   3.166   6.884 -0.5407 -1.0331 -0.3292
  224MOL   H16140747   1.611   2.936   6.846  0.6933  1.1625 -1.4969
  224MOL   H16240748   1.746   2.863   6.914 -0.8610 -0.7591 -1.5148
  224MOL   H16340749   1.623   2.947   7.011 -1.5435 -1.8920 -0.5499
  224MOL   C16440750   1.847   3.111   7.028  0.0082 -0.0480 -0.2750
  224MOL   C16540751   1.868   3.257   7.066  0.4623  0.3341  0.3005
  224MOL   C16640752   1.740   3.316   7.132 -0.2257  0.0864  0.4175
  224MOL   H16740753   1.801   3.060   7.113 -1.2279 -0.0523 -0.9388
  224MOL   H16840754   1.939   3.054   7.014 -0.5577 -1.3036  0.9744
  224MOL   H16940755   1.886   3.310   6.973 -0.6462  1.4992  0.7339
  224MOL   H17040756   1.744   3.423   7.155 -2.3354 -0.0085  1.4011
  224MOL   H17140757   1.659   3.315   7.059 -0.3175 -0.2592  0.5245
  224MOL   H17240758   1.701   3.257   7.216 -2.5408 -0.0005 -0.6715
  224MOL   C17340759   1.988   3.269   7.165 -0.0446 -0.2569  0.0715
  224MOL   C17440760   2.070   3.403   7.189  0.1197 -0.0064 -0.3219
  224MOL   C17540761   2.146   3.406   7.322  0.1040  0.1098  0.1595
  224MOL   H17640762   1.945   3.233   7.258  3.4053  1.7555  2.5683
  224MOL   H17740763   2.068   3.196   7.149  0.9401  0.3340  2.2109
  224MOL   H17840764   2.001   3.487   7.188 -0.5830 -0.5784 -0.0726
  224MOL   H17940765   2.210   3.319   7.336  2.1378  1.1060 -2.4980
  224MOL   H18040766   2.209   3.495   7.323  1.0088 -0.4738 -2.1782
  224MOL   H18140767   2.074   3.403   7.404  0.9849 -0.8804  0.9166
  224MOL   H18240768   2.135   3.425   7.104 -0.4220 -0.4857 -0.8592
  225MOL     C140769   2.356   2.506   3.801  0.0387 -0.1608  0.0462
  225MOL     C240770   2.429   2.452   3.931  0.0804 -0.6843  0.4275
  225MOL     C340771   2.509   2.556   4.005  0.0185 -0.3418  0.0412
  225MOL     H440772   2.270   2.572   3.817 -0.6345 -1.0674  0.2160
  225MOL     H540773   2.329   2.425   3.732 -1.3368  0.3190  0.0021
  225MOL     H640774   2.512   2.386   3.904 -0.1241 -0.8738  0.2628
  225MOL     H740775   2.563   2.538   4.098  2.1481  2.6401 -0.5391
  225MOL     H840776   2.583   2.598   3.935 -0.7548 -0.9250 -1.1361
  225MOL     H940777   2.449   2.644   4.029 -0.7046  0.0181 -2.9143
  225MOL    H1040778   2.429   2.562   3.744  0.7471 -0.7464  0.3757
  225MOL    C1140779   2.340   2.380   4.032 -0.4266 -0.2546  0.5649
  225MOL    C1240780   2.248   2.263   3.973 -1.1717  0.1408 -0.3506
  225MOL    C1340781   2.344   2.151   3.918 -0.2388 -0.0831  0.7509
  225MOL    H1440782   2.411   2.346   4.107 -1.4707 -0.6835  1.3791
  225MOL    H1540783   2.278   2.452   4.086 -0.4696  1.2927 -1.4665
  225MOL    H1640784   2.195   2.307   3.888  1.2301  2.1163 -0.8861
  225MOL    H1740785   2.413   2.127   3.999  1.9192 -1.8121 -1.5188
  225MOL    H1840786   2.287   2.061   3.897  0.8227 -0.5128 -0.3399
  225MOL    H1940787   2.390   2.192   3.828 -0.7502 -0.3362  0.3734
  225MOL    C2040788   2.151   2.215   4.079 -0.3327  0.3347  0.3871
  225MOL    C2140789   2.025   2.297   4.114 -0.0262 -0.5431 -0.2735
  225MOL    C2240790   1.929   2.316   3.998 -0.6102  0.1605 -0.3574
  225MOL    H2340791   2.118   2.113   4.058 -2.4002  0.7588  1.4130
  225MOL    H2440792   2.209   2.212   4.171  1.5959  1.7611 -0.7512
  225MOL    H2540793   2.054   2.394   4.155 -0.4192 -0.9107  0.8794
  225MOL    H2640794   1.845   2.378   4.029  0.2666 -0.5352  3.6670
  225MOL    H2740795   1.986   2.373   3.924  0.1675 -0.6418 -0.3849
  225MOL    H2840796   1.892   2.219   3.965  1.5056 -0.5394 -0.7538
  225MOL    C2940797   1.940   2.234   4.223  0.2097  0.2394 -0.1589
  225MOL    C3040798   1.996   2.196   4.364  0.3103 -0.2009  0.7472
  225MOL    C3140799   2.011   2.320   4.452  0.4426 -0.4634  0.2861
  225MOL    H3240800   1.865   2.309   4.248 -1.7049 -1.4343 -0.7489
  225MOL    H3340801   1.889   2.148   4.179 -2.3882  2.3965 -1.5636
  225MOL    H3440802   2.088   2.140   4.351  0.2070 -0.3782  0.7808
  225MOL    H3540803   1.921   2.380   4.433  0.5810 -0.0822  0.8393
  225MOL    H3640804   2.004   2.285   4.555 -2.1365  0.8553  0.6163
  225MOL    H3740805   2.094   2.388   4.433 -1.2936  1.8198  0.7089
  225MOL    C3840806   1.895   2.098   4.430 -0.1648 -0.2366  1.2863
  225MOL    C3940807   1.912   1.949   4.409  0.5676 -0.0270  0.8383
  225MOL    C4040808   2.040   1.896   4.474 -0.5681 -0.3429 -0.6126
  225MOL    H4140809   1.888   2.120   4.537 -1.9641 -0.2605  1.1901
  225MOL    H4240810   1.796   2.126   4.393 -0.1392 -1.3203  0.3808
  225MOL    H4340811   1.916   1.922   4.303 -2.6952 -1.2990  0.9768
  225MOL    H4440812   2.134   1.912   4.423 -0.1949 -2.6359 -0.7249
  225MOL    H4540813   2.045   1.942   4.572  0.3981  2.3282 -1.8758
  225MOL    H4640814   2.045   1.788   4.490  1.0315 -0.1619  0.0929
  225MOL    C4740815   1.780   1.880   4.461 -0.5201 -0.1782  0.2414
  225MOL    C4840816   1.654   1.894   4.365  0.0524 -0.4586 -1.2009
  225MOL    C4940817   1.644   1.780   4.266 -0.3369  0.1005  0.1232
  225MOL    H5040818   1.795   1.773   4.480 -0.7448 -0.0800  0.9815
  225MOL    H5140819   1.752   1.919   4.558 -0.2076 -0.3355  0.3976
  225MOL    H5240820   1.660   1.983   4.303  1.9035 -0.1610 -0.6405
  225MOL    H5340821   1.729   1.791   4.199 -0.5303  2.4807  0.2337
  225MOL    H5440822   1.649   1.684   4.318 -2.6794  0.0533  0.2971
  225MOL    H5540823   1.555   1.793   4.205 -1.2184  1.8855  1.7261
  225MOL    C5640824   1.513   1.901   4.442 -0.9011  0.0319  0.2065
  225MOL    C5740825   1.489   2.019   4.545 -0.5619  0.1551 -0.5804
  225MOL    C5840826   1.499   2.156   4.468 -0.2310 -0.8793  0.3332
  225MOL    H5940827   1.429   1.903   4.373 -1.0384  0.9937  0.3939
  225MOL    H6040828   1.489   1.803   4.484 -1.4667 -0.3025 -0.8953
  225MOL    H6140829   1.579   2.029   4.607 -1.8556  0.5878  1.2851
  225MOL    H6240830   1.577   2.159   4.392 -1.6716 -1.5536 -1.1917
  225MOL    H6340831   1.404   2.175   4.419 -0.2549 -0.6480  0.4707
  225MOL    H6440832   1.521   2.224   4.550  0.5947 -0.3048 -0.3613
  225MOL    C6540833   1.364   1.990   4.631 -0.2450 -0.7073 -0.1009
  225MOL    C6640834   1.382   2.039   4.780 -0.4991 -0.7555 -0.0963
  225MOL    C6740835   1.487   1.946   4.855  0.0878  0.2213  0.1732
  225MOL    H6840836   1.276   2.034   4.585 -0.8659 -0.2446  1.5158
  225MOL    H6940837   1.348   1.882   4.633 -0.0994 -0.7204  0.4864
  225MOL    H7040838   1.290   2.015   4.831 -1.6080  1.6174 -0.9073
  225MOL    H7140839   1.583   1.944   4.802  0.6623 -0.5564  1.2428
  225MOL    H7240840   1.495   1.976   4.959 -0.2998  1.1814 -0.0646
  225MOL    H7340841   1.452   1.844   4.845  0.8092  0.1294 -1.7409
  225MOL    C7440842   1.415   2.194   4.800 -0.3418  0.3933  0.8968
  225MOL    C7540843   1.346   2.258   4.924 -0.4443  0.0123  0.0615
  225MOL    C7640844   1.427   2.388   4.971  0.1506  0.0863  0.2702
  225MOL    H7740845   1.523   2.201   4.810  0.1955 -3.3079 -1.1822
  225MOL    H7840846   1.401   2.258   4.713  2.1450  0.1460  0.2665
  225MOL    H7940847   1.342   2.179   4.999  1.4712 -0.1508  0.0315
  225MOL    H8040848   1.534   2.371   4.972  0.0134 -0.8012  0.4339
  225MOL    H8140849   1.406   2.476   4.911  1.2994  0.5924  0.6188
  225MOL    H8240850   1.388   2.407   5.071 -0.7015  0.1199 -0.0622
  225MOL    C8340851   1.200   2.307   4.893 -0.3279  0.0430 -0.2302
  225MOL    C8440852   1.106   2.315   5.016 -0.2881 -0.2228 -0.1253
  225MOL    C8540853   0.983   2.395   4.969 -0.0878  0.6067 -0.3705
  225MOL    H8640854   1.205   2.394   4.828  1.7846 -1.8625 -2.7129
  225MOL    H8740855   1.155   2.241   4.820  0.0059  0.8669 -1.1931
  225MOL    H8840856   1.163   2.367   5.093  0.8377 -0.7949 -0.5594
  225MOL    H8940857   0.940   2.446   5.055  0.5289  2.3158 -1.0382
  225MOL    H9040858   0.999   2.476   4.898  0.1949  1.1044  0.2561
  225MOL    H9140859   0.912   2.324   4.928  0.3376 -0.2508  0.3752
  225MOL    C9240860   1.067   2.177   5.065 -0.4067 -0.4107  0.0482
  225MOL    C9340861   1.002   2.159   5.203  0.0759  0.0088  1.1176
  225MOL    C9440862   1.026   2.266   5.304 -0.3608  0.4060 -0.8336
  225MOL    H9540863   1.005   2.132   4.988 -1.2162 -1.8071  1.4722
  225MOL    H9640864   1.159   2.117   5.062 -0.8961 -1.1178 -1.2674
  225MOL    H9740865   1.067   2.081   5.243  2.2332  0.7654 -0.8002
  225MOL    H9840866   0.994   2.236   5.404 -0.3720  0.8625 -0.6950
  225MOL    H9940867   1.133   2.270   5.321 -0.6411  0.4394  1.0537
  225MOL   H10040868   0.983   2.366   5.290 -0.9364  0.2333 -0.3440
  225MOL   C10140869   0.856   2.108   5.198  0.4122  0.7488  0.9999
  225MOL   C10240870   0.783   2.062   5.324  0.1010  0.7418  0.2179
  225MOL   C10340871   0.634   2.105   5.319  0.6069  0.2563 -0.9257
  225MOL   H10440872   0.787   2.182   5.157 -1.7114 -1.0067  1.3139
  225MOL   H10540873   0.840   2.039   5.115 -0.6652  3.1836 -0.8698
  225MOL   H10640874   0.831   2.109   5.409 -1.0938  0.5096  1.0349
  225MOL   H10740875   0.580   2.066   5.233 -1.0129  0.6488 -0.1108
  225MOL   H10840876   0.572   2.067   5.400  1.6082 -1.2015 -0.8246
  225MOL   H10940877   0.622   2.213   5.324 -3.2623 -0.2016  1.3291
  225MOL   C11040878   0.786   1.910   5.355  0.6267 -0.1620 -0.2194
  225MOL   C11140879   0.922   1.854   5.393 -0.0418  0.7788 -0.5604
  225MOL   C11240880   0.956   1.886   5.543  0.3001  0.3017  0.7519
  225MOL   H11340881   0.717   1.891   5.437 -0.7445  0.2256 -1.2601
  225MOL   H11440882   0.736   1.855   5.275 -0.1238  0.3049 -0.0831
  225MOL   H11540883   0.998   1.902   5.331 -1.4488 -0.0180 -2.9380
  225MOL   H11640884   0.865   1.878   5.603 -1.5951 -1.5590 -2.2126
  225MOL   H11740885   1.038   1.827   5.585  0.8462  1.9976  2.1367
  225MOL   H11840886   0.982   1.991   5.553  0.0295  0.7355 -2.5195
  225MOL   C11940887   0.936   1.701   5.356  0.3847  0.5048 -0.3376
  225MOL   C12040888   0.968   1.663   5.211 -0.3869 -0.0797  0.0615
  225MOL   C12140889   0.853   1.693   5.112  0.7546 -0.2080  0.0414
  225MOL   H12240890   1.030   1.673   5.402  0.1475 -0.5015 -0.4491
  225MOL   H12340891   0.862   1.634   5.400  1.3227  0.2561  0.8829
  225MOL   H12440892   0.980   1.555   5.219 -3.3846 -0.5412 -1.0711
  225MOL   H12540893   0.858   1.800   5.089 -1.4381  0.0424  0.6493
  225MOL   H12640894   0.862   1.631   5.023 -0.7425  0.5401 -0.6535
  225MOL   H12740895   0.759   1.662   5.157 -0.4955  1.7000 -1.1815
  225MOL   C12840896   1.105   1.725   5.164  0.3849 -0.1614  0.3653
  225MOL   C12940897   1.242   1.682   5.214 -0.0607  0.6544 -0.6947
  225MOL   C13040898   1.267   1.535   5.165  0.1323  0.5554  0.1163
  225MOL   H13140899   1.111   1.705   5.057 -0.9053  1.4531 -0.0171
  225MOL   H13240900   1.095   1.832   5.146 -0.7040 -0.6351 -2.0768
  225MOL   H13340901   1.232   1.686   5.322 -1.9412  2.0424 -0.8987
  225MOL   H13440902   1.185   1.467   5.189 -0.5323  0.3738 -2.5650
  225MOL   H13540903   1.296   1.545   5.061 -0.3135  0.1054 -0.0526
  225MOL   H13640904   1.352   1.487   5.214  0.2557  0.9350  0.2795
  225MOL   C13740905   1.354   1.783   5.180  0.0017  0.0542  0.1429
  225MOL   C13840906   1.466   1.799   5.278  0.2268 -0.7196  0.1031
  225MOL   C13940907   1.598   1.773   5.217  0.5981  0.0158 -0.2631
  225MOL   H14040908   1.383   1.752   5.080 -3.0507  0.0182 -0.7868
  225MOL   H14140909   1.306   1.880   5.171  1.0233  0.6741  1.1748
  225MOL   H14240910   1.460   1.722   5.354  0.9454  0.0433  0.9499
  225MOL   H14340911   1.679   1.777   5.290  0.5957 -0.0202 -0.2595
  225MOL   H14440912   1.601   1.677   5.166  0.2537  0.9720 -2.1570
  225MOL   H14540913   1.626   1.848   5.143 -1.8371  0.9457 -0.2926
  225MOL   C14640914   1.459   1.942   5.347  0.1432  0.5669 -0.5356
  225MOL   C14740915   1.335   1.986   5.429  0.6612 -0.0947  0.4753
  225MOL   C14840916   1.313   1.891   5.552  0.0290 -0.2722  0.1309
  225MOL   H14940917   1.545   1.951   5.413 -0.5549  2.0841  0.1872
  225MOL   H15040918   1.475   2.013   5.266  0.7497 -0.9298 -1.7474
  225MOL   H15140919   1.251   1.966   5.363  0.1192  1.8652  0.5580
  225MOL   H15240920   1.224   1.915   5.610 -0.9820  0.2603 -1.6120
  225MOL   H15340921   1.295   1.792   5.509 -2.5207  0.2002  0.0638
  225MOL   H15440922   1.400   1.874   5.616  1.1265  1.4506 -0.8620
  225MOL   C15540923   1.317   2.132   5.461  0.0047  0.4372 -0.0215
  225MOL   C15640924   1.413   2.200   5.560  0.2798 -0.2585 -0.5018
  225MOL   C15740925   1.446   2.344   5.504 -0.2202 -0.4870 -0.6217
  225MOL   H15840926   1.312   2.180   5.363  0.1192  0.4474 -0.0236
  225MOL   H15940927   1.217   2.149   5.498  0.0237  0.0399  0.2065
  225MOL   H16040928   1.509   2.148   5.563  0.6790  0.4910 -0.2525
  225MOL   H16140929   1.501   2.412   5.569 -1.1121  2.1966 -2.5937
  225MOL   H16240930   1.505   2.337   5.412 -0.9737  2.0024 -1.3452
  225MOL   H16340931   1.351   2.396   5.492 -0.1999 -0.4691 -0.7044
  225MOL   C16440932   1.362   2.211   5.711 -0.5590 -0.5856  0.8133
  225MOL   C16540933   1.479   2.226   5.816  0.1468 -0.1782  0.0623
  225MOL   C16640934   1.410   2.238   5.955  0.0182  0.3731  0.4157
  225MOL   H16740935   1.299   2.300   5.711 -2.5941 -1.9512 -2.1670
  225MOL   H16840936   1.298   2.133   5.749 -0.6395  0.4811  2.9367
  225MOL   H16940937   1.520   2.324   5.788  0.7863 -0.2134  0.8498
  225MOL   H17040938   1.317   2.294   5.950  1.1225  2.1594 -0.6953
  225MOL   H17140939   1.388   2.133   5.978 -0.6032  0.3122 -0.4344
  225MOL   H17240940   1.458   2.284   6.041  1.2896 -2.0848  1.0844
  225MOL   C17340941   1.584   2.116   5.814 -0.3159 -0.0271 -0.1461
  225MOL   C17440942   1.700   2.132   5.923 -0.3696 -0.1037  0.6282
  225MOL   C17540943   1.775   2.270   5.904 -0.1625 -0.3887 -0.2577
  225MOL   H17640944   1.528   2.028   5.845 -1.2735  0.5294 -0.2944
  225MOL   H17740945   1.628   2.110   5.714 -0.2390  2.0410 -0.2617
  225MOL   H17840946   1.777   2.056   5.915  0.9113  1.4247 -2.6966
  225MOL   H17940947   1.876   2.262   5.944  0.1826 -1.5040 -1.3121
  225MOL   H18040948   1.796   2.278   5.797 -1.9431 -0.2179 -0.6041
  225MOL   H18140949   1.728   2.361   5.941  0.9146  0.4504 -0.8903
  225MOL   H18240950   1.665   2.119   6.026 -2.3403 -0.7715 -0.0866
  226MOL     C140951   0.310   6.545   3.227  0.0197 -0.2920  0.3439
  226MOL     C240952   0.337   6.404   3.259  0.2709  0.7375 -0.1525
  226MOL     C340953   0.392   6.380   3.402  0.2231  0.6210 -0.0323
  226MOL     H440954   0.317   6.568   3.121 -0.1056  2.0410  0.8186
  226MOL     H540955   0.368   6.629   3.265 -0.9785  1.4351 -1.8589
  226MOL     H640956   0.422   6.368   3.201  0.9934 -1.4255  2.1742
  226MOL     H740957   0.318   6.416   3.473  0.7293 -0.5867  1.1290
  226MOL     H840958   0.415   6.275   3.422  0.3091  0.3597 -1.4803
  226MOL     H940959   0.481   6.439   3.424  0.6101  0.8240 -2.0307
  226MOL    H1040960   0.205   6.568   3.247  0.4251  0.9215  1.1285
  226MOL    C1140961   0.225   6.305   3.224  0.7014  0.2658  0.1235
  226MOL    C1240962   0.162   6.308   3.076 -0.1987 -0.9035 -0.0931
  226MOL    C1340963   0.267   6.263   2.980  0.1031 -0.3560  0.2872
  226MOL    H1440964   0.257   6.203   3.245 -2.5909 -0.2852  2.9452
  226MOL    H1540965   0.148   6.331   3.297  2.0120 -0.0530  1.6370
  226MOL    H1640966   0.141   6.413   3.056 -0.8858 -0.9136  0.5821
  226MOL    H1740967   0.302   6.161   2.997 -3.4099 -2.0885 -2.2594
  226MOL    H1840968   0.240   6.274   2.875  0.1545 -1.0054  0.2065
  226MOL    H1940969   0.357   6.323   2.997  1.3310 -2.3329  0.8955
  226MOL    C2040970   0.032   6.227   3.062  0.0492 -0.2202 -0.3053
  226MOL    C2140971   7.644   6.247   2.930 -0.2315 -0.2245 -1.0004
  226MOL    C2240972   7.525   6.139   2.936 -0.2041  0.1701  1.1982
  226MOL    H2340973   0.072   6.126   3.059  1.2414  0.2353  0.3248
  226MOL    H2440974   7.666   6.232   3.150  1.0459 -1.8207  0.5117
  226MOL    H2540975   0.002   6.213   2.842 -0.0489 -0.7080 -0.7013
  226MOL    H2640976   7.492   6.106   3.035 -0.1975 -1.3342  0.6989
  226MOL    H2740977   7.439   6.166   2.874  0.6260  0.7779  0.2969
  226MOL    H2840978   7.565   6.048   2.892 -1.4114 -0.2074  0.8667
  226MOL    C2940979   7.590   6.389   2.912  0.8865 -0.5687  0.0500
  226MOL    C3040980   7.657   6.474   2.795 -0.3785 -0.6456 -0.0870
  226MOL    C3140981   7.604   6.420   2.666 -0.7537  0.6098  0.2069
  226MOL    H3240982   7.483   6.380   2.896  0.8925 -0.1505 -0.2370
  226MOL    H3340983   7.612   6.443   3.004  0.6452  0.0097 -0.2265
  226MOL    H3440984   0.067   6.455   2.803  0.0494  2.1574  1.5629
  226MOL    H3540985   7.605   6.311   2.664 -1.0665  0.6190 -0.8502
  226MOL    H3640986   7.505   6.452   2.634 -0.8694 -0.3567 -0.4428
  226MOL    H3740987   7.677   6.448   2.591  1.6395 -0.3286  2.0957
  226MOL    C3840988   7.636   6.630   2.800 -0.2909  0.6801 -0.0709
  226MOL    C3940989   0.031   6.700   2.899 -0.5861 -0.2462 -1.1379
  226MOL    C4040990   0.167   6.731   2.827 -0.1798 -0.0145 -0.1994
  226MOL    H4140991   7.647   6.664   2.697  0.2917 -0.3726 -0.3651
  226MOL    H4240992   7.534   6.658   2.826 -0.0035  3.4416 -1.6992
  226MOL    H4340993   0.053   6.634   2.983 -2.1677 -0.6772 -1.0315
  226MOL    H4440994   0.210   6.641   2.783 -1.7240  0.1418 -2.1165
  226MOL    H4540995   0.152   6.810   2.753 -0.9346 -1.2059 -1.3253
  226MOL    H4640996   0.232   6.758   2.910  1.1949 -2.7270 -0.3427
  226MOL    C4740997   7.673   6.831   2.972 -0.7135  0.2709 -0.6704
  226MOL    C4840998   7.541   6.833   3.036  0.0647  0.9896 -0.5515
  226MOL    C4940999   7.527   6.721   3.135 -0.5685  0.7084  0.1415
  226MOL    H5041000   0.047   6.885   3.035  1.2024 -0.3635 -2.2439
  226MOL    H5141001   7.661   6.901   2.889  0.8346 -0.7693 -1.7936
  226MOL    H5241002   7.468   6.824   2.955  0.9257 -1.9702 -1.0405
  226MOL    H5341003   7.603   6.715   3.212 -1.5766 -1.0046  1.0559
  226MOL    H5441004   7.428   6.713   3.181 -1.6295 -0.5274 -2.2588
  226MOL    H5541005   7.530   6.626   3.081  0.8614  0.6866  0.2524
  226MOL    C5641006   7.515   6.966   3.106  0.3477 -0.6123 -0.6927
  226MOL    C5741007   7.527   7.102   3.027 -0.3363  0.2581  0.5281
  226MOL    C5841008   7.379   7.131   2.986  0.5766 -0.2578  0.0925
  226MOL    H5941009   7.413   6.963   3.145  0.7518 -0.4521  0.3993
  226MOL    H6041010   7.579   6.955   3.194  0.4403  0.2374 -0.6415
  226MOL    H6141011   7.589   7.079   2.940  0.5813 -0.5965  1.4034
  226MOL    H6241012   7.317   7.152   3.073 -0.8381 -0.4654 -0.8486
  226MOL    H6341013   7.368   7.229   2.939  0.6013 -0.3863 -0.1829
  226MOL    H6441014   7.331   7.064   2.914  1.3346 -0.9612  0.2313
  226MOL    C6541015   7.586   7.215   3.122  0.1366  0.6441 -0.2170
  226MOL    C6641016   7.647   7.334   3.058  0.2934  0.9513 -0.4496
  226MOL    C6741017   7.632   7.452   3.156 -0.2768  0.7168  0.3166
  226MOL    H6841018   7.501   7.253   3.178 -0.3541  0.5736 -0.9140
  226MOL    H6941019   7.652   7.169   3.196 -0.6136 -0.5549 -0.2728
  226MOL    H7041020   7.585   7.359   2.971 -0.2921 -1.5277 -0.7922
  226MOL    H7141021   7.530   7.468   3.192 -0.8340 -1.4908 -0.2299
  226MOL    H7241022   7.690   7.444   3.248  1.8847 -1.3870 -1.1832
  226MOL    H7341023   7.672   7.543   3.111 -2.0248  1.4120  0.1241
  226MOL    C7441024   0.103   7.329   3.034 -0.4705 -0.0462  0.1829
  226MOL    C7541025   0.144   7.229   2.922  0.1808  0.1815 -0.8300
  226MOL    C7641026   0.088   7.260   2.784 -0.6552 -0.2437  0.0479
  226MOL    H7741027   0.142   7.425   3.003  0.4013  0.0699  1.6035
  226MOL    H7841028   0.160   7.307   3.125  2.0156 -0.6681 -1.4819
  226MOL    H7941029   0.103   7.130   2.944  1.7171 -0.4056 -0.5821
  226MOL    H8041030   7.683   7.297   2.791  0.3100  2.5364  0.1339
  226MOL    H8141031   0.141   7.341   2.734 -0.1106  0.2050  1.3271
  226MOL    H8241032   0.092   7.169   2.725  1.0238 -1.1337  1.4964
  226MOL    C8341033   0.296   7.214   2.915  0.4128  0.1312 -0.1215
  226MOL    C8441034   0.362   7.148   3.037  0.6212 -0.2840 -0.4271
  226MOL    C8541035   0.318   6.996   3.054 -0.4931 -0.0292  0.4050
  226MOL    H8641036   0.323   7.175   2.817 -0.1952  3.1509 -1.5548
  226MOL    H8741037   0.339   7.314   2.917  0.1481  0.3224 -2.3768
  226MOL    H8841038   0.350   7.200   3.133 -1.2836  0.9911 -1.3242
  226MOL    H8941039   0.323   6.934   2.965  0.7578 -1.0359  1.1601
  226MOL    H9041040   0.389   6.946   3.120  2.0720  1.8092 -0.8738
  226MOL    H9141041   0.215   6.990   3.090 -1.1386 -0.8773 -1.4919
  226MOL    C9241042   0.510   7.132   3.009  0.4762  0.5835 -0.0904
  226MOL    C9341043   0.584   7.265   3.039  0.4698 -0.4479  0.8626
  226MOL    C9441044   0.637   7.285   3.184 -0.2686 -0.2453  0.1254
  226MOL    H9541045   0.561   7.066   3.079  1.5760  1.3042 -0.1860
  226MOL    H9641046   0.512   7.088   2.910 -2.2539 -0.1596  0.1503
  226MOL    H9741047   0.516   7.346   3.014 -0.8195 -1.2845  1.6022
  226MOL    H9841048   0.549   7.301   3.246 -1.1834 -1.3748 -0.8525
  226MOL    H9941049   0.703   7.204   3.217  0.7027 -0.1707 -1.5499
  226MOL   H10041050   0.699   7.375   3.189  1.2849 -1.1711 -1.5792
  226MOL   C10141051   0.698   7.264   2.940 -0.2605 -0.1220  0.2091
  226MOL   C10241052   0.666   7.300   2.793  0.6543 -0.6459 -0.4570
  226MOL   C10341053   0.712   7.446   2.781  0.0379 -0.0304  0.6444
  226MOL   H10441054   0.786   7.320   2.974  0.0924 -0.6996  0.2524
  226MOL   H10541055   0.749   7.168   2.940  0.9380  0.5050 -1.4683
  226MOL   H10641056   0.557   7.306   2.791  0.5614  0.4218  3.3125
  226MOL   H10741057   0.820   7.460   2.785  0.0808 -0.5328  1.2145
  226MOL   H10841058   0.687   7.484   2.682 -1.0793 -0.7895  0.6280
  226MOL   H10941059   0.654   7.509   2.849 -1.0691  1.0057 -1.2325
  226MOL   C11041060   0.723   7.206   2.686 -0.2668 -0.0858 -0.4788
  226MOL   C11141061   0.666   7.063   2.683 -0.0306 -0.7229  0.7165
  226MOL   C11241062   0.525   7.066   2.610  0.3036 -0.3210 -0.3547
  226MOL   H11341063   0.701   7.251   2.589  0.0931 -0.0113 -0.5282
  226MOL   H11441064   0.832   7.215   2.686 -0.2799  0.3465 -1.9819
  226MOL   H11541065   0.646   7.030   2.785  0.9592  0.4954  1.3157
  226MOL   H11641066   0.466   7.146   2.654  0.3998 -0.3532 -0.1657
  226MOL   H11741067   0.519   7.083   2.502  0.5652 -1.9318 -0.6316
  226MOL   H11841068   0.479   6.967   2.610 -2.9067  1.1084  1.8421
  226MOL   C11941069   0.767   6.967   2.613  0.0842  0.6135 -0.2160
  226MOL   C12041070   0.766   6.816   2.664  0.2308  0.8048 -0.7687
  226MOL   C12141071   0.633   6.748   2.621  0.1108 -0.5972 -0.0667
  226MOL   H12241072   0.766   6.969   2.504 -1.0616  2.8409 -0.1742
  226MOL   H12341073   0.868   7.005   2.629 -0.4303  2.1169 -0.4545
  226MOL   H12441074   0.766   6.815   2.773 -1.5571 -0.1722 -0.7613
  226MOL   H12541075   0.601   6.779   2.522  2.9061 -0.2720 -0.9237
  226MOL   H12641076   0.644   6.639   2.624  1.0567 -0.5200 -0.4040
  226MOL   H12741077   0.555   6.771   2.693 -0.1758  1.1847 -0.9115
  226MOL   C12841078   0.879   6.730   2.600  0.2188 -0.7611  0.7056
  226MOL   C12941079   1.021   6.759   2.641  0.0926 -0.3285  0.1042
  226MOL   C13041080   1.042   6.749   2.796 -0.3311  0.1736 -0.2628
  226MOL   H13141081   0.848   6.629   2.628 -0.7954 -0.5920  0.2131
  226MOL   H13241082   0.873   6.737   2.492  2.4210  1.6203  0.6920
  226MOL   H13341083   1.065   6.852   2.605 -0.4272  0.6614  1.9816
  226MOL   H13441084   0.977   6.820   2.847 -0.8484 -0.6809  0.2859
  226MOL   H13541085   1.008   6.650   2.826 -1.5958  0.8586  0.6072
  226MOL   H13641086   1.145   6.762   2.830 -0.3393 -0.8345  0.1639
  226MOL   C13741087   1.123   6.655   2.576 -0.1245  0.3317  0.1821
  226MOL   C13841088   1.122   6.653   2.418  0.6891  0.2703 -0.1117
  226MOL   C13941089   1.150   6.799   2.370  0.1527  0.1744  0.4851
  226MOL   H14041090   1.228   6.666   2.603 -0.2032  0.1027  0.5796
  226MOL   H14141091   1.097   6.554   2.607 -0.9607  0.4016 -0.2633
  226MOL   H14241092   1.023   6.622   2.387  0.0084 -0.1626  2.3572
  226MOL   H14341093   1.147   6.817   2.262 -0.2449  0.2694  0.5092
  226MOL   H14441094   1.074   6.873   2.396 -0.0922 -0.3115  1.1631
  226MOL   H14541095   1.246   6.833   2.407  2.5219 -1.6629 -3.5705
  226MOL   C14641096   1.225   6.560   2.356  0.6541 -0.6363  0.4909
  226MOL   C14741097   1.242   6.557   2.197  0.4164 -0.4974 -0.1357
  226MOL   C14841098   1.335   6.440   2.172  0.1246 -0.7391  0.0512
  226MOL   H14941099   1.327   6.577   2.388  1.5457 -0.1134 -2.4861
  226MOL   H15041100   1.202   6.459   2.391  1.2754 -1.0034 -0.1518
  226MOL   H15141101   1.292   6.652   2.177 -0.0664 -0.2880 -0.3335
  226MOL   H15241102   1.391   6.442   2.079 -0.6401 -0.5084 -0.4018
  226MOL   H15341103   1.419   6.438   2.242  1.0049  1.0510 -0.9307
  226MOL   H15441104   1.282   6.345   2.174  0.8019 -1.1336 -0.5841
  226MOL   C15541105   1.119   6.550   2.109 -0.4367  0.4292  1.2080
  226MOL   C15641106   1.145   6.543   1.959  0.7044 -0.1244 -0.0550
  226MOL   C15741107   1.020   6.516   1.880  0.2632 -0.3042 -0.5219
  226MOL   H15841108   1.057   6.464   2.138 -2.3260  1.9028  1.6208
  226MOL   H15941109   1.057   6.638   2.127 -0.6987  0.2549  1.1688
  226MOL   H16041110   1.218   6.465   1.939  0.1678 -0.8583  0.8017
  226MOL   H16141111   0.955   6.604   1.887  2.0435  0.9561  0.6792
  226MOL   H16241112   1.048   6.500   1.777 -0.6806  0.7781 -0.9713
  226MOL   H16341113   0.969   6.425   1.911 -0.4476  0.6747  1.2994
  226MOL   C16441114   1.216   6.665   1.892 -0.2501 -0.0314  0.0855
  226MOL   C16541115   1.289   6.630   1.758  0.1619 -0.2091 -0.3451
  226MOL   C16641116   1.244   6.730   1.644 -0.3634  0.0541  0.2019
  226MOL   H16741117   1.143   6.746   1.893 -0.7071 -0.4355 -0.0390
  226MOL   H16841118   1.286   6.720   1.954  2.0070 -2.5075 -0.1909
  226MOL   H16941119   1.260   6.532   1.720 -2.7621  1.4004 -2.5091
  226MOL   H17041120   1.297   6.823   1.664  0.2343 -0.0756 -0.7442
  226MOL   H17141121   1.272   6.695   1.545  1.1767  0.8253  0.3396
  226MOL   H17241122   1.139   6.758   1.643  0.1673  2.0753 -0.1267
  226MOL   C17341123   1.448   6.632   1.780  0.9278 -0.2309 -0.3054
  226MOL   C17441124   1.530   6.580   1.657  0.7173  0.6075  0.3207
  226MOL   C17541125   1.678   6.579   1.691  0.1666 -1.0115  0.4727
  226MOL   H17641126   1.485   6.732   1.801 -0.7478  0.7908 -2.1436
  226MOL   H17741127   1.470   6.575   1.871  0.9703  1.6863  0.9151
  226MOL   H17841128   1.519   6.647   1.571  1.0895 -1.1652 -1.1416
  226MOL   H17941129   1.738   6.511   1.630  0.9678  0.2886 -0.2220
  226MOL   H18041130   1.724   6.678   1.697 -0.4472 -0.5780 -1.5219
  226MOL   H18141131   1.671   6.532   1.789 -1.0952 -0.4460  0.6562
  226MOL   H18241132   1.490   6.480   1.640 -0.7423  0.9666  1.4899
  227MOL     C141133   2.341   4.434   4.408  0.5984  0.0151  0.0963
  227MOL     C241134   2.448   4.431   4.290 -0.3035  1.0251  0.3836
  227MOL     C341135   2.541   4.312   4.322 -0.4743  0.0977 -0.1700
  227MOL     H441136   2.295   4.532   4.420  0.2408  0.1713 -2.2330
  227MOL     H541137   2.388   4.408   4.502  0.8567  0.7850  0.1871
  227MOL     H641138   2.510   4.519   4.305 -0.1731  0.8061  1.1180
  227MOL     H741139   2.602   4.314   4.231  0.9384 -1.4253  0.7007
  227MOL     H841140   2.603   4.337   4.408 -1.1726 -0.7919  0.6039
  227MOL     H941141   2.489   4.216   4.322 -0.0848 -0.1184  0.6846
  227MOL    H1041142   2.261   4.362   4.390 -0.5861  0.8445  1.8500
  227MOL    C1141143   2.386   4.423   4.153 -0.3669 -0.2036  0.1119
  227MOL    C1241144   2.301   4.544   4.118  0.4954  0.0515  0.3701
  227MOL    C1341145   2.399   4.658   4.076  0.2153  0.1660 -0.5953
  227MOL    H1441146   2.461   4.411   4.075  3.8789  3.8124  3.2808
  227MOL    H1541147   2.325   4.334   4.139 -1.4920  0.7896 -1.4617
  227MOL    H1641148   2.233   4.580   4.195  1.0912  2.0680 -0.0290
  227MOL    H1741149   2.478   4.624   4.009  1.6226 -0.9184  1.5767
  227MOL    H1841150   2.342   4.738   4.027  2.0098  2.1029  0.4140
  227MOL    H1941151   2.445   4.696   4.167 -0.9352 -0.6501  0.3294
  227MOL    C2041152   2.215   4.518   3.997  0.1803  0.6836  0.0293
  227MOL    C2141153   2.088   4.429   4.027  0.1844  0.5599  0.3217
  227MOL    C2241154   1.990   4.493   4.118 -0.7763  0.4960  0.5182
  227MOL    H2341155   2.181   4.613   3.956 -0.7056 -0.1552 -1.2275
  227MOL    H2441156   2.277   4.470   3.921 -2.1254  0.8961 -2.0482
  227MOL    H2541157   2.123   4.341   4.080 -0.3358  0.7625  1.0064
  227MOL    H2641158   2.035   4.532   4.209 -0.2737  1.3931 -0.1151
  227MOL    H2741159   1.945   4.574   4.061 -1.5240 -1.2763 -1.4737
  227MOL    H2841160   1.900   4.437   4.145 -0.5726  0.2570  0.7044
  227MOL    C2941161   2.011   4.374   3.901 -0.0160 -0.2104 -0.3445
  227MOL    C3041162   2.096   4.289   3.804  0.1787  0.4483  0.7712
  227MOL    C3141163   2.190   4.191   3.869  0.7084 -0.6858  0.2999
  227MOL    H3241164   1.916   4.328   3.928  0.3248 -0.7685 -0.0939
  227MOL    H3341165   1.970   4.459   3.845  0.2094 -0.6756 -1.2131
  227MOL    H3441166   2.168   4.354   3.753  0.9284 -0.7924  0.2119
  227MOL    H3541167   2.250   4.136   3.798  1.2134  1.4761 -1.0099
  227MOL    H3641168   2.263   4.239   3.934  0.3648 -0.3690  0.4633
  227MOL    H3741169   2.131   4.122   3.929 -1.4040  2.0286  1.5094
  227MOL    C3841170   2.013   4.215   3.692  0.8844  0.0349 -0.2721
  227MOL    C3941171   1.926   4.313   3.615  0.2916  0.9482 -1.3385
  227MOL    C4041172   2.008   4.407   3.515 -0.3677 -0.4123  0.1570
  227MOL    H4141173   2.084   4.171   3.621  1.1475  0.8671 -0.5397
  227MOL    H4241174   1.959   4.128   3.730  1.0208  0.3913  0.7434
  227MOL    H4341175   1.867   4.382   3.676  2.0687 -0.3435  2.0225
  227MOL    H4441176   2.013   4.500   3.571 -2.2617  0.8598 -1.6941
  227MOL    H4541177   2.100   4.353   3.494  0.5745 -0.3765  3.9067
  227MOL    H4641178   1.954   4.435   3.424  0.2276 -0.8175 -0.3261
  227MOL    C4741179   1.836   4.222   3.525  0.5795  0.0096 -0.2331
  227MOL    C4841180   1.729   4.286   3.424  0.4499  0.2431 -0.4599
  227MOL    C4941181   1.638   4.181   3.363  0.0169  0.4289 -0.4302
  227MOL    H5041182   1.897   4.151   3.469  0.4651 -0.8965  0.7766
  227MOL    H5141183   1.786   4.157   3.597  0.1586 -0.4399 -0.9233
  227MOL    H5241184   1.777   4.325   3.335 -0.8819  0.3667 -1.1416
  227MOL    H5341185   1.570   4.141   3.437 -2.4371  2.4256 -1.5539
  227MOL    H5441186   1.578   4.233   3.288  0.7604 -0.5468 -1.7485
  227MOL    H5541187   1.686   4.105   3.300 -0.2401 -0.9127  0.9683
  227MOL    C5641188   1.637   4.382   3.505  0.7241  0.7214  0.3715
  227MOL    C5741189   1.542   4.460   3.414  0.2196 -0.0043 -0.8954
  227MOL    C5841190   1.454   4.561   3.491 -0.3093 -0.5931  0.6710
  227MOL    H5941191   1.582   4.328   3.582  1.2665  1.0846  1.0172
  227MOL    H6041192   1.692   4.460   3.557 -1.1191  0.9018  2.1160
  227MOL    H6141193   1.464   4.390   3.382 -0.8493 -0.2392  2.0506
  227MOL    H6241194   1.505   4.646   3.536 -0.2904  0.8399 -1.9620
  227MOL    H6341195   1.384   4.603   3.420 -0.7560 -1.1100  0.7983
  227MOL    H6441196   1.383   4.525   3.565 -0.6137 -1.3909  0.0024
  227MOL    C6541197   1.594   4.521   3.279  0.1190 -0.2806 -0.5896
  227MOL    C6641198   1.713   4.629   3.287  0.3890  0.5217  0.8855
  227MOL    C6741199   1.807   4.594   3.165 -0.5538  0.1739  0.2250
  227MOL    H6841200   1.612   4.442   3.207  0.5018  0.6400 -1.5152
  227MOL    H6941201   1.509   4.570   3.232 -1.3646 -2.0890  0.1123
  227MOL    H7041202   1.773   4.612   3.376 -1.3688 -3.7581  1.4016
  227MOL    H7141203   1.906   4.635   3.185 -0.0550  0.4278 -2.6027
  227MOL    H7241204   1.804   4.487   3.144 -1.7285 -0.0993  1.7087
  227MOL    H7341205   1.772   4.648   3.077  0.6278 -1.5488 -1.3581
  227MOL    C7441206   1.664   4.774   3.288 -0.2535 -0.2645 -0.0077
  227MOL    C7541207   1.766   4.893   3.272 -0.4944 -0.2856  0.1247
  227MOL    C7641208   1.705   4.996   3.175 -0.6160 -0.0054  0.2412
  227MOL    H7741209   1.598   4.768   3.201 -0.1638 -0.6290 -0.0522
  227MOL    H7841210   1.606   4.785   3.380 -0.2879 -0.9629  0.0578
  227MOL    H7941211   1.856   4.853   3.225  0.4047 -1.6531  2.9231
  227MOL    H8041212   1.610   5.026   3.219 -1.2714 -1.4130 -0.1903
  227MOL    H8141213   1.767   5.085   3.156  0.0790 -0.8538 -1.6844
  227MOL    H8241214   1.662   4.957   3.083  1.4235 -3.3682  0.6427
  227MOL    C8341215   1.809   4.956   3.410  0.7602  0.1623  0.4396
  227MOL    C8441216   1.871   4.861   3.514  0.0902 -1.1784  0.2252
  227MOL    C8541217   2.008   4.801   3.482 -0.0174  0.1032 -0.3836
  227MOL    H8641218   1.874   5.040   3.386 -0.4015  1.6586  2.4249
  227MOL    H8741219   1.718   5.010   3.437  1.4383  2.4312 -1.7049
  227MOL    H8841220   1.805   4.778   3.540  2.0288 -2.4521  1.1963
  227MOL    H8941221   2.086   4.877   3.474 -3.1364  3.4539 -0.2318
  227MOL    H9041222   2.023   4.724   3.558  0.5176 -0.0063 -0.5944
  227MOL    H9141223   2.001   4.752   3.384 -2.1745 -0.4540  0.0118
  227MOL    C9241224   1.894   4.938   3.652  0.1886  0.1891  0.7166
  227MOL    C9341225   1.806   4.876   3.768 -0.0977 -0.0537 -0.0879
  227MOL    C9441226   1.875   4.744   3.812  0.5896 -0.5345  0.0269
  227MOL    H9541227   1.999   4.940   3.681  0.3324  3.7459  0.1716
  227MOL    H9641228   1.872   5.042   3.630 -0.3962  0.1467  1.0850
  227MOL    H9741229   1.705   4.859   3.732 -0.1746  0.5105 -0.1430
  227MOL    H9841230   1.865   4.666   3.736  0.7145 -0.1237 -0.4164
  227MOL    H9941231   1.982   4.758   3.826 -0.0063  1.8560  2.5300
  227MOL   H10041232   1.837   4.703   3.906  2.0220  1.4553  1.5083
  227MOL   C10141233   1.799   4.980   3.883 -0.1477 -0.2576  0.2006
  227MOL   C10241234   1.736   5.112   3.837 -0.3724 -0.5642 -0.0248
  227MOL   C10341235   1.602   5.136   3.913 -0.1013 -0.1509 -0.8851
  227MOL   H10441236   1.747   4.928   3.963  1.8440  1.7216  2.8484
  227MOL   H10541237   1.896   5.000   3.929 -0.0019 -1.3291  0.3524
  227MOL   H10641238   1.693   5.092   3.739  0.3318 -1.0488 -0.2403
  227MOL   H10741239   1.632   5.168   4.013 -0.3459 -3.3281  0.2809
  227MOL   H10841240   1.540   5.216   3.873  0.5775 -0.2766 -2.2233
  227MOL   H10941241   1.542   5.046   3.926 -1.9372  1.0534 -0.8840
  227MOL   C11041242   1.832   5.238   3.844 -0.1985 -0.3533 -0.1897
  227MOL   C11141243   1.782   5.363   3.772  0.0227  0.2753 -0.9868
  227MOL   C11241244   1.826   5.496   3.838 -0.3392 -0.3253 -0.0232
  227MOL   H11341245   1.854   5.261   3.949 -1.9731  2.3456 -0.3566
  227MOL   H11441246   1.930   5.198   3.816  0.0287  0.3601 -0.4330
  227MOL   H11541247   1.674   5.366   3.777 -0.0429 -2.3320 -0.1589
  227MOL   H11641248   1.930   5.493   3.871 -0.0860 -1.5255 -0.9113
  227MOL   H11741249   1.807   5.579   3.769 -1.0617 -2.0367 -1.9367
  227MOL   H11841250   1.758   5.497   3.924  0.5220 -1.7696  0.6949
  227MOL   C11941251   1.805   5.349   3.617 -0.4695  0.0953  0.2105
  227MOL   C12041252   1.712   5.418   3.512  0.0418 -0.3956 -0.1393
  227MOL   C12141253   1.582   5.341   3.522  0.5305  0.1893 -0.5548
  227MOL   H12241254   1.906   5.390   3.606 -0.6652 -0.0414 -2.5602
  227MOL   H12341255   1.806   5.244   3.589  0.0299 -0.2089  1.3593
  227MOL   H12441256   1.760   5.410   3.414  1.1327  1.0362  0.2640
  227MOL   H12541257   1.524   5.367   3.433 -0.7345 -3.5222 -0.8718
  227MOL   H12641258   1.580   5.232   3.522 -1.8347  0.1394  3.0303
  227MOL   H12741259   1.531   5.377   3.612 -0.6981 -0.9395 -0.7859
  227MOL   C12841260   1.697   5.573   3.529  0.6679  1.0943 -0.2959
  227MOL   C12941261   1.639   5.659   3.410  0.1868 -0.7592 -0.0241
  227MOL   C13041262   1.607   5.808   3.454  0.4782  0.6611 -0.3460
  227MOL   H13141263   1.637   5.586   3.619 -1.5917 -1.0347 -1.4267
  227MOL   H13241264   1.793   5.622   3.549 -0.1323  2.1844  0.9602
  227MOL   H13341265   1.552   5.607   3.370 -1.3879  1.7274  0.0983
  227MOL   H13441266   1.522   5.794   3.521 -0.4426  0.2442 -1.5633
  227MOL   H13541267   1.693   5.862   3.492  0.6378  0.7145 -0.7876
  227MOL   H13641268   1.565   5.860   3.367  2.0294  0.6618 -1.1138
  227MOL   C13741269   1.742   5.667   3.296  0.3652  0.1569 -0.1403
  227MOL   C13841270   1.690   5.711   3.163 -0.2305  0.0466  0.0484
  227MOL   C13941271   1.809   5.714   3.069  0.0101 -0.1122 -0.5878
  227MOL   H14041272   1.818   5.738   3.330  1.3123 -0.9417  0.0629
  227MOL   H14141273   1.801   5.576   3.285  0.0608 -0.1793  0.9778
  227MOL   H14241274   1.659   5.816   3.167 -0.3915 -0.0497  1.6292
  227MOL   H14341275   1.897   5.761   3.114  0.0022 -0.1097 -0.5754
  227MOL   H14441276   1.844   5.616   3.037  0.5305 -0.8630  2.1121
  227MOL   H14541277   1.771   5.768   2.982 -0.4521 -1.1442 -1.0307
  227MOL   C14641278   1.580   5.628   3.098 -0.7128  0.4868  0.9578
  227MOL   C14741279   1.437   5.685   3.089  0.4572 -0.7154 -0.1729
  227MOL   C14841280   1.423   5.809   2.998 -0.2667  0.3104  0.0296
  227MOL   H14941281   1.617   5.596   3.001 -1.7494  0.4095  0.5825
  227MOL   H15041282   1.574   5.528   3.143  1.7059 -0.9103 -1.6636
  227MOL   H15141283   1.410   5.707   3.192 -1.3105 -1.7184 -0.4100
  227MOL   H15241284   1.319   5.826   2.970 -0.0004  1.6280 -0.2142
  227MOL   H15341285   1.455   5.901   3.046  0.8123  0.1206 -0.3024
  227MOL   H15441286   1.480   5.794   2.906 -0.6601 -2.3983  0.1716
  227MOL   C15541287   1.333   5.581   3.038 -0.2333 -0.0020 -0.1883
  227MOL   C15641288   1.329   5.433   3.104 -1.2442  0.1540  0.3557
  227MOL   C15741289   1.287   5.435   3.248  0.5710  0.2417  0.3169
  227MOL   H15841290   1.242   5.635   3.062 -1.4700 -1.4730 -1.4799
  227MOL   H15941291   1.337   5.582   2.929  0.3293  0.8298 -0.1643
  227MOL   H16041292   1.430   5.394   3.095 -0.6872  1.5599  0.3148
  227MOL   H16141293   1.183   5.450   3.275  1.1788  0.2044  2.8260
  227MOL   H16241294   1.296   5.343   3.306  0.3198  1.3533  2.1687
  227MOL   H16341295   1.352   5.506   3.300  0.7550  0.2274  0.1086
  227MOL   C16441296   1.232   5.330   3.042  0.8582 -0.6448 -0.0499
  227MOL   C16541297   1.261   5.285   2.897  0.5872  0.1440  0.2746
  227MOL   C16641298   1.379   5.189   2.896  0.4629  0.2388  0.3086
  227MOL   H16741299   1.224   5.239   3.102 -2.6596 -0.7608 -0.5749
  227MOL   H16841300   1.130   5.369   3.046  1.3972  1.2233 -2.8508
  227MOL   H16941301   1.284   5.372   2.836 -0.0140  0.5218  0.5832
  227MOL   H17041302   1.423   5.165   2.800  1.7288  0.3002  0.8718
  227MOL   H17141303   1.467   5.232   2.943  0.6468  0.9000 -0.6056
  227MOL   H17241304   1.367   5.090   2.939 -1.1502 -0.2465 -1.1720
  227MOL   C17341305   1.142   5.208   2.832 -0.6209 -0.4722  0.0581
  227MOL   C17441306   1.151   5.217   2.673 -0.5226  0.5478 -0.6153
  227MOL   C17541307   1.073   5.095   2.614 -0.1100  0.2533  0.1846
  227MOL   H17641308   1.139   5.105   2.870 -1.4668 -0.0265  1.2087
  227MOL   H17741309   1.049   5.256   2.861 -0.8029 -0.0129 -1.2735
  227MOL   H17841310   1.251   5.196   2.636 -0.2780 -1.7899  1.2211
  227MOL   H17941311   1.098   5.080   2.509 -1.4101 -3.7253  0.3783
  227MOL   H18041312   1.082   5.001   2.668 -0.4835  0.2256  0.2015
  227MOL   H18141313   0.967   5.118   2.607 -0.3358 -0.7165  0.3427
  227MOL   H18241314   1.112   5.311   2.635 -0.4598  0.1313 -1.7082
  228MOL     C141315   7.637   4.222   0.654  0.0047 -0.3901 -0.0697
  228MOL     C241316   0.036   4.102   0.668  0.0639 -0.5237  0.0898
  228MOL     C341317   7.692   4.035   0.800 -0.0230 -0.2901 -0.3973
  228MOL     H441318   7.529   4.210   0.648 -0.3317  1.0419  2.3255
  228MOL     H541319   7.666   4.269   0.561 -2.0353 -1.2189 -1.1682
  228MOL     H641320   0.140   4.132   0.673  0.1883 -0.8473 -0.5873
  228MOL     H741321   0.035   4.103   0.874 -1.2017  0.8640 -0.8044
  228MOL     H841322   7.584   4.024   0.808 -0.1008 -0.2765 -1.3285
  228MOL     H941323   0.033   3.935   0.820 -3.0701 -1.3642  0.4595
  228MOL    H1041324   7.637   4.295   0.735  0.8901  0.0892 -0.5002
  228MOL    C1141325   0.010   3.998   0.546  0.3576 -0.4483  0.4907
  228MOL    C1241326   0.063   4.036   0.413 -0.2774  0.5968  0.7058
  228MOL    C1341327   0.215   4.064   0.408  0.2944  0.3482  0.0099
  228MOL    H1441328   0.046   3.899   0.571  1.5072 -0.1056  0.2228
  228MOL    H1541329   7.600   3.997   0.529  0.4058  0.3660  0.0891
  228MOL    H1641330   0.001   4.117   0.377  0.6399  0.2874 -1.6429
  228MOL    H1741331   0.245   4.092   0.306  1.1615 -1.1950 -0.1765
  228MOL    H1841332   0.247   4.153   0.461 -0.2790 -0.0676  1.0792
  228MOL    H1941333   0.266   3.971   0.431  0.6902  0.7887  0.9219
  228MOL    C2041334   0.038   3.924   0.312 -0.6824 -0.4499  0.7283
  228MOL    C2141335   7.615   3.940   0.217  0.4898 -0.0496  0.4244
  228MOL    C2241336   7.487   3.959   0.299  0.3830  0.1543  0.1704
  228MOL    H2341337   0.125   3.910   0.248  0.7122 -0.3185  2.5607
  228MOL    H2441338   0.021   3.832   0.368 -1.0533 -0.3047  0.8526
  228MOL    H2541339   7.613   3.844   0.165  1.8958 -1.4575  2.9059
  228MOL    H2641340   7.486   4.055   0.350  1.1162  0.7530 -0.9221
  228MOL    H2741341   7.401   3.945   0.233  1.6055 -0.3332 -1.3682
  228MOL    H2841342   7.481   3.870   0.362 -0.0288 -0.6784 -1.0312
  228MOL    C2941343   7.636   4.047   0.109 -0.0526 -0.2713  0.3368
  228MOL    C3041344   7.665   3.988   7.667 -0.7551  0.3928  1.1460
  228MOL    C3141345   7.529   3.952   7.600  0.7013 -0.2754 -0.4091
  228MOL    H3241346   7.550   4.113   0.092  0.9813  1.9688  3.4100
  228MOL    H3341347   0.011   4.117   0.150  0.5092  0.2076 -1.4333
  228MOL    H3441348   0.028   3.898   7.674 -0.3488  0.5817  0.2095
  228MOL    H3541349   7.544   3.899   7.507  0.9837 -1.5232  0.3314
  228MOL    H3641350   7.470   3.879   7.657  1.0945  0.1655  0.5765
  228MOL    H3741351   7.473   4.041   7.572  1.4391  0.2239 -0.2964
  228MOL    C3841352   0.052   4.083   7.580  0.0983  0.3559 -0.8955
  228MOL    C3941353   0.195   4.112   7.638  0.0796  0.2601 -0.0854
  228MOL    C4041354   0.288   3.985   7.641 -0.0380  0.0175 -0.0009
  228MOL    H4141355   0.061   4.042   7.479 -1.9418  0.8088 -1.2814
  228MOL    H4241356   7.697   4.178   7.569  3.0747  1.9706 -1.7010
  228MOL    H4341357   0.191   4.137   0.046  1.9049 -1.3611  0.4001
  228MOL    H4441358   0.294   3.936   7.544 -1.5666 -1.7016  0.7327
  228MOL    H4541359   0.391   4.011   7.664  0.4862 -0.2130 -2.0664
  228MOL    H4641360   0.267   3.910   0.020 -1.2517 -1.0279 -1.3382
  228MOL    C4741361   0.270   4.224   7.561 -0.2937  0.0562 -0.5001
  228MOL    C4841362   0.303   4.346   7.650 -0.2922 -0.1629  0.0738
  228MOL    C4941363   0.405   4.317   0.069  0.2450 -0.1417 -0.3039
  228MOL    H5041364   0.363   4.180   7.525 -0.3645 -0.8759  0.4007
  228MOL    H5141365   0.212   4.260   7.476 -1.1250  1.9203  0.8287
  228MOL    H5241366   0.211   4.377   0.001 -0.6213 -2.4970  0.9713
  228MOL    H5341367   0.442   4.409   0.114 -1.0924  1.1329 -1.7251
  228MOL    H5441368   0.352   4.267   0.149 -0.2929 -0.9649 -1.1664
  228MOL    H5541369   0.484   4.258   0.022  1.3761  0.6251  0.6228
  228MOL    C5641370   0.354   4.463   7.566  0.0836 -1.4348  0.2601
  228MOL    C5741371   0.250   4.533   7.476  0.5068  0.1278 -0.0516
  228MOL    C5841372   0.147   4.608   7.554 -0.2277  0.4666  0.6877
  228MOL    H5941373   0.393   4.537   7.636 -2.4504  0.0241  0.1804
  228MOL    H6041374   0.437   4.425   7.506 -0.3714 -0.9430 -0.6761
  228MOL    H6141375   0.206   4.449   7.421 -1.0574  1.0361 -0.2211
  228MOL    H6241376   0.193   4.687   7.613 -0.0584  1.6467 -0.9673
  228MOL    H6341377   0.081   4.664   7.487 -1.2793 -1.0129  0.4563
  228MOL    H6441378   0.083   4.556   7.625 -0.2190 -0.9490 -0.3238
  228MOL    C6541379   0.320   4.624   7.383  0.7190 -0.5407  0.3040
  228MOL    C6641380   0.414   4.729   7.453 -0.3931  0.1923 -0.4736
  228MOL    C6741381   0.560   4.688   7.441 -0.6847  0.4404 -0.4145
  228MOL    H6841382   0.372   4.579   7.299 -0.8724  2.4495 -2.3803
  228MOL    H6941383   0.244   4.678   7.327 -0.0277 -0.3789  1.4349
  228MOL    H7041384   0.383   4.754   7.554 -0.9098  2.1624 -1.0932
  228MOL    H7141385   0.585   4.598   7.496 -2.2219  1.1775  1.5549
  228MOL    H7241386   0.583   4.661   7.338  2.8290 -0.3330  0.4950
  228MOL    H7341387   0.621   4.765   7.488  0.8814 -2.2582  2.0912
  228MOL    C7441388   0.394   4.870   7.382  0.0711  0.0853 -0.1696
  228MOL    C7541389   0.262   4.949   7.399  0.8076  0.3429 -0.8803
  228MOL    C7641390   0.251   5.006   7.540 -0.4085 -0.2878  0.0957
  228MOL    H7741391   0.467   4.939   7.424 -1.4430  0.4237  2.0417
  228MOL    H7841392   0.426   4.845   7.282 -0.6777 -3.1809  0.3419
  228MOL    H7941393   0.176   4.887   7.378  0.1363  0.7872  0.4669
  228MOL    H8041394   0.158   5.059   7.560 -0.9248 -0.5647 -1.4802
  228MOL    H8141395   0.251   4.917   7.604 -0.8969 -1.2038 -1.1440
  228MOL    H8241396   0.330   5.075   7.570 -0.2319 -0.4676  0.0418
  228MOL    C8341397   0.242   5.067   7.307  0.2708  0.8010  1.2359
  228MOL    C8441398   0.236   5.030   7.158  0.1406 -0.0408 -0.3756
  228MOL    C8541399   0.136   4.916   7.122 -0.2472  0.8304  0.3094
  228MOL    H8641400   0.144   5.108   7.333 -3.0044 -3.8947 -2.7577
  228MOL    H8741401   0.317   5.146   7.315 -0.5372  1.6169  0.8595
  228MOL    H8841402   0.332   4.994   7.122  0.0204  0.6581 -1.4163
  228MOL    H8941403   0.192   4.824   7.141 -0.2959  0.6839 -0.2267
  228MOL    H9041404   0.042   4.912   7.177 -0.8415 -1.1730 -0.7624
  228MOL    H9141405   0.106   4.926   7.017 -1.7305 -0.0861  0.6273
  228MOL    C9241406   0.211   5.150   7.069 -0.2463 -0.5579 -0.0176
  228MOL    C9341407   0.333   5.236   7.026  0.3110 -0.7020 -0.0500
  228MOL    C9441408   0.425   5.149   6.938 -0.1007  0.0580  0.3546
  228MOL    H9541409   0.154   5.128   6.979  0.0458  0.0542 -0.3559
  228MOL    H9641410   0.139   5.212   7.123  0.8481  0.6718  0.0584
  228MOL    H9741411   0.390   5.258   7.116  0.5744  1.1279 -0.6536
  228MOL    H9841412   0.452   5.061   6.997  0.9272  0.1321 -0.0126
  228MOL    H9941413   0.374   5.110   6.850  0.8852 -0.0752 -0.1555
  228MOL   H10041414   0.517   5.199   6.910 -0.2136 -1.0672 -2.1386
  228MOL   C10141415   0.286   5.363   6.960  0.5161  0.0389 -0.2317
  228MOL   C10241416   0.393   5.466   6.912  0.4956  0.7059 -0.4105
  228MOL   C10341417   0.338   5.573   6.819  0.1122  0.0972  0.4175
  228MOL   H10441418   0.228   5.333   6.873  2.8096 -1.4641 -1.2654
  228MOL   H10541419   0.210   5.416   7.019 -1.7787 -0.9141 -2.2491
  228MOL   H10641420   0.464   5.409   6.852  0.9894 -1.4695  2.1596
  228MOL   H10741421   0.258   5.534   6.756  1.4380  1.3988 -2.1628
  228MOL   H10841422   0.310   5.671   6.858  4.2944  3.0554 -3.5040
  228MOL   H10941423   0.414   5.600   6.746  0.1018 -0.1802  0.3020
  228MOL   C11041424   0.462   5.539   7.035 -1.0340 -0.2613  0.9517
  228MOL   C11141425   0.574   5.636   7.004 -0.7017 -0.5047  0.2073
  228MOL   C11241426   0.573   5.747   7.107  0.0826  0.0497  0.3751
  228MOL   H11341427   0.383   5.592   7.088  0.3422  1.6905  1.0986
  228MOL   H11441428   0.510   5.475   7.109 -0.3994  0.2266  0.9737
  228MOL   H11541429   0.550   5.691   6.912 -2.9066  0.6157  1.4242
  228MOL   H11641430   0.647   5.827   7.106 -1.1110  1.1871  0.6514
  228MOL   H11741431   0.474   5.793   7.107  1.4282  3.0734  2.2310
  228MOL   H11841432   0.578   5.707   7.208 -0.4024 -3.3789 -0.9091
  228MOL   C11941433   0.714   5.565   6.989  0.4621 -0.1312  0.1064
  228MOL   C12041434   0.737   5.466   6.871 -0.2687  0.1107  0.3944
  228MOL   C12141435   0.722   5.532   6.732  0.0615  0.0327  0.0538
  228MOL   H12241436   0.790   5.640   6.966  1.5787 -0.1982  3.2891
  228MOL   H12341437   0.749   5.521   7.083  1.0201  0.7421  0.3120
  228MOL   H12441438   0.657   5.393   6.880 -0.3738 -0.3047 -3.4127
  228MOL   H12541439   0.711   5.458   6.654 -0.9992  0.2306  0.0104
  228MOL   H12641440   0.646   5.610   6.733 -1.0043 -0.9788 -1.1842
  228MOL   H12741441   0.810   5.593   6.711 -0.5340  0.9122  0.0907
  228MOL   C12841442   0.872   5.388   6.892 -0.4921 -0.3252 -0.1221
  228MOL   C12941443   0.906   5.279   6.788 -1.0272 -0.7193 -0.0347
  228MOL   C13041444   1.041   5.214   6.820  0.1269 -0.3332  0.1935
  228MOL   H13141445   0.955   5.457   6.913 -1.5336  0.9653 -0.2108
  228MOL   H13241446   0.880   5.334   6.987 -0.1097  0.0869  0.0840
  228MOL   H13341447   0.923   5.328   6.692  1.2562  1.1828  1.2669
  228MOL   H13441448   1.117   5.289   6.842 -1.5462  1.3909  0.2088
  228MOL   H13541449   1.022   5.145   6.902 -3.3869  0.6711  0.2946
  228MOL   H13641450   1.081   5.149   6.741  0.6514 -0.1596  0.3175
  228MOL   C13741451   0.798   5.169   6.768 -0.0152  0.1095 -0.0286
  228MOL   C13841452   0.807   5.082   6.640  0.6552 -0.0594  0.2523
  228MOL   C13941453   0.886   4.945   6.660 -0.5127  0.1323 -0.0569
  228MOL   H14041454   0.796   5.095   6.848  0.3058  2.5282  2.2956
  228MOL   H14141455   0.707   5.229   6.768 -0.1108  0.0117  2.5340
  228MOL   H14241456   0.859   5.144   6.567 -1.0191  0.7144 -0.3035
  228MOL   H14341457   0.873   4.877   6.576 -2.9796 -0.1879  0.5450
  228MOL   H14441458   0.992   4.960   6.677 -1.2753  1.7452  3.7138
  228MOL   H14541459   0.847   4.891   6.747 -0.6590 -1.5856 -1.1648
  228MOL   C14641460   0.674   5.057   6.581  0.2180 -0.3043  0.8925
  228MOL   C14741461   0.596   5.178   6.516 -0.2647  0.0730  0.2842
  228MOL   C14841462   0.673   5.233   6.391  0.1213 -0.7018 -0.2887
  228MOL   H14941463   0.691   4.990   6.496 -1.1804  2.2344 -1.4855
  228MOL   H15041464   0.617   5.001   6.655 -0.6182  1.1573  1.3945
  228MOL   H15141465   0.578   5.251   6.594  2.1360  1.2709 -0.2169
  228MOL   H15241466   0.754   5.286   6.442  0.3477 -0.3325 -1.0325
  228MOL   H15341467   0.707   5.173   6.308  1.1472  2.3714 -2.1790
  228MOL   H15441468   0.620   5.313   6.340  0.5781  0.5640  1.1648
  228MOL   C15541469   0.466   5.130   6.451  0.0040 -0.0160  0.1847
  228MOL   C15641470   0.341   5.117   6.543  0.0032  0.1879 -0.0624
  228MOL   C15741471   0.284   5.252   6.584  0.2024 -1.2509 -0.0290
  228MOL   H15841472   0.445   5.203   6.374  0.5234 -1.1241 -1.0196
  228MOL   H15941473   0.482   5.034   6.401  1.4379  0.1842  0.2484
  228MOL   H16041474   0.359   5.065   6.637  2.0719 -1.1750 -1.1629
  228MOL   H16141475   0.222   5.230   6.671  0.4027 -1.4771  0.0563
  228MOL   H16241476   0.363   5.326   6.592  0.7724 -2.0087  1.3327
  228MOL   H16341477   0.218   5.294   6.508 -0.6760 -0.7542  0.9962
  228MOL   C16441478   0.230   5.032   6.469  0.8063  0.7206 -0.1643
  228MOL   C16541479   0.091   5.025   6.543  0.7205  0.0112 -0.0490
  228MOL   C16641480   7.680   4.943   6.457  0.1732  0.3764 -0.9716
  228MOL   H16741481   0.211   5.072   6.370  0.2737  0.0247 -0.3408
  228MOL   H16841482   0.259   4.928   6.457  1.2620  0.9314 -0.9335
  228MOL   H16941483   0.054   5.127   6.553 -0.3080 -0.4954  1.4901
  228MOL   H17041484   7.577   4.942   6.491  0.2995  0.6634 -0.5730
  228MOL   H17141485   7.688   4.991   6.359  0.8101  1.9113 -0.1790
  228MOL   H17241486   0.009   4.838   6.449  0.9134  0.4301  0.6287
  228MOL   C17341487   0.096   4.968   6.688  0.3271  0.0426 -0.4764
  228MOL   C17441488   7.653   4.963   6.754 -0.1054  0.2719 -0.0476
  228MOL   C17541489   7.592   5.095   6.766  0.1210  0.4777 -0.0102
  228MOL   H17641490   0.131   4.865   6.691 -1.5578 -0.5784  0.8492
  228MOL   H17741491   0.163   5.025   6.752 -0.3468  0.1767  0.1122
  228MOL   H17841492   7.664   4.927   6.857 -0.9544  0.0851 -0.0170
  228MOL   H17941493   7.660   5.168   6.811 -0.0976 -0.1040  1.3080
  228MOL   H18041494   7.559   5.134   6.670  0.6183  0.6797 -0.0993
  228MOL   H18141495   7.500   5.085   6.823  0.6112 -0.7239  0.5799
  228MOL   H18241496   7.592   4.887   6.705 -1.0973  0.2613  1.1658
  229MOL     C141497   4.552   1.974   3.102  0.0930  0.4344 -0.4284
  229MOL     C241498   4.548   1.899   3.236  0.0008 -0.2295 -0.3414
  229MOL     C341499   4.678   1.916   3.314  0.1162 -0.4582 -0.0826
  229MOL     H441500   4.507   2.073   3.106 -1.1325 -0.1249 -0.0426
  229MOL     H541501   4.501   1.918   3.024  1.9999 -0.9979 -0.6663
  229MOL     H641502   4.528   1.795   3.213  0.7379 -0.3917 -0.2408
  229MOL     H741503   4.671   1.839   3.390  0.7588  0.1467  0.6067
  229MOL     H841504   4.771   1.899   3.260 -1.0596  0.1361 -2.3189
  229MOL     H941505   4.692   2.010   3.368 -0.3354 -0.4731  0.0669
  229MOL    H1041506   4.657   1.983   3.073  0.3696 -1.6063 -0.1330
  229MOL    C1141507   4.417   1.938   3.308  0.1959  0.3620 -0.0251
  229MOL    C1241508   4.366   1.857   3.430  1.4219  0.0476 -0.1854
  229MOL    C1341509   4.250   1.922   3.503 -0.2546  0.2462 -0.5732
  229MOL    H1441510   4.425   2.035   3.357 -1.0834  0.1889  0.5321
  229MOL    H1541511   4.334   1.936   3.239  0.8172 -2.3996 -0.7656
  229MOL    H1641512   4.453   1.841   3.494  0.4876 -0.3803  0.9977
  229MOL    H1741513   4.266   2.030   3.506 -0.9304  0.3120  1.4794
  229MOL    H1841514   4.162   1.906   3.442 -0.0347  1.6268 -1.2812
  229MOL    H1941515   4.234   1.884   3.604 -0.2879 -1.1241 -1.0893
  229MOL    C2041516   4.324   1.708   3.387  0.3268 -0.6464  0.5699
  229MOL    C2141517   4.301   1.617   3.515 -0.3133 -0.2923  0.3154
  229MOL    C2241518   4.154   1.587   3.565 -0.1209 -0.0590 -0.1859
  229MOL    H2341519   4.234   1.717   3.326  1.0164  1.0222 -0.2077
  229MOL    H2441520   4.406   1.667   3.327 -0.7092 -0.7484 -0.7950
  229MOL    H2541521   4.341   1.670   3.602 -0.0297 -1.3519  0.8424
  229MOL    H2641522   4.103   1.510   3.507  3.8795 -0.6895 -3.0617
  229MOL    H2741523   4.158   1.544   3.665  1.7120 -2.5028 -1.2600
  229MOL    H2841524   4.102   1.683   3.560 -0.7987 -0.2935  1.7757
  229MOL    C2941525   4.377   1.485   3.500 -1.0882  0.1163 -0.7471
  229MOL    C3041526   4.526   1.500   3.541  0.1643  0.0679  0.0228
  229MOL    C3141527   4.548   1.493   3.686 -0.6825  0.3898 -0.1078
  229MOL    H3241528   4.322   1.419   3.567 -0.1875 -0.2499 -0.3627
  229MOL    H3341529   4.366   1.438   3.402 -2.6800  0.9172 -0.9759
  229MOL    H3441530   4.564   1.596   3.506 -0.5330 -0.2697 -1.7214
  229MOL    H3541531   4.528   1.390   3.715 -0.5498  0.4409  0.1662
  229MOL    H3641532   4.653   1.504   3.715 -0.4264  0.2130 -0.9386
  229MOL    H3741533   4.493   1.569   3.740 -0.9908 -0.1866  0.4008
  229MOL    C3841534   4.618   1.406   3.466  0.9979 -0.3541 -0.1226
  229MOL    C3941535   4.664   1.451   3.325 -0.0264 -1.1934 -0.0382
  229MOL    C4041536   4.782   1.554   3.341 -0.0045  0.3252 -0.1574
  229MOL    H4141537   4.708   1.386   3.524 -0.1155 -0.5070  1.5964
  229MOL    H4241538   4.561   1.314   3.449 -0.8650  0.8414 -0.4540
  229MOL    H4341539   4.580   1.502   3.278  2.3725 -1.1358 -4.5700
  229MOL    H4441540   4.773   1.598   3.440 -1.7618 -1.7210  0.6362
  229MOL    H4541541   4.878   1.504   3.340  0.0233  0.3392  1.4670
  229MOL    H4641542   4.780   1.636   3.269  0.8082  0.5957  0.1322
  229MOL    C4741543   4.709   1.341   3.224 -0.4085 -0.3559  0.4993
  229MOL    C4841544   4.751   1.402   3.087 -0.3292  0.3385 -0.2728
  229MOL    C4941545   4.876   1.327   3.039  0.1822  0.7676 -0.1885
  229MOL    H5041546   4.794   1.287   3.264 -0.3095 -1.1043 -0.6967
  229MOL    H5141547   4.634   1.265   3.201 -0.9290  0.3497 -0.1744
  229MOL    H5241548   4.780   1.506   3.099  0.8401 -0.2396  2.0966
  229MOL    H5341549   4.913   1.369   2.946  0.1456 -2.4647 -1.7451
  229MOL    H5441550   4.960   1.326   3.109 -1.0754 -0.1270  1.3667
  229MOL    H5541551   4.855   1.223   3.012 -0.2944  1.2190 -1.5730
  229MOL    C5641552   4.642   1.387   2.979  0.5298  0.0863 -0.2115
  229MOL    C5741553   4.531   1.495   2.987  0.5410  0.4582 -0.7328
  229MOL    C5841554   4.595   1.629   2.982  0.2461 -0.0183  0.5402
  229MOL    H5941555   4.695   1.364   2.887 -0.0264 -2.8605  0.1587
  229MOL    H6041556   4.591   1.291   2.994 -1.3095  0.8994 -1.0761
  229MOL    H6141557   4.486   1.495   3.087 -0.3117 -1.7990 -1.0927
  229MOL    H6241558   4.646   1.633   2.886  0.3008 -1.1747  0.5151
  229MOL    H6341559   4.519   1.707   2.976  1.3368  0.9370 -1.0899
  229MOL    H6441560   4.661   1.663   3.062  0.5744  0.6934 -0.0252
  229MOL    C6541561   4.425   1.454   2.879  0.8369 -0.4685  0.6977
  229MOL    C6641562   4.306   1.542   2.861  0.2476 -0.4326  0.3125
  229MOL    C6741563   4.238   1.500   2.739  0.1348  0.0761 -0.1307
  229MOL    H6841564   4.483   1.445   2.787  0.7392 -0.0744  0.5934
  229MOL    H6941565   4.393   1.354   2.907 -3.4182  0.1221 -1.6977
  229MOL    H7041566   4.345   1.643   2.845 -0.5382 -0.4353 -1.7951
  229MOL    H7141567   4.304   1.475   2.656  0.6122  1.8170 -0.2816
  229MOL    H7241568   4.158   1.428   2.759  0.6150 -0.6156 -0.6545
  229MOL    H7341569   4.175   1.582   2.705 -1.5763 -1.2489 -0.2472
  229MOL    C7441570   4.218   1.524   2.986 -0.5500  0.0561  0.7687
  229MOL    C7541571   4.099   1.619   2.993 -0.0249  0.0523 -0.1007
  229MOL    C7641572   4.005   1.581   3.108  0.3487  0.4795 -0.1201
  229MOL    H7741573   4.190   1.420   3.000 -2.1102  0.1225 -1.5345
  229MOL    H7841574   4.284   1.539   3.071  1.6053 -0.5429 -0.7842
  229MOL    H7941575   4.041   1.595   2.904 -0.2648  1.4840 -0.3462
  229MOL    H8041576   4.061   1.572   3.201 -1.5430  0.4337  1.0354
  229MOL    H8141577   3.919   1.647   3.122  0.4365  0.4630  0.5384
  229MOL    H8241578   3.968   1.481   3.085 -2.7912  1.8441 -1.3271
  229MOL    C8341579   4.147   1.770   2.996  0.5964  0.1226 -0.3566
  229MOL    C8441580   4.036   1.869   2.973  0.0608 -0.7673 -0.0685
  229MOL    C8541581   4.072   2.003   3.030 -0.1628  1.1964 -0.4996
  229MOL    H8641582   4.203   1.786   3.088  0.9143  0.9152 -0.6919
  229MOL    H8741583   4.225   1.805   2.929 -0.2804  1.3011 -0.7751
  229MOL    H8841584   3.946   1.832   3.022  0.2386 -0.8281  0.2140
  229MOL    H8941585   4.077   1.991   3.138  1.4229  0.2143 -0.6670
  229MOL    H9041586   4.173   2.030   3.000  0.0238  0.6095 -0.4034
  229MOL    H9141587   3.999   2.078   3.000 -0.2312  1.7378  0.9825
  229MOL    C9241588   4.020   1.885   2.824  0.1285 -0.4700  0.2365
  229MOL    C9341589   3.897   1.959   2.772  0.1889 -0.1014 -0.3289
  229MOL    C9441590   3.917   2.008   2.632  0.0549 -0.0494 -0.7307
  229MOL    H9541591   4.105   1.941   2.786  0.2856  0.4316  1.8608
  229MOL    H9641592   4.032   1.786   2.780  2.0655 -0.0240 -0.3001
  229MOL    H9741593   3.881   2.046   2.836  1.1200 -0.0426 -0.1571
  229MOL    H9841594   4.001   2.078   2.638  0.6068 -0.7960  0.5047
  229MOL    H9941595   3.948   1.927   2.566 -0.3537  0.6978 -1.8460
  229MOL   H10041596   3.826   2.055   2.595 -1.2456 -1.9768 -0.0696
  229MOL   C10141597   3.774   1.881   2.792 -0.0170  0.6412  0.4164
  229MOL   C10241598   3.691   1.928   2.917  0.0387  0.6578 -0.2134
  229MOL   C10341599   3.640   2.071   2.903  0.1532 -0.5665  0.3114
  229MOL   H10441600   3.710   1.905   2.707 -1.7728  0.0735  1.5556
  229MOL   H10541601   3.788   1.774   2.781  0.5695  0.8270 -0.7764
  229MOL   H10641602   3.756   1.920   3.004 -0.5759  1.1254  0.2971
  229MOL   H10741603   3.721   2.143   2.887 -1.4845  1.0946 -0.6922
  229MOL   H10841604   3.564   2.074   2.826 -1.2526  0.0392  1.6979
  229MOL   H10941605   3.583   2.099   2.992 -1.6046 -0.0641 -0.9503
  229MOL   C11041606   3.579   1.825   2.953 -0.1919 -0.4079  0.4709
  229MOL   C11141607   3.628   1.703   3.036 -0.1799  0.0540 -0.6321
  229MOL   C11241608   3.638   1.752   3.188  0.1892 -0.5944  0.0850
  229MOL   H11341609   3.502   1.890   2.994  0.4358  0.6412  0.0116
  229MOL   H11441610   3.527   1.793   2.862 -0.2121  0.6646  0.0864
  229MOL   H11541611   3.729   1.672   3.011  0.0394 -0.3758  0.7774
  229MOL   H11641612   3.624   1.671   3.260 -1.2458 -0.1564  0.3251
  229MOL   H11741613   3.737   1.797   3.191 -0.2796  0.4775 -0.2394
  229MOL   H11841614   3.566   1.828   3.218 -0.4864 -1.2353  0.1271
  229MOL   C11941615   3.530   1.590   3.024 -0.1941  0.2918 -0.3032
  229MOL   C12041616   3.562   1.491   2.911  0.1825 -0.3540 -0.2211
  229MOL   C12141617   3.658   1.385   2.965  0.3230  0.1456 -0.0219
  229MOL   H12241618   3.522   1.533   3.116 -3.0778  0.0200 -0.6625
  229MOL   H12341619   3.427   1.625   3.025  0.7461  3.2166 -0.2205
  229MOL   H12441620   3.610   1.534   2.822 -1.2510 -0.1142 -0.8946
  229MOL   H12541621   3.682   1.325   2.877 -0.1110 -3.8206  2.4400
  229MOL   H12641622   3.745   1.434   3.009 -0.5901  0.3195  1.6377
  229MOL   H12741623   3.609   1.320   3.038 -1.9380 -0.1955 -1.7570
  229MOL   C12841624   3.432   1.426   2.853 -0.2078  0.4157 -0.4943
  229MOL   C12941625   3.347   1.516   2.755  0.2700  0.2925  0.5434
  229MOL   C13041626   3.431   1.549   2.635 -0.0132  0.8579  0.4129
  229MOL   H13141627   3.462   1.332   2.807 -0.3777  1.0986 -2.0457
  229MOL   H13241628   3.380   1.386   2.940  1.0721 -1.0424 -0.3845
  229MOL   H13341629   3.325   1.606   2.812  0.1675 -0.1998  1.2930
  229MOL   H13441630   3.477   1.453   2.613 -0.1408  1.1141 -1.0271
  229MOL   H13541631   3.377   1.578   2.544  0.7331  0.8923 -0.0285
  229MOL   H13641632   3.515   1.618   2.645  1.5236 -0.8975  0.0240
  229MOL   C13741633   3.218   1.434   2.702 -0.1735 -0.0623  0.0474
  229MOL   C13841634   3.116   1.386   2.804  0.2680 -0.2284 -0.3860
  229MOL   C13941635   3.067   1.489   2.895  0.8310 -0.2577 -0.9811
  229MOL   H14041636   3.165   1.486   2.622 -1.9514 -1.6483  0.1451
  229MOL   H14141637   3.252   1.339   2.662 -0.7519 -0.5954  0.7944
  229MOL   H14241638   3.167   1.302   2.852 -1.4808 -1.5761 -0.8179
  229MOL   H14341639   3.027   1.578   2.846  0.8982  1.2444  1.6187
  229MOL   H14441640   2.993   1.456   2.967  2.1388  0.1319  0.5815
  229MOL   H14541641   3.151   1.525   2.955 -0.5867  1.2916  0.1263
  229MOL   C14641642   2.997   1.332   2.723 -0.5981 -0.5254 -0.1016
  229MOL   C14741643   3.024   1.213   2.624 -0.1277  0.2783  0.2648
  229MOL   C14841644   3.084   1.093   2.698 -0.2202  0.2222 -0.3448
  229MOL   H14941645   2.920   1.294   2.791  0.4422 -1.0606  0.7950
  229MOL   H15041646   2.946   1.419   2.683  0.5331 -0.9733 -2.5758
  229MOL   H15141647   3.091   1.236   2.541 -1.4725  1.2649 -0.5724
  229MOL   H15241648   3.073   1.006   2.632  1.4772 -0.9146  0.8213
  229MOL   H15341649   3.189   1.109   2.723 -0.0100 -0.9599 -0.4099
  229MOL   H15441650   3.027   1.067   2.787  0.8253 -1.8557 -0.2511
  229MOL   C15541651   2.894   1.180   2.547  0.5212  0.3644 -0.2470
  229MOL   C15641652   2.843   1.296   2.448  0.3594 -0.4045 -0.6611
  229MOL   C15741653   2.931   1.348   2.339 -0.4353 -0.0422  0.9281
  229MOL   H15841654   2.908   1.098   2.477 -3.9556 -0.7712  0.0273
  229MOL   H15941655   2.820   1.146   2.619  1.8721  0.5594  1.2540
  229MOL   H16041656   2.833   1.392   2.499  1.4409  0.2337 -1.6271
  229MOL   H16141657   3.029   1.381   2.372 -0.7298  0.6848  1.0991
  229MOL   H16241658   2.952   1.267   2.270  1.7470  1.8507 -0.7060
  229MOL   H16341659   2.881   1.434   2.293  0.0920 -0.3304 -0.1847
  229MOL   C16441660   2.711   1.250   2.377  0.0297 -0.3620  0.2077
  229MOL   C16541661   2.580   1.268   2.456  0.6416 -0.1356  0.4280
  229MOL   C16641662   2.561   1.400   2.516  0.5412 -0.3101  0.4043
  229MOL   H16741663   2.706   1.305   2.283  1.3896 -0.1247  0.2738
  229MOL   H16841664   2.717   1.143   2.353 -1.0487 -0.4606  0.3237
  229MOL   H16941665   2.597   1.204   2.542 -1.7871 -1.2642  0.1138
  229MOL   H17041666   2.581   1.486   2.451  0.2851  0.1642  0.9471
  229MOL   H17141667   2.457   1.409   2.549  0.3947 -2.1039  0.4782
  229MOL   H17241668   2.615   1.412   2.609  1.7715 -2.6543  0.0219
  229MOL   C17341669   2.458   1.212   2.378 -0.9829  0.3286  0.2137
  229MOL   C17441670   2.326   1.194   2.456 -0.7186 -0.0056  0.8379
  229MOL   C17541671   2.203   1.275   2.421 -0.8260  0.3195  0.0928
  229MOL   H17641672   2.431   1.269   2.289 -0.1748 -0.0202 -0.2638
  229MOL   H17741673   2.483   1.116   2.333 -0.8958  0.7341 -0.6073
  229MOL   H17841674   2.353   1.203   2.561  0.5982 -0.0853  0.5102
  229MOL   H17941675   2.237   1.372   2.384 -0.3120 -0.3363 -1.2001
  229MOL   H18041676   2.143   1.210   2.357  1.8926 -1.4438 -0.7534
  229MOL   H18141677   2.138   1.303   2.504 -2.1139 -0.7845 -0.5244
  229MOL   H18241678   2.290   1.091   2.450 -0.9943  0.1352 -0.0571
  230MOL     C141679   1.048   1.541   0.692 -0.5418  0.0955 -0.2550
  230MOL     C241680   1.198   1.521   0.694  1.1486 -0.5045  0.5488
  230MOL     C341681   1.234   1.370   0.705  0.3564 -0.3744  0.2789
  230MOL     H441682   1.000   1.536   0.594 -1.8042  0.9182  0.3253
  230MOL     H541683   1.016   1.635   0.735  0.9083  1.0165 -1.1152
  230MOL     H641684   1.232   1.570   0.786  0.3088  3.3084 -1.0595
  230MOL     H741685   1.195   1.326   0.797 -0.7090  2.5211  1.2632
  230MOL     H841686   1.204   1.321   0.613 -0.7981 -2.3182  1.6387
  230MOL     H941687   1.341   1.356   0.718  0.3094 -1.2165 -0.2210
  230MOL    H1041688   1.001   1.468   0.757 -1.6720  1.5963  0.6378
  230MOL    C1141689   1.271   1.590   0.581 -0.6516 -0.3397 -0.4402
  230MOL    C1241690   1.292   1.741   0.597 -0.0966 -0.6691  0.3505
  230MOL    C1341691   1.383   1.773   0.716 -0.7522  0.5765 -0.0771
  230MOL    H1441692   1.371   1.545   0.579 -1.5046 -2.2801  0.0553
  230MOL    H1541693   1.225   1.563   0.487 -0.2767  0.3744 -0.8299
  230MOL    H1641694   1.196   1.787   0.621 -1.2297 -2.4932 -0.5603
  230MOL    H1741695   1.420   1.875   0.721 -0.5791  0.4285  2.5378
  230MOL    H1841696   1.321   1.765   0.806  0.6047 -0.1079  0.8088
  230MOL    H1941697   1.474   1.714   0.725  0.4418  1.8294 -3.3820
  230MOL    C2041698   1.354   1.805   0.472  0.1410  0.2866 -0.6102
  230MOL    C2141699   1.258   1.801   0.350 -0.5793 -0.4465  0.1988
  230MOL    C2241700   1.110   1.824   0.377 -0.0001 -0.5406  0.0731
  230MOL    H2341701   1.365   1.909   0.501 -1.7452  1.0155 -2.4026
  230MOL    H2441702   1.449   1.756   0.456 -2.1352 -4.3321 -0.8284
  230MOL    H2541703   1.264   1.697   0.318 -1.3922 -0.0406 -1.3052
  230MOL    H2641704   1.075   1.748   0.447  0.5635 -1.6137 -0.7803
  230MOL    H2741705   1.091   1.916   0.432  0.7200 -0.7867  0.7367
  230MOL    H2841706   1.053   1.839   0.285 -1.0296 -2.2647  0.4062
  230MOL    C2941707   1.303   1.901   0.240 -0.3216  0.0460  0.5277
  230MOL    C3041708   1.434   1.859   0.167 -0.0649 -0.0032 -0.5158
  230MOL    C3141709   1.414   1.720   0.102  0.3159  0.1763  0.1879
  230MOL    H3241710   1.226   1.909   0.163 -2.1201  0.5605  2.3417
  230MOL    H3341711   1.315   2.000   0.284  1.9939 -0.6515  1.4975
  230MOL    H3441712   1.510   1.837   0.241  0.7020  0.9606 -0.9940
  230MOL    H3541713   1.497   1.686   0.039  0.2223 -0.2903  0.3098
  230MOL    H3641714   1.400   1.643   0.178 -0.7931  2.9078  2.8034
  230MOL    H3741715   1.321   1.705   0.046 -0.4727 -1.2464  1.8331
  230MOL    C3841716   1.495   1.966   0.065  0.8497  1.1030 -0.2224
  230MOL    C3941717   1.530   2.105   0.125  0.0095  0.1508 -0.2796
  230MOL    C4041718   1.630   2.096   0.241 -0.5795 -0.3931  0.0831
  230MOL    H4141719   1.587   1.928   0.022 -0.4398 -3.0186  0.4686
  230MOL    H4241720   1.430   1.985   7.678  0.5882  2.0091  0.1737
  230MOL    H4341721   1.437   2.147   0.163 -0.5375 -0.3464 -1.0698
  230MOL    H4441722   1.660   2.194   0.276 -0.5358 -0.6018  0.6424
  230MOL    H4541723   1.574   2.058   0.327 -1.9507 -3.0966 -1.9305
  230MOL    H4641724   1.718   2.040   0.210  0.4484 -0.2281  2.5590
  230MOL    C4741725   1.600   2.205   0.023  0.0898  0.5456  0.7576
  230MOL    C4841726   1.641   2.347   0.082  0.0032 -0.5092  0.2142
  230MOL    C4941727   1.680   2.437   7.662 -0.9503 -0.1123  0.7311
  230MOL    H5041728   1.698   2.163   7.696  0.0304  1.0455 -0.3613
  230MOL    H5141729   1.548   2.198   7.625 -0.5628 -2.5669  1.2980
  230MOL    H5241730   1.728   2.332   0.147 -0.1656 -1.6215  0.1993
  230MOL    H5341731   1.595   2.470   7.603 -0.1061 -0.6438 -0.8129
  230MOL    H5441732   1.734   2.523   0.005 -1.7453  0.6582  0.1745
  230MOL    H5541733   1.746   2.391   7.588 -2.5872 -0.4464 -0.5466
  230MOL    C5641734   1.522   2.413   0.167 -0.1705 -0.0004 -0.1059
  230MOL    C5741735   1.558   2.536   0.256  0.5921  0.4825 -0.1925
  230MOL    C5841736   1.420   2.595   0.313 -0.4593  0.5510  0.1334
  230MOL    H5941737   1.429   2.422   0.111 -0.3762  1.8291  0.4950
  230MOL    H6041738   1.491   2.342   0.244  0.1439  0.7539  0.7206
  230MOL    H6141739   1.606   2.602   0.184 -1.4499  2.1595 -0.0719
  230MOL    H6241740   1.355   2.533   0.374 -0.3764  0.6143  0.2854
  230MOL    H6341741   1.433   2.684   0.375  0.7047  1.9992 -2.1288
  230MOL    H6441742   1.355   2.637   0.236  1.5946  0.7251 -1.5489
  230MOL    C6541743   1.657   2.506   0.368  0.3443  0.5775  0.3823
  230MOL    C6641744   1.779   2.609   0.398  0.1786 -0.5761 -0.0026
  230MOL    C6741745   1.877   2.619   0.284  0.2579 -0.0908  0.0159
  230MOL    H6841746   1.606   2.497   0.463  0.6154 -0.2903  0.4463
  230MOL    H6941747   1.691   2.403   0.363 -0.5270  0.1425  2.8293
  230MOL    H7041748   1.823   2.557   0.483 -0.4535 -2.8417 -1.0260
  230MOL    H7141749   1.957   2.688   0.309 -1.6483  2.1786  0.0366
  230MOL    H7241750   1.909   2.518   0.259 -1.4481 -0.8340  0.7373
  230MOL    H7341751   1.837   2.653   0.188 -1.7200 -1.4347  0.3287
  230MOL    C7441752   1.734   2.746   0.453  0.4516 -0.0965 -1.2703
  230MOL    C7541753   1.708   2.749   0.604 -0.1970 -0.3650  0.2549
  230MOL    C7641754   1.823   2.703   0.689 -0.3034 -0.0799 -0.0681
  230MOL    H7741755   1.810   2.822   0.432  2.2354 -1.2955  0.6239
  230MOL    H7841756   1.647   2.790   0.405 -0.3464  0.0459  0.2835
  230MOL    H7941757   1.634   2.673   0.631 -2.1875  1.3294 -0.3030
  230MOL    H8041758   1.914   2.750   0.650 -1.0927  0.7129 -0.9871
  230MOL    H8141759   1.805   2.735   0.792  2.1222  0.4061  0.2365
  230MOL    H8241760   1.840   2.596   0.679  0.8886 -0.0050  0.9866
  230MOL    C8341761   1.646   2.880   0.660  0.6775 -0.2414  0.0152
  230MOL    C8441762   1.501   2.912   0.638  0.7308 -0.0788  0.4574
  230MOL    C8541763   1.407   2.803   0.689 -0.4850 -0.2564  0.0393
  230MOL    H8641764   1.688   2.887   0.761 -1.8156 -0.7280  1.1385
  230MOL    H8741765   1.701   2.961   0.614 -1.6460  2.0707  1.1586
  230MOL    H8841766   1.491   2.924   0.530 -0.0302  2.6317  0.7970
  230MOL    H8941767   1.303   2.806   0.656 -0.8068 -2.4387  0.8006
  230MOL    H9041768   1.439   2.709   0.644 -1.0703 -1.1074  1.3668
  230MOL    H9141769   1.408   2.770   0.793  0.3037 -2.1339 -0.5420
  230MOL    C9241770   1.480   3.052   0.702 -0.1646 -0.7390 -0.5178
  230MOL    C9341771   1.336   3.109   0.697 -0.3851 -0.0099  0.1565
  230MOL    C9441772   1.263   3.066   0.829 -0.1601 -0.0527  0.4587
  230MOL    H9541773   1.498   3.045   0.809 -0.5544 -1.2452 -0.4855
  230MOL    H9641774   1.552   3.121   0.657 -0.6303 -0.4811 -0.8805
  230MOL    H9741775   1.287   3.069   0.608  1.4057 -0.5688 -0.6042
  230MOL    H9841776   1.297   2.970   0.870 -1.2675  0.8983  3.8067
  230MOL    H9941777   1.274   3.124   0.921 -2.4344 -1.7573  1.8680
  230MOL   H10041778   1.156   3.063   0.810  0.2771 -0.9237 -2.0490
  230MOL   C10141779   1.329   3.269   0.691 -0.0409  0.1150  0.0223
  230MOL   C10241780   1.387   3.342   0.565  0.4933  0.2344  0.2316
  230MOL   C10341781   1.336   3.298   0.429 -0.2294 -0.0077  0.3893
  230MOL   H10441782   1.224   3.297   0.705  0.4558  1.7695  0.5335
  230MOL   H10541783   1.376   3.314   0.778  1.8214 -3.1252  0.7484
  230MOL   H10641784   1.493   3.320   0.557  0.7928  1.2283  1.3435
  230MOL   H10741785   1.331   3.190   0.415  0.0310 -0.5060  3.6910
  230MOL   H10841786   1.243   3.344   0.397  0.7503  0.2444 -2.1981
  230MOL   H10941787   1.404   3.330   0.351  1.8071 -0.3887  1.9637
  230MOL   C11041788   1.369   3.494   0.573  0.3449  0.1502 -0.2239
  230MOL   C11141789   1.488   3.558   0.657 -0.6906  0.4838  0.1487
  230MOL   C11241790   1.602   3.599   0.564  0.1574 -0.0565  0.1168
  230MOL   H11341791   1.374   3.547   0.478  0.4457 -0.2280 -0.4277
  230MOL   H11441792   1.272   3.516   0.618 -0.4266 -2.1742 -0.6879
  230MOL   H11541793   1.520   3.484   0.731  0.1318  0.0983 -0.5737
  230MOL   H11641794   1.633   3.514   0.504  0.8800  1.1490 -1.2559
  230MOL   H11741795   1.574   3.682   0.499 -0.5124  1.1894  1.9422
  230MOL   H11841796   1.683   3.632   0.628 -0.2858  2.7888 -0.7009
  230MOL   C11941797   1.449   3.683   0.731 -0.1931  0.2354  0.1237
  230MOL   C12041798   1.365   3.675   0.859 -0.2959  0.8774  0.0153
  230MOL   C12141799   1.437   3.612   0.983  0.3986  0.0961  0.2527
  230MOL   H12241800   1.531   3.750   0.758 -0.3267  0.7628 -0.7593
  230MOL   H12341801   1.390   3.742   0.662 -0.2617 -1.0421 -0.9223
  230MOL   H12441802   1.285   3.610   0.827 -1.4351  2.2251  0.0540
  230MOL   H12541803   1.362   3.592   1.060 -0.4926  1.4552 -0.2481
  230MOL   H12641804   1.475   3.514   0.954 -3.9961 -2.1100  1.5583
  230MOL   H12741805   1.525   3.663   1.023  0.1395  0.6248  0.1446
  230MOL   C12841806   1.303   3.815   0.888 -0.4473  0.8482 -0.4972
  230MOL   C12941807   1.177   3.806   0.978 -0.8972 -0.2037 -0.8430
  230MOL   C13041808   1.184   3.927   1.070 -0.2061  0.0004  0.2809
  230MOL   H13141809   1.384   3.873   0.931 -1.1839  0.4212  1.5340
  230MOL   H13241810   1.276   3.871   0.798 -2.0890  2.3627  0.8970
  230MOL   H13341811   1.190   3.720   1.045  1.0978  0.3355 -0.5113
  230MOL   H13441812   1.262   3.908   1.144 -1.9026 -2.8512  1.3959
  230MOL   H13541813   1.204   4.012   1.005  0.6667 -0.0713  0.4534
  230MOL   H13641814   1.093   3.940   1.129 -0.3757  0.2141 -0.0242
  230MOL   C13741815   1.043   3.799   0.905  0.7412 -0.2469  0.4493
  230MOL   C13841816   1.018   3.685   0.804  0.3524  1.0416 -0.0474
  230MOL   C13941817   1.025   3.550   0.876  0.6423  0.3636  1.0126
  230MOL   H14041818   0.958   3.801   0.972 -0.4391  0.1298 -1.0326
  230MOL   H14141819   1.033   3.895   0.854 -1.5583  0.2107  1.7343
  230MOL   H14241820   1.102   3.687   0.734  0.0385  2.1001 -0.3986
  230MOL   H14341821   0.927   3.526   0.918  0.0766 -1.4470 -1.1995
  230MOL   H14441822   1.037   3.468   0.805  0.1391  1.4846 -0.3992
  230MOL   H14541823   1.097   3.548   0.958 -0.1994 -1.8017  1.7493
  230MOL   C14641824   0.889   3.702   0.717 -0.1317 -0.1943  0.8571
  230MOL   C14741825   0.880   3.626   0.578 -0.0404 -0.1380  0.5414
  230MOL   C14841826   0.990   3.678   0.479  0.4741  0.4764 -0.5022
  230MOL   H14941827   0.805   3.673   0.781 -1.1848 -1.0843 -0.9048
  230MOL   H15041828   0.873   3.808   0.700 -3.3535 -0.8258 -0.3604
  230MOL   H15141829   0.790   3.665   0.531  0.7912  1.6166  0.3883
  230MOL   H15241830   1.080   3.622   0.503 -1.1982 -1.9423  0.2795
  230MOL   H15341831   0.962   3.652   0.377  2.0833  0.5564 -0.9715
  230MOL   H15441832   0.998   3.787   0.488 -1.6562  0.7423 -1.4136
  230MOL   C15541833   0.881   3.470   0.579  0.2984 -0.0395 -0.5433
  230MOL   C15641834   0.787   3.395   0.683 -0.2852  0.1469 -0.1632
  230MOL   C15741835   0.643   3.390   0.624 -0.0475  0.0866 -0.0910
  230MOL   H15841836   0.869   3.430   0.479  1.9357  1.1975 -1.2528
  230MOL   H15941837   0.980   3.438   0.612 -0.3091 -1.5973 -0.1519
  230MOL   H16041838   0.776   3.443   0.780  0.5491 -2.0371  1.0544
  230MOL   H16141839   0.644   3.344   0.526 -0.4606 -1.3119  0.5484
  230MOL   H16241840   0.573   3.339   0.690  2.1052 -0.5318  1.8150
  230MOL   H16341841   0.615   3.491   0.594  1.2094 -0.1546 -2.1643
  230MOL   C16441842   0.842   3.256   0.714  0.2375 -0.3618  0.5540
  230MOL   C16541843   0.773   3.175   0.821 -0.1547  0.1334 -0.1319
  230MOL   C16641844   0.816   3.024   0.804  0.4002 -0.0568 -0.6886
  230MOL   H16741845   0.837   3.206   0.617  1.4938 -0.5137  0.5576
  230MOL   H16841846   0.947   3.259   0.745  0.6551 -0.0524 -0.8405
  230MOL   H16941847   0.665   3.181   0.804 -0.9080 -2.1541  3.1631
  230MOL   H17041848   0.924   3.008   0.803  0.4516  0.2949 -0.9184
  230MOL   H17141849   0.774   2.953   0.875  1.2688  0.5781  0.4801
  230MOL   H17241850   0.774   2.991   0.709  1.1209 -1.6174 -0.4767
  230MOL   C17341851   0.791   3.234   0.963 -0.6413 -0.4050 -0.3131
  230MOL   C17441852   0.931   3.223   1.024 -0.1028  0.1232  0.5917
  230MOL   C17541853   0.939   3.282   1.172 -0.1766  0.1524  0.5120
  230MOL   H17641854   0.763   3.339   0.959  1.6312  0.1601 -2.4399
  230MOL   H17741855   0.726   3.172   1.026  0.1130 -1.4978 -0.6005
  230MOL   H17841856   1.006   3.282   0.972 -0.3424  0.1406  0.2600
  230MOL   H17941857   0.862   3.360   1.172 -0.1722  0.2577 -3.1886
  230MOL   H18041858   0.911   3.210   1.249  0.6104 -2.4655 -1.5424
  230MOL   H18141859   1.035   3.327   1.195  0.1999  0.2369 -1.1674
  230MOL   H18241860   0.971   3.122   1.013  0.0095  0.3136 -0.9165
  231MOL     C141861   1.888   2.657   1.163 -0.0403  0.0764 -0.1450
  231MOL     C241862   1.731   2.663   1.175 -0.2620  0.3252 -0.2796
  231MOL     C341863   1.669   2.664   1.032 -0.1912 -0.1232  0.1891
  231MOL     H441864   1.932   2.698   1.072 -1.1705  1.9472  0.1239
  231MOL     H541865   1.914   2.551   1.159  0.9209  0.3138 -0.1963
  231MOL     H641866   1.708   2.760   1.220 -0.2560 -0.1439  0.7575
  231MOL     H741867   1.683   2.752   0.968 -0.9479  0.4788  0.8424
  231MOL     H841868   1.686   2.576   0.971  0.4294  1.3781 -1.8596
  231MOL     H941869   1.561   2.656   1.044 -0.4895  1.1472 -1.3921
  231MOL    H1041870   1.930   2.695   1.257  1.2712  0.5599 -0.9138
  231MOL    C1141871   1.662   2.558   1.271 -0.0547 -0.1287  0.0960
  231MOL    C1241872   1.698   2.580   1.419  0.5193 -0.4400  0.1665
  231MOL    C1341873   1.647   2.717   1.468 -0.0503  1.0157 -0.2180
  231MOL    H1441874   1.554   2.557   1.257  0.1487  1.1650 -1.8165
  231MOL    H1541875   1.704   2.460   1.247 -0.0968 -0.3938  1.0825
  231MOL    H1641876   1.806   2.593   1.430  0.9035 -1.5045 -2.0491
  231MOL    H1741877   1.727   2.792   1.465  1.6847 -0.8513 -1.8684
  231MOL    H1841878   1.560   2.753   1.414 -0.9548 -0.4762  0.2356
  231MOL    H1941879   1.621   2.717   1.574 -0.4383  0.5085 -0.3115
  231MOL    C2041880   1.636   2.465   1.503 -0.5324  0.0243  0.7466
  231MOL    C2141881   1.712   2.331   1.502 -0.4456 -0.3201 -0.8558
  231MOL    C2241882   1.831   2.327   1.603  0.0699 -0.2029  0.4017
  231MOL    H2341883   1.624   2.499   1.606 -2.4506 -0.1547  0.5860
  231MOL    H2441884   1.536   2.444   1.466 -1.1285  1.5676  1.4220
  231MOL    H2541885   1.758   2.321   1.404 -1.0187 -0.0129 -1.1648
  231MOL    H2641886   1.802   2.311   1.706  2.5127 -1.1764  0.9864
  231MOL    H2741887   1.907   2.256   1.568  0.8165  1.2655 -1.0362
  231MOL    H2841888   1.886   2.421   1.606  0.2975 -0.2160 -1.9847
  231MOL    C2941889   1.623   2.205   1.518 -0.2237 -0.1151 -0.2709
  231MOL    C3041890   1.543   2.160   1.390 -0.2121 -0.8591  0.1096
  231MOL    C3141891   1.633   2.104   1.282  0.0898 -0.4931 -0.9479
  231MOL    H3241892   1.689   2.124   1.550 -0.8354  0.3537  2.2926
  231MOL    H3341893   1.565   2.210   1.611  2.1250 -1.3836  1.3284
  231MOL    H3441894   1.487   2.248   1.359  0.9538  0.5942  2.0281
  231MOL    H3541895   1.712   2.173   1.251  0.4068  0.9734  2.7703
  231MOL    H3641896   1.672   2.010   1.320 -0.2434  0.1412  1.0469
  231MOL    H3741897   1.568   2.075   1.200  1.5544 -1.6398 -1.7168
  231MOL    C3841898   1.436   2.039   1.422  0.5459  0.0304 -0.8373
  231MOL    C3941899   1.306   2.067   1.504 -0.5283 -0.1164  0.3180
  231MOL    C4041900   1.195   2.110   1.406  0.5842 -0.1169  0.1490
  231MOL    H4141901   1.404   1.976   1.339  0.7173 -0.9905 -0.1376
  231MOL    H4241902   1.487   1.967   1.486  1.6021  0.0009 -1.6987
  231MOL    H4341903   1.312   2.160   1.561  0.4992  1.3040 -2.0586
  231MOL    H4441904   1.184   2.041   1.322  0.6610  0.7179 -0.5684
  231MOL    H4541905   1.103   2.102   1.463  0.0851 -0.7080 -0.7326
  231MOL    H4641906   1.214   2.209   1.364 -1.0545  1.7739  3.6990
  231MOL    C4741907   1.264   1.971   1.622  0.2290  1.2955  0.1890
  231MOL    C4841908   1.223   1.823   1.576 -0.4237 -0.5610 -0.2419
  231MOL    C4941909   1.343   1.734   1.535 -0.6022  0.5419 -0.0279
  231MOL    H5041910   1.343   1.970   1.696 -0.0309 -0.2141  0.4557
  231MOL    H5141911   1.172   2.005   1.670  0.2150 -1.3560  2.1161
  231MOL    H5241912   1.148   1.831   1.498 -0.1457 -0.0674 -0.4591
  231MOL    H5341913   1.329   1.626   1.537  0.7103  0.3504 -0.6746
  231MOL    H5441914   1.375   1.750   1.432  1.0287 -1.1552  0.2013
  231MOL    H5541915   1.427   1.757   1.600 -0.3952  0.7684 -0.3729
  231MOL    C5641916   1.152   1.744   1.681  0.2096  0.1558  0.6859
  231MOL    C5741917   1.020   1.801   1.729  1.0849 -0.6767  0.6576
  231MOL    C5841918   0.920   1.823   1.607 -0.1409 -0.6919  0.2694
  231MOL    H5941919   1.121   1.651   1.633 -1.8484  1.6634 -0.9992
  231MOL    H6041920   1.215   1.712   1.764  1.8823  2.2907  0.2589
  231MOL    H6141921   1.044   1.892   1.783 -0.7231 -1.4156  2.8120
  231MOL    H6241922   0.915   1.727   1.556 -0.6412  0.2240 -1.4269
  231MOL    H6341923   0.817   1.842   1.636 -0.0440 -1.9696  1.5105
  231MOL    H6441924   0.943   1.900   1.534  0.1667  1.4491  2.5420
  231MOL    C6541925   0.944   1.710   1.833  0.5745 -0.5659 -0.2535
  231MOL    C6641926   1.022   1.666   1.957 -0.2736 -0.0154 -0.0938
  231MOL    C6741927   1.095   1.781   2.024 -0.0455 -0.0203  0.0238
  231MOL    H6841928   0.855   1.767   1.860  2.2254  2.1692 -0.4055
  231MOL    H6941929   0.898   1.627   1.780 -1.7929  0.6934 -0.2505
  231MOL    H7041930   1.101   1.594   1.935 -0.5953 -0.8876  1.5373
  231MOL    H7141931   1.160   1.759   2.109  0.5600 -1.2597 -0.7458
  231MOL    H7241932   1.154   1.823   1.943  0.1437 -0.4597 -0.0673
  231MOL    H7341933   1.028   1.860   2.058 -1.1919 -1.3407  0.9316
  231MOL    C7441934   0.925   1.599   2.058  0.2612 -0.2548 -0.0972
  231MOL    C7541935   0.846   1.473   2.008 -0.1584 -0.4655 -0.8389
  231MOL    C7641936   0.923   1.360   1.937 -0.2273 -0.5389  0.3408
  231MOL    H7741937   0.993   1.563   2.135  2.2974  1.8325 -0.8741
  231MOL    H7841938   0.847   1.667   2.094 -1.4658 -1.5239 -1.3601
  231MOL    H7941939   0.775   1.507   1.933 -1.2380  1.3786  0.9591
  231MOL    H8041940   1.014   1.333   1.990  0.2122  0.8019  0.2809
  231MOL    H8141941   0.856   1.275   1.929  0.0341 -0.9273  2.0382
  231MOL    H8241942   0.955   1.397   1.840 -1.1344  1.5617  0.8108
  231MOL    C8341943   0.754   1.407   2.118 -1.1519 -0.1117  0.4324
  231MOL    C8441944   0.657   1.502   2.193  0.4521 -0.1583  0.4523
  231MOL    C8541945   0.569   1.578   2.097 -0.6440  0.1185  0.4048
  231MOL    H8641946   0.688   1.330   2.077  1.2596 -2.0244  0.0150
  231MOL    H8741947   0.814   1.350   2.190 -1.7443 -0.9457  0.2782
  231MOL    H8841948   0.718   1.567   2.256  2.4443  2.0277 -3.5502
  231MOL    H8941949   0.507   1.648   2.152  0.3315  1.4164 -0.1046
  231MOL    H9041950   0.625   1.634   2.021  0.2098 -0.6360  0.4691
  231MOL    H9141951   0.502   1.507   2.050 -1.0455  0.6705  0.1315
  231MOL    C9241952   0.572   1.410   2.285 -0.4507 -0.6707  0.0994
  231MOL    C9341953   0.449   1.463   2.362 -0.9319 -0.1633  0.2929
  231MOL    C9441954   0.369   1.352   2.405 -0.6644 -0.6124 -0.7200
  231MOL    H9541955   0.527   1.329   2.228 -2.2885  0.6932 -0.4352
  231MOL    H9641956   0.633   1.359   2.360  1.3862  0.0297 -0.8821
  231MOL    H9741957   0.389   1.535   2.306  0.2351  0.0801 -0.6752
  231MOL    H9841958   0.419   1.260   2.436  0.5595  0.1418 -0.4146
  231MOL    H9941959   0.311   1.397   2.487 -0.8389 -0.4364 -0.9405
  231MOL   H10041960   0.299   1.327   2.325  1.1877  0.3726 -2.6837
  231MOL   C10141961   0.500   1.538   2.487 -0.8509 -0.1651  0.9233
  231MOL   C10241962   0.390   1.634   2.543 -0.2648  0.2257  0.0267
  231MOL   C10341963   0.378   1.605   2.699  0.5198 -0.0459  0.6762
  231MOL   H10441964   0.529   1.460   2.558  1.2332  0.2289  0.5203
  231MOL   H10541965   0.584   1.605   2.470 -1.3355  0.4694  1.0165
  231MOL   H10641966   0.290   1.624   2.501  0.3672 -0.2216 -1.4075
  231MOL   H10741967   0.341   1.504   2.714 -0.5564  0.2536  0.0655
  231MOL   H10841968   0.472   1.604   2.755  1.7542  0.0555 -1.3307
  231MOL   H10941969   0.320   1.675   2.759 -0.7675  0.7008 -1.3814
  231MOL   C11041970   0.427   1.787   2.541 -0.3998 -0.4322 -0.0072
  231MOL   C11141971   0.470   1.851   2.404 -0.2552  0.2130 -0.2891
  231MOL   C11241972   0.360   1.882   2.298 -0.3902  0.0666 -0.2065
  231MOL   H11341973   0.336   1.844   2.563 -1.3677 -0.7692 -2.9512
  231MOL   H11441974   0.502   1.812   2.615 -0.1125 -0.1334 -0.4039
  231MOL   H11541975   0.531   1.781   2.346 -0.6310  1.0681 -1.7335
  231MOL   H11641976   0.289   1.802   2.280 -0.3182 -0.7474  2.7709
  231MOL   H11741977   0.291   1.965   2.316 -1.0796 -0.9915  2.3153
  231MOL   H11841978   0.411   1.911   2.206 -1.0014  1.9447  0.0269
  231MOL   C11941979   0.561   1.967   2.422  0.2816  0.1661  0.0744
  231MOL   C12041980   0.712   1.955   2.382  0.0130 -0.6698  1.4191
  231MOL   C12141981   0.789   1.868   2.485  0.5637  0.2672  0.5773
  231MOL   H12241982   0.520   2.042   2.354  0.1099 -0.2851 -0.3203
  231MOL   H12341983   0.530   2.013   2.516 -1.5489 -0.5733 -0.1433
  231MOL   H12441984   0.741   2.058   2.405 -1.8393  1.1695 -3.7911
  231MOL   H12541985   0.895   1.852   2.468  0.1538  0.1471 -2.1621
  231MOL   H12641986   0.775   1.913   2.583 -3.1414  0.9467 -0.1869
  231MOL   H12741987   0.743   1.769   2.477  0.2246  0.4128  0.7126
  231MOL   C12841988   0.731   1.933   2.232  0.3964  0.2742  1.5633
  231MOL   C12941989   0.731   2.057   2.147  0.7828 -0.4083  0.2138
  231MOL   C13041990   0.861   2.133   2.157  0.1732  0.5233 -0.0412
  231MOL   H13141991   0.817   1.870   2.208  0.6861  2.0000 -2.2268
  231MOL   H13241992   0.653   1.864   2.202 -0.4026  0.9184  2.1107
  231MOL   H13341993   0.648   2.122   2.175  1.6749  1.1429 -0.6660
  231MOL   H13441994   0.942   2.075   2.114 -0.4113 -2.5813  2.8297
  231MOL   H13541995   0.851   2.227   2.102 -1.7203  0.3658 -0.0028
  231MOL   H13641996   0.882   2.154   2.261  1.0499  1.6408 -0.4310
  231MOL   C13741997   0.710   2.019   1.999  0.0949 -0.1618  0.0767
  231MOL   C13841998   0.670   2.135   1.905 -0.4019 -0.3603 -0.0977
  231MOL   C13941999   0.719   2.107   1.761  0.3311  0.0860  0.4977
  231MOL   H14042000   0.786   1.950   1.962 -2.2413 -2.7699 -0.0111
  231MOL   H14142001   0.628   1.947   2.002 -1.0551  1.0334 -1.7234
  231MOL   H14242002   0.710   2.232   1.934  2.1164 -1.1001 -0.9513
  231MOL   H14342003   0.689   2.007   1.729  0.0595 -0.7528  3.2968
  231MOL   H14442004   0.688   2.185   1.691 -1.6034 -1.3911 -0.3738
  231MOL   H14542005   0.828   2.105   1.764  0.4014  1.2528 -0.6552
  231MOL   C14642006   0.520   2.145   1.911  0.0279 -1.0637  0.2736
  231MOL   C14742007   0.470   2.290   1.871  0.4530 -0.6186 -0.4115
  231MOL   C14842008   0.349   2.277   1.784 -0.0110 -0.0736  0.3357
  231MOL   H14942009   0.477   2.073   1.841 -0.7177  0.8027 -1.2292
  231MOL   H15042010   0.490   2.115   2.012  0.2137  0.0694  0.6674
  231MOL   H15142011   0.553   2.330   1.814  1.2212 -1.3965  0.1553
  231MOL   H15242012   0.357   2.201   1.706  0.5182  0.3812 -0.0555
  231MOL   H15342013   0.265   2.247   1.846 -2.6385  2.6648 -1.6991
  231MOL   H15442014   0.335   2.375   1.738  0.2442  0.6155  1.7087
  231MOL   C15542015   0.432   2.393   1.983  0.2864  0.2489 -0.1388
  231MOL   C15642016   0.543   2.451   2.068 -0.5478 -0.6152 -0.2484
  231MOL   C15742017   0.647   2.539   1.994 -0.0265 -0.0675 -0.3369
  231MOL   H15842018   0.377   2.478   1.943  1.7585  0.3098 -2.1711
  231MOL   H15942019   0.361   2.342   2.047 -1.2541 -1.0148 -2.7729
  231MOL   H16042020   0.610   2.366   2.086  3.3807  2.5564  0.9017
  231MOL   H16142021   0.699   2.476   1.922 -1.6111 -1.0246 -0.6739
  231MOL   H16242022   0.601   2.619   1.936  1.3623  0.8368 -0.2069
  231MOL   H16342023   0.721   2.588   2.057  0.2358  0.5383 -1.1182
  231MOL   C16442024   0.511   2.516   2.204  0.0528  0.6004  0.2416
  231MOL   C16542025   0.409   2.457   2.292 -0.7003 -0.0713 -0.3873
  231MOL   C16642026   0.448   2.317   2.344  0.5905  0.4725  0.2052
  231MOL   H16742027   0.600   2.524   2.267  0.0674 -3.1709  0.8310
  231MOL   H16842028   0.487   2.620   2.183  2.3386  1.5040  1.9429
  231MOL   H16942029   0.318   2.446   2.233 -2.0255 -2.8140  2.0818
  231MOL   H17042030   0.380   2.262   2.409  2.0598 -0.4784  0.9406
  231MOL   H17142031   0.461   2.251   2.258 -0.9349  2.8148 -1.8960
  231MOL   H17242032   0.544   2.314   2.395  0.1873  1.0892  1.0145
  231MOL   C17342033   0.382   2.557   2.414  0.7786  0.8798 -0.0260
  231MOL   C17442034   0.310   2.684   2.379 -0.1151  0.0278 -0.6659
  231MOL   C17542035   0.288   2.783   2.495 -1.0853 -0.4284 -0.6030
  231MOL   H17642036   0.316   2.509   2.487 -0.6066 -0.7635 -2.3037
  231MOL   H17742037   0.476   2.573   2.467  1.0943  0.2015 -0.3791
  231MOL   H17842038   0.211   2.650   2.349 -0.1590  0.4500 -1.0076
  231MOL   H17942039   0.347   2.872   2.472 -0.7643 -0.5670 -0.3195
  231MOL   H18042040   0.182   2.810   2.503 -0.5972  1.3359  0.1423
  231MOL   H18142041   0.343   2.754   2.584  0.1575  1.9889 -0.5278
  231MOL   H18242042   0.363   2.735   2.298  0.0104  1.3215  0.2296
  232MOL     C142043   4.339   5.764   2.868 -0.2764  0.0507 -0.3240
  232MOL     C242044   4.195   5.782   2.926  0.7521 -0.8385  0.4035
  232MOL     C342045   4.094   5.745   2.819 -0.1255  0.3177  0.5288
  232MOL     H442046   4.366   5.659   2.859 -0.7377  0.0250 -1.5766
  232MOL     H542047   4.415   5.795   2.939  0.3914 -1.1446 -0.4997
  232MOL     H642048   4.177   5.887   2.946  0.3099 -0.6888 -0.7484
  232MOL     H742049   3.990   5.765   2.843  0.1113  1.4682  0.5967
  232MOL     H842050   4.129   5.792   2.727 -0.2245  0.5082  0.5886
  232MOL     H942051   4.099   5.636   2.807  0.0520  0.5137 -1.4823
  232MOL    H1042052   4.351   5.811   2.770 -1.9756  1.8412  0.2985
  232MOL    C1142053   4.160   5.734   3.069 -0.4266  0.1621 -0.5661
  232MOL    C1242054   4.250   5.777   3.180  0.0329  0.1338  0.0862
  232MOL    C1342055   4.286   5.927   3.192  0.3469  0.1526  0.0965
  232MOL    H1442056   4.065   5.783   3.089 -1.5947 -2.4087  0.5453
  232MOL    H1542057   4.145   5.626   3.060 -1.2508  0.4066 -2.2493
  232MOL    H1642058   4.345   5.732   3.152  0.2430  1.3381 -1.2007
  232MOL    H1742059   4.344   5.965   3.108 -0.7597  0.9479 -0.3130
  232MOL    H1842060   4.201   5.993   3.207 -1.2543 -1.8865  0.2363
  232MOL    H1942061   4.345   5.941   3.283  1.0362  1.2831 -0.5059
  232MOL    C2042062   4.213   5.724   3.326  0.3501  0.0847  0.1016
  232MOL    C2142063   4.200   5.568   3.343 -0.4199  0.3182  0.0928
  232MOL    C2242064   4.337   5.493   3.320 -0.3614 -0.1253 -0.0725
  232MOL    H2342065   4.274   5.760   3.409 -0.1860 -1.0135  0.9861
  232MOL    H2442066   4.117   5.768   3.355  0.2161 -0.3297  0.2904
  232MOL    H2542067   4.133   5.535   3.264  0.1512  2.9295 -1.5643
  232MOL    H2642068   4.409   5.532   3.392 -0.6696  0.5157 -0.1057
  232MOL    H2742069   4.339   5.385   3.336 -3.1132 -0.1925  0.0979
  232MOL    H2842070   4.382   5.507   3.221  0.6378  1.9400  0.6491
  232MOL    C2942071   4.141   5.543   3.489 -0.1220  0.4380  0.3288
  232MOL    C3042072   3.992   5.575   3.496 -0.0749  0.6548 -0.5154
  232MOL    C3142073   3.926   5.445   3.463  0.3642 -0.1916  0.3575
  232MOL    H3242074   4.176   5.443   3.515 -1.1302 -0.0674 -0.1801
  232MOL    H3342075   4.197   5.602   3.561 -0.5054 -0.4452  1.3629
  232MOL    H3442076   3.960   5.643   3.418 -0.6301 -1.0286 -1.7928
  232MOL    H3542077   3.935   5.373   3.544 -2.0250  0.0514  0.8817
  232MOL    H3642078   3.817   5.455   3.461  0.4601  1.0963  1.1569
  232MOL    H3742079   3.965   5.406   3.369 -0.2034 -1.1977  0.5409
  232MOL    C3842080   3.950   5.633   3.635  0.1845 -0.9465  0.5458
  232MOL    C3942081   4.018   5.766   3.682  0.3845 -0.0287  0.0280
  232MOL    C4042082   3.969   5.888   3.601  0.0517 -0.0457  0.6136
  232MOL    H4142083   3.841   5.635   3.623  0.3019 -1.8374 -0.8255
  232MOL    H4242084   3.964   5.557   3.711  1.3816 -1.7001 -0.4169
  232MOL    H4342085   4.126   5.772   3.665  0.2819 -0.5662 -0.8186
  232MOL    H4442086   3.862   5.903   3.588  0.2210  0.8440  0.2010
  232MOL    H4542087   4.001   5.980   3.649  0.1348  0.2057  0.0879
  232MOL    H4642088   4.005   5.880   3.498 -0.4637  1.6580  0.2818
  232MOL    C4742089   3.992   5.796   3.833  0.0005  0.0828  0.6627
  232MOL    C4842090   4.098   5.744   3.927 -0.2092  0.1879 -0.2208
  232MOL    C4942091   4.232   5.816   3.911 -0.1964  0.0500  0.1223
  232MOL    H5042092   3.980   5.902   3.856 -1.4011  0.3416 -1.1422
  232MOL    H5142093   3.897   5.753   3.866 -1.6449  1.5039 -2.0466
  232MOL    H5242094   4.113   5.643   3.889 -1.3709  0.9694 -2.8716
  232MOL    H5342095   4.308   5.776   3.978 -0.2822  0.4713  0.4715
  232MOL    H5442096   4.271   5.810   3.809  1.5187 -0.3589  0.8033
  232MOL    H5542097   4.222   5.920   3.943  1.6811 -0.1478  1.3879
  232MOL    C5642098   4.061   5.746   4.078  0.4644 -0.0702 -0.1769
  232MOL    C5742099   3.971   5.633   4.123 -0.0900 -0.0805 -0.0360
  232MOL    C5842100   4.047   5.493   4.104 -0.4043 -0.4023 -0.2363
  232MOL    H5942101   4.152   5.763   4.136 -0.7757  0.2881  1.6712
  232MOL    H6042102   4.001   5.834   4.099  0.2490  0.5460 -3.1149
  232MOL    H6142103   3.887   5.629   4.053  0.3152 -0.3101 -0.5150
  232MOL    H6242104   4.130   5.495   4.175 -1.4099 -2.6779  1.0687
  232MOL    H6342105   3.988   5.412   4.149  0.1921 -0.9385 -0.4146
  232MOL    H6442106   4.088   5.474   4.005  1.9455  1.9197  0.2436
  232MOL    C6542107   3.921   5.656   4.266 -0.0242  0.7680  0.1317
  232MOL    C6642108   3.807   5.566   4.318  0.0491 -0.7391  0.5066
  232MOL    C6742109   3.808   5.590   4.472  0.2114  0.0122  0.4109
  232MOL    H6842110   4.014   5.652   4.324  0.1722  1.8819 -0.0930
  232MOL    H6942111   3.897   5.761   4.278  1.1387  1.1079 -0.4706
  232MOL    H7042112   3.850   5.469   4.295  1.5444 -0.2553  1.1532
  232MOL    H7142113   3.910   5.576   4.507  0.7534  0.9432 -0.7872
  232MOL    H7242114   3.787   5.695   4.493 -2.8151 -0.4246 -0.2414
  232MOL    H7342115   3.725   5.540   4.522 -3.1296  2.5226 -2.4080
  232MOL    C7442116   3.671   5.573   4.250 -0.0358  0.0748  0.8226
  232MOL    C7542117   3.566   5.471   4.292  0.1616 -0.4830 -0.3312
  232MOL    C7642118   3.427   5.544   4.335 -0.7454  0.2214  0.3453
  232MOL    H7742119   3.633   5.674   4.265  1.1255  0.7356 -0.5243
  232MOL    H7842120   3.689   5.555   4.144  1.6913 -3.6252  1.6381
  232MOL    H7942121   3.597   5.423   4.385  0.0754 -0.2852 -0.2005
  232MOL    H8042122   3.358   5.475   4.383  0.2153 -0.7602  0.3437
  232MOL    H8142123   3.450   5.621   4.409 -2.2465  2.3718 -1.3451
  232MOL    H8242124   3.382   5.600   4.252  0.4621  0.7387  0.0254
  232MOL    C8342125   3.534   5.364   4.177  0.2574 -0.4430 -0.5460
  232MOL    C8442126   3.654   5.275   4.141 -0.3658 -0.6246  0.0045
  232MOL    C8542127   3.672   5.164   4.239  0.1011 -0.6315  0.2141
  232MOL    H8642128   3.446   5.304   4.201 -2.1837  2.7292 -1.2973
  232MOL    H8742129   3.495   5.428   4.098  2.8068  0.9488 -0.7602
  232MOL    H8842130   3.749   5.328   4.139 -0.3703 -0.6416 -1.1836
  232MOL    H8942131   3.776   5.132   4.234  0.2534  0.0489 -1.1917
  232MOL    H9042132   3.665   5.217   4.333 -3.5131  0.5695 -0.6878
  232MOL    H9142133   3.605   5.079   4.224  0.6792 -1.3175  1.3697
  232MOL    C9242134   3.626   5.211   4.005 -0.7795  0.0854 -0.6048
  232MOL    C9342135   3.629   5.299   3.880 -0.7994 -0.0118 -0.3527
  232MOL    C9442136   3.756   5.377   3.876 -0.6005  0.2160  0.5663
  232MOL    H9542137   3.711   5.144   4.001  0.0948  1.1314  0.1245
  232MOL    H9642138   3.533   5.155   3.990 -1.8212  2.3222 -2.9269
  232MOL    H9742139   3.543   5.364   3.893 -3.2641 -3.0501 -0.7247
  232MOL    H9842140   3.838   5.310   3.900 -0.8515 -0.7769 -1.3008
  232MOL    H9942141   3.775   5.411   3.774  1.0406 -1.3198  0.3542
  232MOL   H10042142   3.757   5.463   3.944  1.6695 -1.2472  2.4400
  232MOL   C10142143   3.604   5.220   3.753  0.6227 -0.0963 -0.1061
  232MOL   C10242144   3.583   5.289   3.618  0.1080 -0.3247 -0.0531
  232MOL   C10342145   3.571   5.183   3.502  0.0871  0.3311  0.0204
  232MOL   H10442146   3.690   5.155   3.744  2.0495  1.8878 -1.1038
  232MOL   H10542147   3.514   5.160   3.769  0.3535  0.2451 -0.3286
  232MOL   H10642148   3.666   5.355   3.593 -1.3868  1.7919  0.3715
  232MOL   H10742149   3.498   5.103   3.510  0.4760  0.0738  1.1601
  232MOL   H10842150   3.536   5.232   3.411 -2.7232  1.2031  1.4826
  232MOL   H10942151   3.668   5.140   3.481 -0.2531  0.1914 -1.2639
  232MOL   C11042152   3.458   5.380   3.630  0.4820 -0.4403  0.0636
  232MOL   C11142153   3.420   5.465   3.510 -0.2850  0.8814 -0.2838
  232MOL   C11242154   3.280   5.532   3.528  0.7647 -0.7158 -0.4521
  232MOL   H11342155   3.368   5.320   3.648 -0.6663  0.6200 -1.9228
  232MOL   H11442156   3.463   5.447   3.716 -2.2165  0.2751 -0.2646
  232MOL   H11542157   3.421   5.410   3.415 -0.2152  0.6845 -0.1698
  232MOL   H11642158   3.273   5.607   3.449 -0.7773  0.7625  1.0562
  232MOL   H11742159   3.198   5.461   3.518  0.3912 -0.2780 -0.4934
  232MOL   H11842160   3.271   5.593   3.618  0.0241 -0.3779 -0.7501
  232MOL   C11942161   3.524   5.583   3.495  0.1755  0.1824  0.4690
  232MOL   C12042162   3.537   5.645   3.357  0.6148  0.2067 -0.2619
  232MOL   C12142163   3.616   5.775   3.371  0.3482  0.7475 -0.2865
  232MOL   H12242164   3.511   5.654   3.576 -2.0152  0.4545 -0.1065
  232MOL   H12342165   3.625   5.542   3.504  1.0022  2.6403  3.1178
  232MOL   H12442166   3.435   5.659   3.320  0.0418 -0.9457  0.8664
  232MOL   H12542167   3.601   5.827   3.277  0.8962 -1.0412 -1.3806
  232MOL   H12642168   3.568   5.838   3.447 -0.7412 -2.1458  1.5029
  232MOL   H12742169   3.723   5.770   3.389 -0.3920  1.1427  5.1666
  232MOL   C12842170   3.610   5.561   3.247  0.0538 -0.7387 -0.3581
  232MOL   C12942171   3.585   5.604   3.101 -0.9603  0.3926 -0.2568
  232MOL   C13042172   3.712   5.664   3.045 -0.7735 -0.3682  0.1202
  232MOL   H13142173   3.717   5.552   3.267 -0.4041 -3.3694  1.0034
  232MOL   H13242174   3.571   5.460   3.252  0.8962 -0.9772  1.7758
  232MOL   H13342175   3.513   5.686   3.105 -0.2582  0.9564  1.7993
  232MOL   H13442176   3.752   5.749   3.101  1.4513 -1.9088  0.9502
  232MOL   H13542177   3.783   5.581   3.044 -4.1623 -3.4395  2.1423
  232MOL   H13642178   3.695   5.696   2.943 -4.4265 -2.0297  0.1209
  232MOL   C13742179   3.544   5.501   2.996  0.1899  0.3109 -0.4091
  232MOL   C13842180   3.404   5.429   3.019 -0.0456  0.2547 -0.1255
  232MOL   C13942181   3.289   5.528   3.014 -0.0316  0.0404  0.3470
  232MOL   H14042182   3.538   5.552   2.900 -1.4702 -0.2651 -0.6272
  232MOL   H14142183   3.627   5.430   2.985  0.6594  1.0005 -1.3445
  232MOL   H14242184   3.403   5.380   3.116  0.2118  1.8391  0.6868
  232MOL   H14342185   3.278   5.580   2.919 -1.5255 -0.0768  0.4325
  232MOL   H14442186   3.192   5.484   3.040 -0.7403  1.4801  0.1875
  232MOL   H14542187   3.298   5.612   3.083  0.0641 -0.5768  1.0924
  232MOL   C14642188   3.380   5.320   2.914 -0.7050 -0.3664  0.1639
  232MOL   C14742189   3.480   5.191   2.921 -0.2399 -0.0364 -0.6442
  232MOL   C14842190   3.473   5.113   3.061 -0.3746 -0.0891 -0.0665
  232MOL   H14942191   3.276   5.290   2.917 -1.1591  1.2942  1.5755
  232MOL   H15042192   3.396   5.368   2.817 -0.5391 -1.2868 -0.2749
  232MOL   H15142193   3.583   5.226   2.911 -0.1883 -0.2269 -0.7716
  232MOL   H15242194   3.516   5.159   3.150 -1.9752 -1.7336  1.5986
  232MOL   H15342195   3.369   5.101   3.091 -0.2904  1.7034  0.9825
  232MOL   H15442196   3.514   5.012   3.058 -0.8175 -0.2529 -1.0643
  232MOL   C15542197   3.448   5.082   2.814  0.2778 -0.7580 -0.1020
  232MOL   C15642198   3.470   5.130   2.670 -0.2226 -0.2992  0.0876
  232MOL   C15742199   3.611   5.173   2.657  0.0238  0.4777  0.4306
  232MOL   H15842200   3.518   4.999   2.823 -0.9343 -1.9090 -1.1323
  232MOL   H15942201   3.352   5.034   2.828  0.2369 -0.6975 -0.1721
  232MOL   H16042202   3.407   5.219   2.667 -2.6760 -1.9124  2.1131
  232MOL   H16142203   3.643   5.200   2.557 -1.0319 -0.3816 -0.1510
  232MOL   H16242204   3.632   5.267   2.710 -0.2886  0.4362  0.6294
  232MOL   H16342205   3.677   5.094   2.692 -0.6604  0.5549  1.9400
  232MOL   C16442206   3.410   5.027   2.568 -0.8018 -0.2321  0.1858
  232MOL   C16542207   3.432   5.064   2.415 -0.2732 -0.4937 -0.0346
  232MOL   C16642208   3.343   4.971   2.329  0.1382  0.0268  0.0832
  232MOL   H16742209   3.447   4.930   2.599  0.1137  0.0191 -0.1161
  232MOL   H16842210   3.301   5.028   2.572 -0.7615  1.6180  1.5079
  232MOL   H16942211   3.539   5.047   2.401  0.0007  0.5210  0.8264
  232MOL   H17042212   3.236   4.994   2.331 -0.1229 -1.2296  1.6265
  232MOL   H17142213   3.370   4.978   2.224 -2.1278  0.7807 -0.4781
  232MOL   H17242214   3.355   4.870   2.366 -0.2971 -0.8645 -2.1612
  232MOL   C17342215   3.409   5.218   2.384  0.6454  0.1703 -0.5978
  232MOL   C17442216   3.407   5.266   2.242 -0.2618  0.0235  0.3414
  232MOL   C17542217   3.371   5.416   2.222  0.5088 -0.2106  0.6661
  232MOL   H17642218   3.311   5.240   2.425  1.1253  0.1320  0.5950
  232MOL   H17742219   3.485   5.274   2.439 -0.1679 -0.5234  1.2996
  232MOL   H17842220   3.349   5.218   2.163 -0.2587  3.2763 -1.7164
  232MOL   H17942221   3.269   5.432   2.258 -0.7388 -1.7854 -2.0477
  232MOL   H18042222   3.441   5.480   2.276  1.4247  0.2045 -1.0055
  232MOL   H18142223   3.368   5.448   2.118  0.6132 -2.9667 -0.2177
  232MOL   H18242224   3.510   5.262   2.208 -0.6197 -1.6096 -0.6429
  233MOL     C142225   0.486   7.405   5.682 -0.0251  0.2787  0.1195
  233MOL     C242226   0.526   7.477   5.551  0.2809  0.5601 -0.8613
  233MOL     C342227   0.400   7.544   5.494  0.1121 -0.2606  0.0433
  233MOL     H442228   0.414   7.330   5.651 -0.7030  1.1530 -0.4514
  233MOL     H542229   0.451   7.473   5.760  2.2616  1.1669  0.4278
  233MOL     H642230   0.555   7.398   5.482 -0.0060 -0.3961  0.1055
  233MOL     H742231   0.313   7.479   5.502  1.0666 -1.8153 -1.8236
  233MOL     H842232   0.385   7.643   5.538  2.3668 -0.3012  1.0143
  233MOL     H942233   0.414   7.568   5.389 -0.6812 -0.3944 -0.0893
  233MOL    H1042234   0.572   7.348   5.718 -1.7034 -1.0762  2.0519
  233MOL    C1142235   0.641   7.581   5.567  0.2451 -0.3874  0.1385
  233MOL    C1242236   0.784   7.527   5.589  0.0390  0.2450 -0.6043
  233MOL    C1342237   0.815   7.412   5.486  0.4458  0.5008  0.2194
  233MOL    H1442238   0.635   7.643   5.478 -1.5840 -1.0849 -0.2578
  233MOL    H1542239   0.614   7.650   5.647  0.1945 -0.7400  0.4280
  233MOL    H1642240   0.786   7.486   5.690 -0.9510  1.1563 -0.2039
  233MOL    H1742241   0.752   7.324   5.504 -1.0722  1.6062  0.4152
  233MOL    H1842242   0.816   7.445   5.382 -0.5304 -1.0531 -0.3004
  233MOL    H1942243   0.917   7.374   5.484  0.4279  0.4773 -0.4259
  233MOL    C2042244   0.897   7.626   5.571  0.3587  0.1994  0.1543
  233MOL    C2142245   0.881   0.062   5.654  0.6640  0.4092  0.5487
  233MOL    C2242246   0.927   0.036   5.801  0.6505  0.3420 -0.1367
  233MOL    H2342247   0.987   7.568   5.593 -0.4799 -1.7682 -1.4721
  233MOL    H2442248   0.897   7.657   5.467  0.5482 -2.0803 -0.5653
  233MOL    H2542249   0.775   0.084   5.660  0.6098  0.7150 -1.3813
  233MOL    H2642250   0.895   7.638   5.841 -1.1751 -0.2024 -2.7447
  233MOL    H2742251   1.035   0.044   5.815  0.7486  0.1048 -0.7503
  233MOL    H2842252   0.884   0.107   5.873 -1.3727  0.6691 -1.6185
  233MOL    C2942253   0.957   0.180   5.590  0.3643 -0.4013  0.1240
  233MOL    C3042254   0.906   0.228   5.449 -0.4655  0.3040 -0.1238
  233MOL    C3142255   0.768   0.285   5.468 -0.3574  0.3246 -0.3501
  233MOL    H3242256   0.958   0.265   5.658 -0.4898 -0.0127 -0.3400
  233MOL    H3342257   1.058   0.140   5.596  0.7948  0.7218  0.4268
  233MOL    H3442258   0.889   0.146   5.379  0.8631  0.1303 -0.2538
  233MOL    H3542259   0.698   0.201   5.461 -0.5036  0.3317  0.9160
  233MOL    H3642260   0.746   0.330   5.565  0.8239  0.6375 -0.2245
  233MOL    H3742261   0.732   0.348   5.387 -0.2642 -0.5396 -1.0726
  233MOL    C3842262   1.005   0.329   5.390  0.1155 -0.0066 -0.2415
  233MOL    C3942263   1.142   0.262   5.357  0.1407  0.5811  0.5942
  233MOL    C4042264   1.143   0.123   5.288 -0.6050 -0.4498  0.8796
  233MOL    H4142265   0.969   0.377   5.298 -1.8877 -0.0585  0.5029
  233MOL    H4242266   1.035   0.415   5.450  2.5496 -3.2064  3.2846
  233MOL    H4342267   1.193   0.238   5.450  2.5425  1.9535 -0.3180
  233MOL    H4442268   1.068   0.051   5.322  0.0225 -1.6011 -0.1143
  233MOL    H4542269   1.127   0.133   5.181 -1.2022 -0.3831  0.9730
  233MOL    H4642270   1.235   0.068   5.306  0.2072  0.0579 -1.5657
  233MOL    C4742271   1.230   0.367   5.290 -0.0902  0.5461  0.0020
  233MOL    C4842272   1.354   0.418   5.364 -0.5212  0.0622 -0.4161
  233MOL    C4942273   1.442   0.493   5.263  0.0971 -0.2247 -0.1776
  233MOL    H5042274   1.269   0.320   5.200 -0.6462 -0.2597  0.1729
  233MOL    H5142275   1.175   0.453   5.252 -1.0549  0.0767  0.3042
  233MOL    H5242276   1.408   0.324   5.373  1.2378  1.0641 -0.3440
  233MOL    H5342277   1.488   0.431   5.185  1.1749 -1.0291  1.0854
  233MOL    H5442278   1.388   0.573   5.211  0.2798 -0.6123 -0.9775
  233MOL    H5542279   1.526   0.537   5.317 -0.8694 -0.8088  1.8437
  233MOL    C5642280   1.326   0.483   5.499  0.4887 -0.0578  0.0721
  233MOL    C5742281   1.421   0.446   5.617 -0.1580 -0.1260 -0.0802
  233MOL    C5842282   1.410   0.298   5.652 -0.1087 -0.1486 -0.7600
  233MOL    H5942283   1.324   0.592   5.490 -2.3794 -0.1895 -1.5983
  233MOL    H6042284   1.229   0.451   5.538  0.9577 -0.5038  0.8948
  233MOL    H6142285   1.380   0.492   5.706  0.1063  0.9157 -0.4846
  233MOL    H6242286   1.306   0.265   5.642 -0.2472 -0.2223  0.7104
  233MOL    H6342287   1.467   0.237   5.582 -0.9150  0.3022 -1.8290
  233MOL    H6442288   1.448   0.277   5.752  0.7933  1.6415 -0.7175
  233MOL    C6542289   1.568   0.493   5.599  0.0617 -0.1355  0.3269
  233MOL    C6642290   1.659   0.500   5.730 -0.0220 -0.0097  0.1273
  233MOL    C6742291   1.594   0.580   5.846  0.5224  0.8899  0.1480
  233MOL    H6842292   1.618   0.451   5.512 -1.1902 -0.4726 -0.2393
  233MOL    H6942293   1.547   0.593   5.561 -0.8156 -0.2951  0.3781
  233MOL    H7042294   1.739   0.566   5.697  0.8023  0.5273  3.0642
  233MOL    H7142295   1.526   0.515   5.902 -0.8729  1.8201 -0.4448
  233MOL    H7242296   1.671   0.621   5.912 -0.4614  0.4543  1.6041
  233MOL    H7342297   1.528   0.659   5.810  1.1466  1.9741  1.3129
  233MOL    C7442298   1.738   0.363   5.749 -0.2932 -0.6510 -0.8625
  233MOL    C7542299   1.848   0.372   5.856  0.0338 -0.0625  0.4994
  233MOL    C7642300   1.908   0.231   5.857 -0.1313 -0.1533 -0.1972
  233MOL    H7742301   1.666   0.287   5.779 -0.8921 -0.7595 -2.5066
  233MOL    H7842302   1.781   0.324   5.657  1.1979 -2.8529  0.7376
  233MOL    H7942303   1.798   0.400   5.950 -0.0375 -0.4763  0.5832
  233MOL    H8042304   1.986   0.214   5.783  1.8426 -1.1969  2.0533
  233MOL    H8142305   1.962   0.208   5.949  0.4224 -2.5837 -1.1192
  233MOL    H8242306   1.830   0.158   5.836  0.3114 -0.0872 -2.1283
  233MOL    C8342307   1.951   0.483   5.824 -0.3911 -0.0479  0.6602
  233MOL    C8442308   2.065   0.508   5.927 -0.2948  0.5780  0.1348
  233MOL    C8542309   2.163   0.608   5.871 -0.5203  0.4358  0.2412
  233MOL    H8642310   1.994   0.464   5.726 -1.1114  0.7695  0.1752
  233MOL    H8742311   1.911   0.583   5.809  2.7816  1.3291  1.1070
  233MOL    H8842312   2.121   0.416   5.947 -1.7131 -1.1875 -3.5937
  233MOL    H8942313   2.188   0.590   5.766  0.3220  0.7055  0.3899
  233MOL    H9042314   2.121   0.708   5.874  1.1727  1.1487  1.9095
  233MOL    H9142315   2.258   0.626   5.922 -0.0116 -0.4220 -0.3886
  233MOL    C9242316   2.009   0.568   6.062  0.6035 -0.0114  0.0239
  233MOL    C9342317   1.983   0.474   6.179 -0.5250  0.3406  0.1877
  233MOL    C9442318   2.114   0.413   6.229 -0.3353 -0.2345 -0.3701
  233MOL    H9542319   2.074   0.651   6.090 -0.7861 -0.1844  3.9562
  233MOL    H9642320   1.918   0.623   6.038  0.6068 -0.0278 -0.0267
  233MOL    H9742321   1.931   0.387   6.138  0.1718 -0.4548  0.9842
  233MOL    H9842322   2.172   0.490   6.280  1.0877 -2.8446  2.0368
  233MOL    H9942323   2.109   0.335   6.305  1.0256 -2.7611 -2.8105
  233MOL   H10042324   2.171   0.369   6.147 -2.7691 -3.8163 -0.2114
  233MOL   C10142325   1.911   0.539   6.297 -0.4845 -0.2212 -0.7160
  233MOL   C10242326   1.760   0.568   6.279  0.0963  0.2270  0.1349
  233MOL   C10342327   1.684   0.429   6.277 -0.5013  0.0723 -0.2530
  233MOL   H10442328   1.919   0.477   6.387 -3.2956  2.5617  1.5887
  233MOL   H10542329   1.960   0.634   6.314 -0.1055 -0.7532  1.3348
  233MOL   H10642330   1.760   0.618   6.182 -0.0404  1.1708  0.6212
  233MOL   H10742331   1.693   0.373   6.370 -1.2991 -1.2017 -0.9302
  233MOL   H10842332   1.582   0.441   6.242 -1.1093 -0.9027  1.1695
  233MOL   H10942333   1.737   0.378   6.197 -1.0786  0.9871 -1.2234
  233MOL   C11042334   1.710   0.649   6.398  0.0273  0.0079 -1.1255
  233MOL   C11142335   1.556   0.695   6.391 -0.2048 -0.3268  0.5453
  233MOL   C11242336   1.481   0.666   6.520 -0.2670 -0.3184 -0.7054
  233MOL   H11342337   1.732   0.586   6.484  1.3074 -0.4130 -1.7467
  233MOL   H11442338   1.768   0.740   6.411 -0.1977  0.2284 -1.6703
  233MOL   H11542339   1.506   0.630   6.320  1.0969  0.0388 -0.7176
  233MOL   H11642340   1.493   0.736   6.603  0.5630  1.4953 -2.2962
  233MOL   H11742341   1.373   0.668   6.507 -0.5726  2.4755  1.8060
  233MOL   H11842342   1.492   0.566   6.561  0.1651  0.1480  0.3209
  233MOL   C11942343   1.535   0.838   6.350 -0.9537 -0.0763  0.4179
  233MOL   C12042344   1.562   0.875   6.197  0.3087 -0.4991  0.0651
  233MOL   C12142345   1.452   0.816   6.107  0.2645  0.5372  0.1523
  233MOL   H12242346   1.430   0.856   6.370 -0.4003  1.5207  2.0163
  233MOL   H12342347   1.579   0.904   6.426  0.7342 -0.3034 -0.3270
  233MOL   H12442348   1.653   0.830   6.159  0.7118 -0.7892  1.3854
  233MOL   H12542349   1.468   0.709   6.092  0.2672  0.3702  1.3537
  233MOL   H12642350   1.356   0.826   6.156 -0.3162 -1.6551 -0.4884
  233MOL   H12742351   1.445   0.868   6.011 -1.2387  1.2404  0.6338
  233MOL   C12842352   1.580   1.030   6.175 -0.6222 -0.0825  0.4710
  233MOL   C12942353   1.721   1.070   6.221  0.2914  0.8588  0.0390
  233MOL   C13042354   1.815   1.041   6.115  0.4259  0.1977 -0.2065
  233MOL   H13142355   1.564   1.069   6.074 -0.8110  2.1678  1.3336
  233MOL   H13242356   1.510   1.091   6.233 -0.2484  1.7418 -0.9415
  233MOL   H13342357   1.743   1.010   6.309  0.8766  0.3365 -0.4526
  233MOL   H13442358   1.917   1.040   6.155 -0.0776 -1.8854  1.1274
  233MOL   H13542359   1.803   0.945   6.064  1.0376  1.6464 -3.2196
  233MOL   H13642360   1.805   1.126   6.048 -0.4908  0.9110  0.8370
  233MOL   C13742361   1.721   1.218   6.262  0.5529  0.8223  0.3892
  233MOL   C13842362   1.853   1.276   6.327  0.1350 -0.5114  0.7410
  233MOL   C13942363   1.910   1.398   6.253 -0.4632  0.2973 -0.6730
  233MOL   H14042364   1.688   1.274   6.174  1.6506  0.7320 -0.0834
  233MOL   H14142365   1.644   1.234   6.337  0.8765 -0.3758  0.9777
  233MOL   H14242366   1.934   1.204   6.337  0.6462 -0.3036 -1.6834
  233MOL   H14342367   1.973   1.449   6.325  0.1409 -1.5793  0.1645
  233MOL   H14442368   1.971   1.374   6.166  2.3524  2.7436  0.5391
  233MOL   H14542369   1.831   1.467   6.224 -2.4833 -1.4888  0.4224
  233MOL   C14642370   1.828   1.310   6.475  0.6472 -0.2203  0.2432
  233MOL   C14742371   1.784   1.192   6.563 -0.3087 -0.2395 -0.6399
  233MOL   C14842372   1.914   1.111   6.600  0.0984 -0.3612 -0.2814
  233MOL   H14942373   1.920   1.348   6.519 -0.2252 -0.3740  2.2502
  233MOL   H15042374   1.757   1.391   6.491 -1.0215 -1.5270 -0.4427
  233MOL   H15142375   1.724   1.116   6.513 -0.1414 -0.3131 -0.7286
  233MOL   H15242376   1.956   1.068   6.509 -0.2761 -0.5464 -0.3694
  233MOL   H15342377   1.992   1.172   6.645 -1.2870 -0.2048  2.0090
  233MOL   H15442378   1.905   1.023   6.665 -1.9130  1.3007  1.7562
  233MOL   C15542379   1.700   1.238   6.692 -0.4119  0.0688  0.5788
  233MOL   C15642380   1.549   1.261   6.651  0.5989  0.5282  0.3122
  233MOL   C15742381   1.475   1.125   6.647 -0.1310 -0.2564  0.3567
  233MOL   H15842382   1.721   1.173   6.777  1.3314  0.2227  0.3051
  233MOL   H15942383   1.740   1.335   6.719  0.2220 -0.1942  0.6242
  233MOL   H16042384   1.552   1.296   6.548  0.6950 -1.2961 -0.3271
  233MOL   H16142385   1.375   1.135   6.606 -0.1719  0.2252  0.5658
  233MOL   H16242386   1.523   1.058   6.576  1.8064 -0.4412  1.7851
  233MOL   H16342387   1.471   1.074   6.744  2.1486 -1.0680  0.0514
  233MOL   C16442388   1.472   1.353   6.749  0.1979  0.6421  0.3368
  233MOL   C16542389   1.502   1.499   6.732 -0.6035  0.2240 -0.8105
  233MOL   C16642390   1.490   1.563   6.595  0.0018  0.1512 -0.5055
  233MOL   H16742391   1.364   1.340   6.740 -0.3418  4.0517  1.2268
  233MOL   H16842392   1.484   1.333   6.855 -0.1948  0.6252  0.3793
  233MOL   H16942393   1.604   1.524   6.762 -1.4538  1.1855  1.3704
  233MOL   H17042394   1.397   1.524   6.554 -0.7932  1.2257  0.2225
  233MOL   H17142395   1.479   1.672   6.587  3.9604  0.6090 -0.3420
  233MOL   H17242396   1.577   1.518   6.548 -0.0957 -3.0337  2.2193
  233MOL   C17342397   1.434   1.583   6.846  0.8311  0.4886 -0.3752
  233MOL   C17442398   1.275   1.589   6.844 -0.4133 -0.1365  0.1923
  233MOL   C17542399   1.215   1.696   6.945 -0.2703 -0.2514  0.0542
  233MOL   H17642400   1.456   1.549   6.947 -1.2124 -0.3605 -0.1895
  233MOL   H17742401   1.468   1.686   6.840 -0.8082  1.0622 -0.2213
  233MOL   H17842402   1.229   1.491   6.857 -0.1638  0.0221  2.3235
  233MOL   H17942403   1.229   1.642   7.038  1.3044  0.2539  0.1232
  233MOL   H18042404   1.279   1.783   6.933 -0.6876  0.0815  0.2277
  233MOL   H18142405   1.108   1.714   6.934 -0.8662 -3.4819  0.0585
  233MOL   H18242406   1.254   1.611   6.739 -2.8496 -0.6356  0.5315
  234MOL     C142407   5.190   6.786   0.562 -0.9166  0.2701 -0.6566
  234MOL     C242408   5.215   6.832   0.419  0.1113 -0.0140  0.4519
  234MOL     C342409   5.087   6.801   0.334 -0.5215 -0.1714  0.2071
  234MOL     H442410   5.105   6.845   0.596 -0.9215 -0.0067 -0.1871
  234MOL     H542411   5.277   6.794   0.627 -1.6161 -1.8235  0.5821
  234MOL     H642412   5.305   6.774   0.397  1.8450  2.6552  0.3592
  234MOL     H742413   5.098   6.834   0.231  0.6242  0.2842  0.4609
  234MOL     H842414   5.061   6.696   0.323 -1.0579 -0.1390  1.1876
  234MOL     H942415   4.995   6.851   0.363  0.0083  1.7531 -1.2824
  234MOL    H1042416   5.163   6.681   0.569 -0.8935  0.3278  0.4512
  234MOL    C1142417   5.240   6.982   0.410  0.2694  0.8402 -0.3258
  234MOL    C1242418   5.321   7.034   0.289  0.1341  0.3068  0.0769
  234MOL    C1342419   5.222   7.090   0.184 -0.3414  0.3657 -0.5825
  234MOL    H1442420   5.146   7.033   0.430  0.2253  0.7328 -0.2577
  234MOL    H1542421   5.303   6.983   0.498  1.1234  1.1336 -0.9387
  234MOL    H1642422   5.374   6.951   0.242 -0.7880  0.9899 -2.2781
  234MOL    H1742423   5.178   7.187   0.210 -0.9351  0.4489 -1.8624
  234MOL    H1842424   5.275   7.111   0.091  0.2304  2.7896  0.2552
  234MOL    H1942425   5.146   7.017   0.157 -1.1365  0.7989  0.4542
  234MOL    C2042426   5.436   7.134   0.335  1.1350 -0.1857  0.0380
  234MOL    C2142427   5.401   7.286   0.363 -0.0336 -0.0340 -0.1988
  234MOL    C2242428   5.301   7.304   0.482  0.6779 -0.3831 -0.0560
  234MOL    H2342429   5.490   7.098   0.423  1.5215  0.8448  0.2233
  234MOL    H2442430   5.509   7.144   0.255 -0.8078 -2.4645 -2.1196
  234MOL    H2542431   5.357   7.325   0.271 -2.0136 -1.2593  0.1983
  234MOL    H2642432   5.279   7.411   0.492  0.4561 -0.5682  1.6486
  234MOL    H2742433   5.208   7.257   0.452 -0.6568  1.2654  1.3288
  234MOL    H2842434   5.330   7.275   0.584 -0.0909 -1.8000 -0.2360
  234MOL    C2942435   5.536   7.358   0.401  0.3320  0.1714  0.6098
  234MOL    C3042436   5.532   7.507   0.430  0.5723  0.1635  0.6653
  234MOL    C3142437   5.654   7.555   0.507  0.0533 -0.0913  0.5930
  234MOL    H3242438   5.569   7.307   0.491 -0.4331 -1.7477 -0.1634
  234MOL    H3342439   5.621   7.349   0.332 -0.3440 -1.9450  0.0225
  234MOL    H3442440   5.446   7.519   0.497 -1.5491 -0.7005 -1.8321
  234MOL    H3542441   5.750   7.539   0.459  0.2442 -0.0855  0.9670
  234MOL    H3642442   5.645   7.660   0.534 -3.4546 -0.1525 -0.0884
  234MOL    H3742443   5.651   7.503   0.603 -0.0704 -0.7601  0.2227
  234MOL    C3842444   5.494   7.599   0.311  0.1244 -0.5657 -0.0012
  234MOL    C3942445   5.477   0.052   0.339 -0.4670 -0.4505 -0.4265
  234MOL    C4042446   5.603   0.136   0.323  0.7833  0.6939  0.4492
  234MOL    H4142447   5.573   7.581   0.239 -0.8903 -1.0314 -1.0176
  234MOL    H4242448   5.399   7.566   0.268  1.3701 -2.0096 -1.6661
  234MOL    H4342449   5.475   0.063   0.447  0.7604 -1.9944 -0.2384
  234MOL    H4442450   5.574   0.238   0.349  0.2594  1.3326 -2.4528
  234MOL    H4542451   5.683   0.106   0.390  0.7584  0.7540  0.5065
  234MOL    H4642452   5.643   0.138   0.221 -1.7569  0.4370 -0.6013
  234MOL    C4742453   5.356   0.114   0.264 -0.1464  0.3303  0.2303
  234MOL    C4842454   5.212   0.088   0.309  0.0450  0.8835 -0.3331
  234MOL    C4942455   5.163   7.643   0.281  0.0916  0.1368 -0.0007
  234MOL    H5042456   5.378   0.220   0.253  1.0259  0.0575 -0.1331
  234MOL    H5142457   5.348   0.083   0.159  0.3648  1.1496 -0.0614
  234MOL    H5242458   5.141   0.154   0.259 -2.6544 -0.6967  1.2950
  234MOL    H5342459   5.201   7.592   0.193  3.3178  0.3823  1.1687
  234MOL    H5442460   5.192   7.589   0.371 -0.0247  0.0380 -0.0219
  234MOL    H5542461   5.054   7.649   0.284 -0.0356 -1.9202  0.2070
  234MOL    C5642462   5.199   0.134   0.457 -0.1654 -0.2282  0.2379
  234MOL    C5742463   5.241   0.270   0.498 -0.5295 -0.6212 -0.7232
  234MOL    C5842464   5.172   0.377   0.423 -0.4083 -0.0425  0.8648
  234MOL    H5942465   5.101   0.113   0.500 -0.0101  1.6638  1.5732
  234MOL    H6042466   5.269   0.064   0.502 -2.0452 -1.2119  1.6757
  234MOL    H6142467   5.348   0.283   0.483 -0.2574 -1.3475  0.4469
  234MOL    H6242468   5.064   0.367   0.428 -0.5332 -0.0935 -1.4364
  234MOL    H6342469   5.183   0.475   0.469  0.2292  0.3345 -0.0590
  234MOL    H6442470   5.206   0.381   0.319 -1.0926 -0.0692  0.6395
  234MOL    C6542471   5.225   0.284   0.651 -0.3768  0.4797  0.1809
  234MOL    C6642472   5.326   0.383   0.719 -1.2145  0.7655 -0.2599
  234MOL    C6742473   5.263   0.442   0.846  0.3501  0.1330  0.3334
  234MOL    H6842474   5.120   0.305   0.671 -0.4775  1.0128 -0.9217
  234MOL    H6942475   5.239   0.186   0.696  0.4769 -0.0746 -1.2664
  234MOL    H7042476   5.350   0.461   0.648  1.1592  0.1755 -0.1466
  234MOL    H7142477   5.328   0.519   0.887 -0.0041  1.3911 -1.4312
  234MOL    H7242478   5.162   0.483   0.845 -0.0324 -0.7557  1.4254
  234MOL    H7342479   5.275   0.363   0.921 -0.3782 -1.0004 -0.7161
  234MOL    C7442480   5.461   0.309   0.739  1.0854  0.2639 -0.2534
  234MOL    C7542481   5.573   0.400   0.792  0.0269 -0.2333 -0.5014
  234MOL    C7642482   5.684   0.313   0.858  0.5173  0.2503 -0.7084
  234MOL    H7742483   5.441   0.237   0.819 -1.6761  0.7632 -0.4323
  234MOL    H7842484   5.513   0.259   0.657 -1.0129 -0.1393 -1.3950
  234MOL    H7942485   5.535   0.470   0.865 -1.7571 -0.2790 -1.3615
  234MOL    H8042486   5.739   0.251   0.787  1.5725 -0.4089  0.6582
  234MOL    H8142487   5.743   0.367   0.932 -4.2352  1.9376  2.0666
  234MOL    H8242488   5.643   0.241   0.930 -0.2791  1.5636  0.1616
  234MOL    C8342489   5.632   0.495   0.683 -0.0302 -0.4120  0.0813
  234MOL    C8442490   5.678   0.629   0.753 -0.6852 -0.3904  0.4469
  234MOL    C8542491   5.795   0.696   0.668  0.4316  0.0330  0.0095
  234MOL    H8642492   5.719   0.451   0.634  0.4027  0.0590  0.4215
  234MOL    H8742493   5.568   0.521   0.598 -0.7765  0.6225  0.9369
  234MOL    H8842494   5.729   0.605   0.847 -1.5555 -1.3106  0.6902
  234MOL    H8942495   5.872   0.626   0.636  0.0915  0.2133 -1.2308
  234MOL    H9042496   5.755   0.746   0.580 -0.1193 -0.1941  0.1299
  234MOL    H9142497   5.836   0.775   0.730 -1.0095  0.8288 -0.0243
  234MOL    C9242498   5.566   0.725   0.786 -0.0109 -0.1955  0.2054
  234MOL    C9342499   5.555   0.754   0.935 -0.3389 -0.7080 -0.2604
  234MOL    C9442500   5.679   0.820   1.000  0.1539  0.0583 -0.0006
  234MOL    H9542501   5.576   0.817   0.729  0.2647 -2.0009 -2.7725
  234MOL    H9642502   5.473   0.681   0.749 -0.7922  0.5285  1.2942
  234MOL    H9742503   5.537   0.663   0.992  0.5933 -0.8345 -0.1755
  234MOL    H9842504   5.685   0.922   0.962 -1.4335 -0.5297 -1.9349
  234MOL    H9942505   5.670   0.826   1.108 -0.5412 -0.8304 -0.0008
  234MOL   H10042506   5.768   0.769   0.962  0.7719  0.6626  0.6287
  234MOL   C10142507   5.429   0.838   0.979 -0.1220 -0.1414  0.1408
  234MOL   C10242508   5.378   0.824   1.121  0.3125  0.3036  0.5700
  234MOL   C10342509   5.346   0.965   1.170  0.1423 -0.1045 -0.0827
  234MOL   H10442510   5.450   0.943   0.961 -0.6541 -0.2606 -1.2142
  234MOL   H10542511   5.354   0.816   0.903 -2.8703 -3.0222  3.5059
  234MOL   H10642512   5.447   0.785   1.197 -1.0173 -1.7041  0.7913
  234MOL   H10742513   5.301   1.029   1.094  2.7389  2.3248  0.3722
  234MOL   H10842514   5.278   0.976   1.255  0.2072 -0.4341  0.0119
  234MOL   H10942515   5.441   1.005   1.206 -0.4279  0.7330  0.5219
  234MOL   C11042516   5.247   0.736   1.119 -0.1270  1.1303 -0.5437
  234MOL   C11142517   5.215   0.653   1.245 -0.1074 -0.0156  0.1184
  234MOL   C11242518   5.065   0.610   1.253 -0.2045  0.6501 -0.1416
  234MOL   H11342519   5.159   0.800   1.110 -1.0334 -0.0062  0.0800
  234MOL   H11442520   5.244   0.677   1.028  1.7287 -1.5548  1.0405
  234MOL   H11542521   5.217   0.718   1.332 -2.8213  1.2422 -0.7039
  234MOL   H11642522   5.000   0.698   1.250 -0.6503  0.3130 -0.7389
  234MOL   H11742523   5.033   0.548   1.169  1.0542 -0.0231 -0.1265
  234MOL   H11842524   5.053   0.555   1.346  2.6520 -1.3510 -0.8757
  234MOL   C11942525   5.313   0.535   1.263 -0.0936  0.1244  0.3620
  234MOL   C12042526   5.391   0.520   1.396 -0.2327  1.0954 -0.5806
  234MOL   C12142527   5.287   0.534   1.518 -0.1057  0.1384  0.2981
  234MOL   H12242528   5.258   0.443   1.243  0.3093  0.0941 -0.6492
  234MOL   H12342529   5.393   0.546   1.190 -0.9424 -1.0458 -0.7776
  234MOL   H12442530   5.459   0.604   1.410 -0.9623  1.6960 -0.5970
  234MOL   H12542531   5.333   0.514   1.615 -2.4744  1.2090  1.6820
  234MOL   H12642532   5.243   0.633   1.520 -0.6066 -0.0751 -0.3361
  234MOL   H12742533   5.206   0.461   1.506 -0.6289  0.6357  0.7981
  234MOL   C12842534   5.473   0.393   1.414  0.2535  0.4942  0.6473
  234MOL   C12942535   5.584   0.362   1.307  0.0841  0.1238 -0.0880
  234MOL   C13042536   5.661   0.491   1.277 -0.1768 -0.4102  0.6615
  234MOL   H13142537   5.515   0.400   1.514  0.7525 -1.3975  0.5745
  234MOL   H13242538   5.409   0.305   1.411 -0.4938  1.0525 -0.6088
  234MOL   H13342539   5.531   0.336   1.215 -0.0788 -0.6017  0.2034
  234MOL   H13442540   5.699   0.542   1.365 -1.1277 -0.7079  1.2487
  234MOL   H13542541   5.751   0.479   1.217 -0.4221 -0.5232  0.3111
  234MOL   H13642542   5.602   0.565   1.223  2.5010  0.1165 -1.6619
  234MOL   C13742543   5.670   0.246   1.351 -1.0521  0.2115 -0.2441
  234MOL   C13842544   5.612   0.106   1.314  0.0968  1.1300  0.1995
  234MOL   C13942545   5.642   0.049   1.174 -0.0765  0.0604  0.2834
  234MOL   H14042546   5.763   0.260   1.297 -0.5370 -1.8500  0.0551
  234MOL   H14142547   5.697   0.273   1.453  0.4265 -1.2021 -0.2480
  234MOL   H14242548   5.503   0.112   1.321 -0.0578 -1.4025  0.3719
  234MOL   H14342549   5.641   7.638   1.163 -0.1443  0.1850 -0.9206
  234MOL   H14442550   5.567   0.091   1.107  0.2397  1.3020  0.6978
  234MOL   H14542551   5.739   0.079   1.137 -1.1617  3.1089 -0.2272
  234MOL   C14642552   5.659   7.696   1.418 -0.2905 -0.1763 -0.5219
  234MOL   C14742553   5.603   0.013   1.567  0.5833 -0.2665  0.6609
  234MOL   C14842554   5.458   7.661   1.586  1.0440 -0.2836 -0.1439
  234MOL   H14942555   5.627   7.598   1.383 -0.0435 -0.7031  0.7123
  234MOL   H15042556   5.768   7.689   1.420 -0.4477 -4.2667 -1.5962
  234MOL   H15142557   5.606   0.118   1.594  0.0701  0.1247 -0.7793
  234MOL   H15242558   5.435   7.660   1.692  0.4577 -2.9831 -0.2820
  234MOL   H15342559   5.381   0.012   1.524  0.2875  0.3985  1.3087
  234MOL   H15442560   5.452   7.553   1.571  0.7782 -0.2293 -0.4590
  234MOL   C15542561   5.689   7.639   1.679 -0.3005 -0.4596  0.0455
  234MOL   C15642562   5.702   0.020   1.813  0.3907  0.2808 -0.1342
  234MOL   C15742563   5.737   7.620   1.926 -0.6461 -0.1154  0.4166
  234MOL   H15842564   5.656   7.535   1.691  2.0201 -1.2326 -0.0181
  234MOL   H15942565   5.789   7.626   1.639 -1.0805 -1.0183 -1.7567
  234MOL   H16042566   5.606   0.058   1.848 -1.1006  1.1658 -4.8601
  234MOL   H16142567   5.832   7.571   1.906 -0.6925 -0.0606  0.0579
  234MOL   H16242568   5.742   7.682   2.016  0.5969  1.4387 -0.6872
  234MOL   H16342569   5.662   7.547   1.955 -0.5902  0.4768  2.1063
  234MOL   C16442570   5.811   0.126   1.801 -0.4594  0.4956 -0.2414
  234MOL   C16542571   5.819   0.235   1.907  0.6844 -0.1454  0.3870
  234MOL   C16642572   5.961   0.300   1.931  0.9023  0.0637 -0.1198
  234MOL   H16742573   5.911   0.086   1.786  0.1357  1.1249  1.8914
  234MOL   H16842574   5.799   0.168   1.701 -2.1622 -0.5662 -0.5122
  234MOL   H16942575   5.798   0.195   2.007  2.3551 -1.4745  0.2236
  234MOL   H17042576   6.026   0.230   1.983  1.4655 -0.1908 -1.1638
  234MOL   H17142577   6.021   0.303   1.840  0.7163 -0.9692 -0.2852
  234MOL   H17242578   5.961   0.389   1.994  1.2139  1.2665 -1.7890
  234MOL   C17342579   5.717   0.339   1.879  0.5870 -0.5855 -0.4838
  234MOL   C17442580   5.754   0.448   1.775 -0.0757 -0.6944  0.0512
  234MOL   C17542581   5.632   0.546   1.752 -0.0056 -0.1382  0.2552
  234MOL   H17642582   5.623   0.295   1.845 -0.4002  1.6304 -0.6903
  234MOL   H17742583   5.699   0.377   1.979  0.3453  0.6771 -1.0003
  234MOL   H17842584   5.781   0.405   1.678  0.1102  0.3764 -0.3729
  234MOL   H17942585   5.657   0.625   1.681  0.0405 -1.6844 -1.4952
  234MOL   H18042586   5.541   0.494   1.721  0.7078  0.1043 -2.3811
  234MOL   H18142587   5.602   0.602   1.841 -0.3036  0.3877 -0.1721
  234MOL   H18242588   5.842   0.508   1.795  0.0948 -0.7016 -0.6834
  235MOL     C142589   1.249   3.977   2.592 -0.0167  0.4119  0.5627
  235MOL     C242590   1.115   3.928   2.656 -0.2077  0.0878  0.8025
  235MOL     C342591   1.095   4.002   2.789  0.7955 -0.6072  0.0950
  235MOL     H442592   1.332   3.915   2.627 -0.9979 -2.1232 -1.3897
  235MOL     H542593   1.280   4.080   2.605 -0.0213  0.6229 -1.0764
  235MOL     H642594   1.119   3.821   2.677  0.1671 -0.7319 -3.1966
  235MOL     H742595   1.005   3.970   2.840  0.4286  0.6246  0.2459
  235MOL     H842596   1.187   3.989   2.846  1.9725  0.4279 -1.5256
  235MOL     H942597   1.090   4.106   2.758 -1.7540 -1.0375 -0.9929
  235MOL    H1042598   1.256   3.953   2.486  2.0591  2.4604  0.2191
  235MOL    C1142599   0.998   3.964   2.564 -0.3370 -0.0117  0.5324
  235MOL    C1242600   0.988   3.874   2.438 -0.2432  0.2433  0.1869
  235MOL    C1342601   0.925   3.740   2.486  0.1254  0.3818  0.4340
  235MOL    H1442602   0.905   3.954   2.620 -0.7063  0.0489 -0.0791
  235MOL    H1542603   1.002   4.070   2.540  1.7910 -0.5876 -1.7928
  235MOL    H1642604   1.084   3.851   2.392 -0.3786 -0.9844  0.4783
  235MOL    H1742605   0.820   3.755   2.512 -0.5750 -3.1283 -0.0974
  235MOL    H1842606   0.913   3.669   2.404 -0.2046 -0.2583  1.0261
  235MOL    H1942607   0.965   3.694   2.576 -1.3336 -0.4471  0.6797
  235MOL    C2042608   0.909   3.937   2.321 -0.2846 -0.3987  0.0960
  235MOL    C2142609   0.971   4.050   2.240  0.0221 -0.9163 -0.4417
  235MOL    C2242610   1.084   3.997   2.151 -0.5357  0.0104 -0.2350
  235MOL    H2342611   0.888   3.857   2.249  0.2308  1.6020 -2.3372
  235MOL    H2442612   0.810   3.961   2.361  0.0873  0.0787  0.7421
  235MOL    H2542613   1.016   4.127   2.303 -1.5916  0.0213 -0.4191
  235MOL    H2642614   1.123   4.078   2.090 -0.1626  0.8024  1.0314
  235MOL    H2742615   1.166   3.964   2.214 -1.3806 -0.2890  0.7389
  235MOL    H2842616   1.050   3.910   2.094  0.7568  0.4843 -1.7578
  235MOL    C2942617   0.866   4.130   2.153 -0.1542 -0.6853 -0.1339
  235MOL    C3042618   0.827   4.263   2.223 -0.2150  0.4194 -0.7784
  235MOL    C3142619   0.904   4.378   2.158 -0.3364  0.0448  0.3625
  235MOL    H3242620   0.902   4.159   2.055  0.2122  0.2382  0.2681
  235MOL    H3342621   0.792   4.053   2.133  2.1430 -2.3936 -2.4380
  235MOL    H3442622   0.852   4.260   2.329  0.8094  1.9011 -0.9716
  235MOL    H3542623   0.856   4.475   2.167 -0.9954 -0.0014 -2.3065
  235MOL    H3642624   1.011   4.371   2.180  0.2870  0.4565 -2.4378
  235MOL    H3742625   0.900   4.363   2.050 -1.1817  1.1110  0.2365
  235MOL    C3842626   0.675   4.287   2.218  0.2208  0.3882 -0.0243
  235MOL    C3942627   0.614   4.330   2.081 -0.6541  0.1202  0.4429
  235MOL    C4042628   0.648   4.248   1.960 -0.0472  0.5341  0.5402
  235MOL    H4142629   0.626   4.196   2.252 -2.6632  1.6383 -0.6845
  235MOL    H4242630   0.656   4.363   2.294 -0.0959 -0.3388  0.6363
  235MOL    H4342631   0.660   4.427   2.062 -0.6464 -0.1730 -1.0984
  235MOL    H4442632   0.580   4.287   1.884  0.1687  0.1364  0.1406
  235MOL    H4542633   0.750   4.252   1.923 -0.1809 -2.1408 -0.2572
  235MOL    H4642634   0.620   4.144   1.980 -0.7687  0.5880 -0.1552
  235MOL    C4742635   0.463   4.354   2.097  0.1297  0.4543 -0.0702
  235MOL    C4842636   0.399   4.460   2.005 -0.0106  1.0392 -0.8330
  235MOL    C4942637   0.279   4.403   1.916 -0.0305 -0.2390  0.0432
  235MOL    H5042638   0.420   4.254   2.086  1.6744 -0.4422  1.8838
  235MOL    H5142639   0.454   4.374   2.203  0.4832 -0.1344  0.0703
  235MOL    H5242640   0.477   4.465   1.929 -0.2778 -0.1688 -1.2085
  235MOL    H5342641   0.214   4.484   1.884 -0.4192 -0.1024  1.1582
  235MOL    H5442642   0.321   4.347   1.832 -1.8376  0.1847 -1.1657
  235MOL    H5542643   0.207   4.347   1.975 -0.7870  0.5387 -0.1323
  235MOL    C5642644   0.367   4.585   2.085  0.3308 -0.0995 -0.4480
  235MOL    C5742645   0.489   4.679   2.122 -0.6016  0.5086  0.5606
  235MOL    C5842646   0.553   4.725   1.993  0.0230 -0.4817  0.4622
  235MOL    H5942647   0.289   4.635   2.027 -0.8145  0.5672  1.6115
  235MOL    H6042648   0.311   4.560   2.175 -0.3262  1.4426 -0.4063
  235MOL    H6142649   0.566   4.629   2.181 -0.9690  1.1825  1.6349
  235MOL    H6242650   0.500   4.799   1.933  0.6729 -1.4405 -1.3228
  235MOL    H6342651   0.641   4.781   2.026  1.0840 -2.0621  0.3449
  235MOL    H6442652   0.600   4.653   1.927 -0.1393 -0.5843  0.4591
  235MOL    C6542653   0.442   4.795   2.213 -0.0312  0.1382  0.0075
  235MOL    C6642654   0.547   4.891   2.276  0.5117 -0.1106 -0.1574
  235MOL    C6742655   0.489   5.015   2.345  0.6248 -0.2855 -0.5477
  235MOL    H6842656   0.382   4.857   2.146  0.7381  0.9399  0.0431
  235MOL    H6942657   0.375   4.749   2.285 -0.6012  0.8797 -0.0499
  235MOL    H7042658   0.602   4.926   2.189  1.8108  2.5540  1.6732
  235MOL    H7142659   0.448   5.085   2.273 -2.2992 -0.2663  1.0663
  235MOL    H7242660   0.406   4.980   2.405 -0.2038  0.6559 -1.1319
  235MOL    H7342661   0.561   5.077   2.399  2.5996 -0.0017 -3.3825
  235MOL    C7442662   0.652   4.823   2.373  0.4435  0.1957  0.7408
  235MOL    C7542663   0.794   4.892   2.353  0.5561  0.7442 -0.3070
  235MOL    C7642664   0.878   4.867   2.475  0.1198 -0.0582  0.1288
  235MOL    H7742665   0.607   4.841   2.471  0.4376  2.9420  0.2675
  235MOL    H7842666   0.664   4.716   2.355 -1.8919 -0.3114  1.9228
  235MOL    H7942667   0.782   5.000   2.346 -0.6240  0.8300  2.2257
  235MOL    H8042668   0.984   4.891   2.468 -0.2449  1.6753  0.5061
  235MOL    H8142669   0.826   4.927   2.548 -0.5144  2.5361 -2.3678
  235MOL    H8242670   0.870   4.759   2.491  3.1217 -0.2822  0.4656
  235MOL    C8342671   0.870   4.834   2.229 -0.4987  0.5329  0.4454
  235MOL    C8442672   0.977   4.927   2.174 -0.6805 -0.2597  0.6597
  235MOL    C8542673   1.067   4.849   2.080  0.5348  0.0357  0.3662
  235MOL    H8642674   0.913   4.737   2.255 -0.2380  0.9075  1.4583
  235MOL    H8742675   0.793   4.801   2.159 -0.3617 -0.0171  0.5466
  235MOL    H8842676   1.039   4.955   2.259  0.1175 -0.1683  0.0549
  235MOL    H8942677   1.007   4.799   2.003  2.5250 -0.5631 -0.8332
  235MOL    H9042678   1.152   4.900   2.035  0.1224  0.6212  0.2439
  235MOL    H9142679   1.114   4.767   2.136  0.5142  0.9386  1.7207
  235MOL    C9242680   0.909   5.043   2.099  0.4611 -0.1716 -0.3074
  235MOL    C9342681   0.984   5.177   2.094  0.1563  0.7257  0.2746
  235MOL    C9442682   1.073   5.195   1.966  0.6333 -0.3955  0.0572
  235MOL    H9542683   0.898   5.007   1.997  1.7629 -1.0774 -0.1481
  235MOL    H9642684   0.810   5.066   2.140 -0.0394  0.4974 -1.8656
  235MOL    H9742685   1.062   5.176   2.170  1.0579 -0.1771 -0.6607
  235MOL    H9842686   1.122   5.292   1.965  0.9679 -0.5648 -0.3204
  235MOL    H9942687   1.160   5.129   1.969  1.5059  0.8114  2.5087
  235MOL   H10042688   1.008   5.184   1.879  0.6719 -1.7398  0.1823
  235MOL   C10142689   0.900   5.302   2.100 -0.7670  0.2108 -1.0473
  235MOL   C10242690   0.842   5.349   2.234 -0.0045 -0.3314 -0.1676
  235MOL   C10342691   0.944   5.345   2.350 -0.6166 -0.3945  0.3667
  235MOL   H10442692   0.955   5.386   2.057  0.3284  0.4060  0.7000
  235MOL   H10542693   0.815   5.299   2.032  0.4381  1.5758 -2.6678
  235MOL   H10642694   0.768   5.274   2.263 -0.0038  0.0499  0.8512
  235MOL   H10742695   0.905   5.367   2.450 -0.1661 -0.9904  0.6702
  235MOL   H10842696   0.985   5.245   2.348 -1.4303 -0.7086 -2.2483
  235MOL   H10942697   1.029   5.408   2.325 -0.7906 -0.1130  0.4748
  235MOL   C11042698   0.781   5.497   2.226 -0.9698  1.0559  0.5937
  235MOL   C11142699   0.668   5.513   2.118  0.1264 -0.4527 -0.0190
  235MOL   C11242700   0.540   5.443   2.165 -0.1473  0.0249  0.1862
  235MOL   H11342701   0.747   5.514   2.328 -2.3969  1.1054  0.1274
  235MOL   H11442702   0.859   5.568   2.203 -2.3102  1.9334 -1.3726
  235MOL   H11542703   0.701   5.475   2.021 -0.5917  1.1446 -0.9201
  235MOL   H11642704   0.498   5.486   2.256  0.8607  0.0024  0.6714
  235MOL   H11742705   0.464   5.454   2.088  0.6673 -0.1219 -0.6572
  235MOL   H11842706   0.553   5.335   2.170 -1.2661 -0.1532 -0.5704
  235MOL   C11942707   0.635   5.662   2.093 -0.0720  0.2429 -0.7859
  235MOL   C12042708   0.749   5.750   2.027  0.8033 -0.3199 -0.0249
  235MOL   C12142709   0.755   5.724   1.870  0.1727 -0.5331  0.0164
  235MOL   H12242710   0.548   5.672   2.028 -0.5308 -0.2340 -0.2521
  235MOL   H12342711   0.588   5.711   2.179 -0.8796  0.0977 -1.1443
  235MOL   H12442712   0.845   5.715   2.066  1.6621  0.2595 -1.5957
  235MOL   H12542713   0.804   5.630   1.846 -1.5624 -1.7050  0.9819
  235MOL   H12642714   0.657   5.714   1.824  0.4966 -0.0374 -0.8101
  235MOL   H12742715   0.797   5.809   1.815 -2.2273  0.2984 -0.5929
  235MOL   C12842716   0.742   5.897   2.061 -0.4393  0.6230 -0.0585
  235MOL   C12942717   0.877   5.965   2.075 -0.8846  0.7131  0.2034
  235MOL   C13042718   0.967   5.964   1.948 -0.0372 -0.1629  0.8327
  235MOL   H13142719   0.679   5.940   1.983  0.0161  0.0438 -0.7458
  235MOL   H13242720   0.682   5.915   2.150 -0.8649  0.2889 -0.2818
  235MOL   H13342721   0.940   5.918   2.150 -0.3444  2.1137  0.6414
  235MOL   H13442722   1.066   6.009   1.957 -0.0713  0.0857 -0.0434
  235MOL   H13542723   0.975   5.864   1.905  0.1722  0.1069  0.2346
  235MOL   H13642724   0.911   6.012   1.869  0.3108  0.9489  1.2514
  235MOL   C13742725   0.875   6.119   2.106  0.6128 -0.5628 -0.3908
  235MOL   C13842726   0.819   6.157   2.242 -0.3021 -0.4595 -0.2499
  235MOL   C13942727   0.879   6.078   2.353  0.4712  0.4195 -0.1931
  235MOL   H14042728   0.978   6.153   2.089  0.6801 -0.5072  0.1255
  235MOL   H14142729   0.816   6.172   2.033  1.0815 -0.5593 -0.7718
  235MOL   H14242730   0.713   6.131   2.239 -1.6554  4.4505 -0.2607
  235MOL   H14342731   0.831   6.101   2.448  1.0884  0.4225  0.1174
  235MOL   H14442732   0.862   5.971   2.340 -0.4951  0.5800 -0.3062
  235MOL   H14542733   0.985   6.095   2.367  0.5400  2.3022 -2.8004
  235MOL   C14642734   0.827   6.310   2.256 -0.4000 -0.0279  0.3530
  235MOL   C14742735   0.711   6.380   2.326  0.2019 -0.3141 -0.3784
  235MOL   C14842736   0.680   6.329   2.465  0.2045  0.1061 -0.5013
  235MOL   H14942737   0.925   6.339   2.295 -0.2958  1.0329 -0.6758
  235MOL   H15042738   0.830   6.359   2.159 -0.4353  1.2435  0.9856
  235MOL   H15142739   0.623   6.353   2.268 -3.4540  1.5060  4.0786
  235MOL   H15242740   0.758   6.348   2.538 -0.1910 -1.2182  0.2771
  235MOL   H15342741   0.602   6.389   2.511  0.6438 -0.9632  1.7205
  235MOL   H15442742   0.634   6.230   2.456  0.6776 -0.0505 -1.3136
  235MOL   C15542743   0.711   6.534   2.334 -0.8422  0.0190  0.3014
  235MOL   C15642744   0.733   6.613   2.207  0.1859  0.0986  0.1971
  235MOL   C15742745   0.633   6.580   2.097 -0.0977  0.4787 -0.2436
  235MOL   H15842746   0.621   6.583   2.373 -0.7989  0.0994  0.2990
  235MOL   H15942747   0.793   6.564   2.399 -1.9124  1.0089  1.2261
  235MOL   H16042748   0.829   6.591   2.159 -0.0042 -0.5699  0.1170
  235MOL   H16142749   0.557   6.658   2.099 -0.9480 -0.3147 -1.3245
  235MOL   H16242750   0.679   6.566   1.999  0.5478 -1.5360  0.3158
  235MOL   H16342751   0.591   6.481   2.113  0.6824 -0.5707 -4.2615
  235MOL   C16442752   0.737   6.758   2.238 -0.3179 -0.2228 -0.3334
  235MOL   C16542753   0.755   6.861   2.121 -0.0874  0.4084 -0.3337
  235MOL   C16642754   0.689   6.999   2.157  0.2333  0.2239 -0.4820
  235MOL   H16742755   0.637   6.783   2.273  0.1924  0.1361  0.8866
  235MOL   H16842756   0.798   6.802   2.317  1.9721 -2.2626 -0.8950
  235MOL   H16942757   0.706   6.822   2.032  0.2626  1.7583 -1.1334
  235MOL   H17042758   0.738   7.044   2.244  1.2218  0.6175 -1.2307
  235MOL   H17142759   0.690   7.068   2.072  2.2739  0.5631 -0.2066
  235MOL   H17242760   0.584   6.982   2.180  0.0752 -0.2733 -1.5561
  235MOL   C17342761   0.903   6.881   2.080 -1.2033 -0.2088 -0.2740
  235MOL   C17442762   0.921   7.001   1.981  0.0387  0.3955  0.0159
  235MOL   C17542763   0.855   6.990   1.844  0.1643  0.3419  0.1926
  235MOL   H17642764   0.956   6.899   2.174  0.0518  0.1950 -1.0513
  235MOL   H17742765   0.943   6.792   2.033 -0.4808  1.1082 -2.2211
  235MOL   H17842766   1.028   7.013   1.965 -0.0349 -0.5814 -1.2006
  235MOL   H17942767   0.860   7.084   1.789  0.2067 -0.9473 -2.0708
  235MOL   H18042768   0.905   6.915   1.783  1.5107  1.3110  0.0829
  235MOL   H18142769   0.751   6.962   1.863  0.2170  0.3613  0.5080
  235MOL   H18242770   0.894   7.097   2.026  2.6015  0.6485  1.0825
  236MOL     C142771   5.649   2.034   5.249 -0.1248 -0.7695  0.4820
  236MOL     C242772   5.771   1.951   5.215 -0.0842 -0.2853 -0.2122
  236MOL     C342773   5.894   1.992   5.299  0.1816  0.6619 -0.0444
  236MOL     H442774   5.565   2.020   5.182 -1.0743 -2.3739  1.9448
  236MOL     H542775   5.667   2.141   5.257 -2.0526 -0.5977  3.4584
  236MOL     H642776   5.794   1.972   5.110  0.0925 -0.1631 -0.1504
  236MOL     H742777   5.917   2.098   5.290  0.2135  0.4925 -2.3401
  236MOL     H842778   5.889   1.968   5.405 -2.2729  2.8370  0.3909
  236MOL     H942779   5.973   1.934   5.251  0.2207 -0.8343  1.7780
  236MOL    H1042780   5.608   2.007   5.346  1.9372 -0.8807  1.3579
  236MOL    C1142781   5.752   1.799   5.232 -0.1382 -0.5033  0.4565
  236MOL    C1242782   5.642   1.731   5.157  0.7161  0.0957 -0.0550
  236MOL    C1342783   5.683   1.714   5.012 -0.6101 -0.3616 -0.5378
  236MOL    H1442784   5.847   1.752   5.210  0.9108  2.4983 -1.7361
  236MOL    H1542785   5.738   1.780   5.338 -0.4903 -1.4330  0.2502
  236MOL    H1642786   5.554   1.795   5.150  0.8147  0.0652 -1.8045
  236MOL    H1742787   5.767   1.645   5.007  0.3883  0.6498  1.6878
  236MOL    H1842788   5.613   1.661   4.947 -0.7936  0.9341 -1.4234
  236MOL    H1942789   5.700   1.813   4.969  1.3127  0.4394  1.9878
  236MOL    C2042790   5.592   1.595   5.218 -0.4387 -0.5771  0.5241
  236MOL    C2142791   5.452   1.611   5.272 -0.0130 -0.0598  0.1947
  236MOL    C2242792   5.401   1.471   5.312  0.5835  0.0986 -0.3730
  236MOL    H2342793   5.605   1.512   5.150  1.5227  0.5283 -0.4905
  236MOL    H2442794   5.661   1.573   5.299  1.0174 -0.3543 -0.6494
  236MOL    H2542795   5.390   1.645   5.189  0.5029  0.6135  0.0842
  236MOL    H2642796   5.417   1.410   5.224 -1.2003 -1.6117  0.4587
  236MOL    H2742797   5.465   1.437   5.394 -0.5448  0.5347  0.6929
  236MOL    H2842798   5.297   1.481   5.340  0.6724 -1.3065  0.4951
  236MOL    C2942799   5.430   1.709   5.393  0.3159  0.2431  0.3673
  236MOL    C3042800   5.286   1.716   5.455 -0.2243 -0.4838  0.3239
  236MOL    C3142801   5.293   1.808   5.584  0.5344 -0.2080 -0.0167
  236MOL    H3242802   5.489   1.678   5.479  0.9949 -2.9076 -1.1520
  236MOL    H3342803   5.460   1.812   5.375  0.6356 -0.0821 -1.0044
  236MOL    H3442804   5.271   1.615   5.491  0.5193 -0.1473  1.6075
  236MOL    H3542805   5.200   1.790   5.638  0.0472 -0.0293 -0.7749
  236MOL    H3642806   5.369   1.775   5.653 -1.4118  1.3455  2.9855
  236MOL    H3742807   5.289   1.913   5.554 -0.3272 -0.6109 -1.4100
  236MOL    C3842808   5.172   1.753   5.354  0.7876 -1.0011  0.1217
  236MOL    C3942809   5.031   1.747   5.411  0.3874  1.4944  0.2670
  236MOL    C4042810   4.954   1.880   5.392  0.4138  0.0069 -0.1815
  236MOL    H4142811   5.183   1.852   5.310  0.0706 -0.1740  1.7349
  236MOL    H4242812   5.166   1.684   5.271 -2.3351  1.8058 -2.1078
  236MOL    H4342813   5.033   1.736   5.520 -1.7931  0.2624  0.2016
  236MOL    H4442814   5.006   1.966   5.433 -0.8067  0.1435  1.0889
  236MOL    H4542815   4.944   1.912   5.288  1.1400 -0.6832 -0.4710
  236MOL    H4642816   4.855   1.877   5.438  0.2948 -2.5617 -0.5156
  236MOL    C4742817   4.939   1.627   5.359 -0.0514  0.2060 -0.4581
  236MOL    C4842818   4.988   1.489   5.402  0.1585  0.1512  0.5273
  236MOL    C4942819   4.986   1.476   5.552 -0.1247 -0.0969  0.2144
  236MOL    H5042820   4.836   1.639   5.391 -0.1067  1.1593 -0.9642
  236MOL    H5142821   4.949   1.639   5.251 -0.7267  0.7371 -0.4698
  236MOL    H5242822   5.086   1.462   5.362 -1.5877 -1.2542 -3.0294
  236MOL    H5342823   5.063   1.529   5.609  1.6071 -0.6652 -1.5640
  236MOL    H5442824   4.893   1.505   5.602 -1.4651  1.0503 -2.8410
  236MOL    H5542825   5.002   1.372   5.581  0.9816  0.0262  0.0475
  236MOL    C5642826   4.884   1.376   5.356 -0.0770  0.9965  0.4726
  236MOL    C5742827   4.852   1.374   5.206 -0.4636 -0.2778  0.3873
  236MOL    C5842828   4.978   1.332   5.129 -1.3863  0.6523  0.3076
  236MOL    H5942829   4.901   1.272   5.385  0.4015  0.8611 -0.2685
  236MOL    H6042830   4.795   1.387   5.418 -0.2565 -1.1773  0.6420
  236MOL    H6142831   4.824   1.471   5.167 -2.4718 -1.4564 -1.2070
  236MOL    H6242832   5.018   1.233   5.149 -3.8297 -0.1539  1.4224
  236MOL    H6342833   4.954   1.337   5.022 -3.5964  0.2177  0.7604
  236MOL    H6442834   5.057   1.405   5.144 -0.8886  0.4880 -1.3233
  236MOL    C6542835   4.729   1.292   5.167 -0.1518 -0.4050 -0.3567
  236MOL    C6642836   4.592   1.350   5.204 -0.2447 -0.1316 -0.0306
  236MOL    C6742837   4.539   1.450   5.109 -0.1734  0.5917 -0.1170
  236MOL    H6842838   4.717   1.272   5.061  0.3311  0.0044 -0.4941
  236MOL    H6942839   4.744   1.201   5.225  2.6464  0.5854  0.5942
  236MOL    H7042840   4.599   1.407   5.297 -0.7494  0.7806 -0.5421
  236MOL    H7142841   4.618   1.523   5.098 -1.7585  2.3724  0.1119
  236MOL    H7242842   4.514   1.420   5.007 -1.1012 -1.0899  0.5759
  236MOL    H7342843   4.456   1.511   5.146  0.5016  0.4480  1.6863
  236MOL    C7442844   4.487   1.238   5.229 -0.3161 -0.1279  0.3231
  236MOL    C7542845   4.500   1.160   5.361 -0.1556  0.3000 -0.0354
  236MOL    C7642846   4.440   1.241   5.477 -0.3741  0.3474  0.3525
  236MOL    H7742847   4.386   1.275   5.209 -0.4248 -0.3595  0.4505
  236MOL    H7842848   4.505   1.164   5.151  1.7259 -0.5865  1.2189
  236MOL    H7942849   4.606   1.151   5.384 -0.1044  1.0903  0.0503
  236MOL    H8042850   4.475   1.209   5.575 -2.7848 -2.2206  0.4434
  236MOL    H8142851   4.469   1.346   5.471  1.9779 -0.3420 -1.2457
  236MOL    H8242852   4.334   1.223   5.463  0.2955 -2.2592 -1.8786
  236MOL    C8342853   4.443   1.024   5.359 -0.0469 -0.8475 -0.5468
  236MOL    C8442854   4.547   0.922   5.311  0.1785  0.4168 -0.8014
  236MOL    C8542855   4.625   0.861   5.425  0.2907  0.3122  0.0590
  236MOL    H8642856   4.411   0.996   5.460  0.5057  1.5146  0.3243
  236MOL    H8742857   4.350   1.038   5.304 -0.0178  0.3082 -0.3049
  236MOL    H8842858   4.623   0.961   5.243  2.6474 -0.4870  1.3962
  236MOL    H8942859   4.690   0.787   5.379 -1.0601 -0.9377  0.1082
  236MOL    H9042860   4.693   0.922   5.484  0.3837  0.5552 -0.2951
  236MOL    H9142861   4.564   0.814   5.502 -1.7815  1.5476 -0.7590
  236MOL    C9242862   4.483   0.809   5.228 -0.0493 -0.2150  0.3077
  236MOL    C9342863   4.424   0.842   5.089 -0.6792 -0.7765  0.4935
  236MOL    C9442864   4.536   0.868   4.989  0.2977  0.8994  0.0062
  236MOL    H9542865   4.563   0.736   5.210 -0.4621 -0.2672 -1.3434
  236MOL    H9642866   4.410   0.772   5.300 -1.5496  0.4726 -0.8659
  236MOL    H9742867   4.372   0.938   5.099  1.4347  0.2419  2.0213
  236MOL    H9842868   4.501   0.933   4.909  0.2897  0.1451 -0.6049
  236MOL    H9942869   4.630   0.889   5.040 -0.7060  0.5314  2.0369
  236MOL   H10042870   4.541   0.774   4.934  0.2486  0.8540  0.0809
  236MOL   C10142871   4.320   0.739   5.040  0.2124 -0.5968  0.2387
  236MOL   C10242872   4.230   0.799   4.923 -0.2828 -0.3562  0.4313
  236MOL   C10342873   4.275   0.758   4.781 -0.6872  0.7015 -0.3527
  236MOL   H10442874   4.361   0.640   5.020 -0.0863 -0.7477  0.3623
  236MOL   H10542875   4.258   0.715   5.126 -0.8901  0.9868 -0.0805
  236MOL   H10642876   4.242   0.907   4.929 -0.0700 -0.4682  2.4196
  236MOL   H10742877   4.259   0.652   4.764  3.3288  0.1894 -1.5296
  236MOL   H10842878   4.235   0.812   4.695  0.9617  2.0906 -0.2840
  236MOL   H10942879   4.384   0.761   4.770 -0.4426  2.1226  2.1190
  236MOL   C11042880   4.073   0.776   4.942 -0.0553  0.0137 -0.0127
  236MOL   C11142881   4.005   0.836   5.066 -0.1319 -0.4517 -0.2651
  236MOL   C11242882   3.984   0.988   5.057 -0.3878  0.1858  0.3008
  236MOL   H11342883   4.023   0.818   4.855  0.1376 -0.2089 -0.2306
  236MOL   H11442884   4.058   0.668   4.945  1.3094 -0.1549  1.4215
  236MOL   H11542885   4.063   0.826   5.157 -0.7612 -2.3501 -0.0481
  236MOL   H11642886   4.081   1.037   5.048  0.3650 -1.1629  0.9225
  236MOL   H11742887   3.917   1.021   4.978  0.6173  0.6735 -0.3579
  236MOL   H11842888   3.941   1.022   5.152  0.5661 -0.8360  1.1068
  236MOL   C11942889   3.864   0.769   5.090  0.0225 -0.2598 -0.4349
  236MOL   C12042890   3.863   0.621   5.146 -0.2248  0.3787  0.1575
  236MOL   C12142891   3.970   0.598   5.255  0.7151 -0.5566 -0.3984
  236MOL   H12242892   3.820   0.833   5.166  1.0685  1.8343 -1.5367
  236MOL   H12342893   3.804   0.776   4.999 -2.9096  0.7125  1.5139
  236MOL   H12442894   3.896   0.552   5.069 -0.3687 -1.4970  1.7345
  236MOL   H12542895   3.967   0.496   5.294 -1.8721 -0.5191 -0.4422
  236MOL   H12642896   4.075   0.607   5.227  0.6951  0.4313 -0.1773
  236MOL   H12742897   3.953   0.661   5.342  3.0361 -1.9584  1.1370
  236MOL   C12842898   3.715   0.584   5.186 -0.2642 -0.0306  0.4153
  236MOL   C12942899   3.599   0.591   5.082 -0.2197 -0.0371  0.4975
  236MOL   C13042900   3.633   0.510   4.956  0.6041  0.3695  0.3205
  236MOL   H13142901   3.706   0.486   5.233 -1.0310  0.2661  0.9044
  236MOL   H13242902   3.684   0.651   5.266  2.8336  0.6208  1.1533
  236MOL   H13342903   3.591   0.696   5.053  1.0045 -0.1379 -0.2332
  236MOL   H13442904   3.544   0.509   4.893  0.5550 -1.0993  0.3924
  236MOL   H13542905   3.716   0.556   4.902  0.7683 -0.7419 -0.3826
  236MOL   H13642906   3.642   0.403   4.975  1.0010 -0.0360 -2.0214
  236MOL   C13742907   3.462   0.557   5.150 -0.1763  0.0807 -0.3738
  236MOL   C13842908   3.441   0.424   5.217 -0.4756  0.2029 -0.0448
  236MOL   C13942909   3.450   0.441   5.372  0.2633 -0.2813  1.4500
  236MOL   H14042910   3.440   0.640   5.216 -0.4058 -0.1551 -0.1519
  236MOL   H14142911   3.384   0.569   5.074  0.0156 -1.0015 -0.7596
  236MOL   H14242912   3.517   0.357   5.176 -0.0574 -0.0962  1.1923
  236MOL   H14342913   3.368   0.502   5.412  0.3054 -0.0939  1.2508
  236MOL   H14442914   3.438   0.350   5.431 -0.8418 -0.2501  1.2874
  236MOL   H14542915   3.547   0.479   5.403  0.3622 -1.5424  2.7628
  236MOL   C14642916   3.323   0.332   5.168  0.7772 -0.2172  0.4397
  236MOL   C14742917   3.196   0.344   5.250  0.1013  0.5203  0.3112
  236MOL   C14842918   3.142   0.489   5.259  0.0006 -0.0647  0.5515
  236MOL   H14942919   3.302   0.346   5.062  0.3740 -0.2846  0.5100
  236MOL   H15042920   3.354   0.228   5.168  0.1437 -0.4206 -1.4799
  236MOL   H15142921   3.229   0.324   5.353  1.1373 -1.7129 -0.4157
  236MOL   H15242922   3.209   0.572   5.279  0.1778 -0.4537  1.6067
  236MOL   H15342923   3.095   0.532   5.170 -0.9870 -0.0012  1.0921
  236MOL   H15442924   3.067   0.500   5.338 -1.0162  0.9859 -0.5297
  236MOL   C15542925   3.089   0.243   5.204  0.3082 -0.3876 -0.1604
  236MOL   C15642926   3.128   0.093   5.217  0.1249 -0.0315  0.1340
  236MOL   C15742927   3.166   0.046   5.358  0.2119 -0.2157 -0.4190
  236MOL   H15842928   2.997   0.253   5.262  0.4468 -1.0964  0.1883
  236MOL   H15942929   3.063   0.280   5.105  0.6104  0.5351  0.0913
  236MOL   H16042930   3.222   0.079   5.163  0.8319  1.0915  1.0427
  236MOL   H16142931   3.192   7.637   5.357 -0.1130 -0.2940 -0.7625
  236MOL   H16242932   3.250   0.106   5.392 -1.2337  1.5054  0.1320
  236MOL   H16342933   3.088   0.057   5.432  0.0823  3.8633 -1.0602
  236MOL   C16442934   3.013   0.005   5.161  0.0432  0.0277  0.6709
  236MOL   C16542935   2.972   0.008   5.014  0.7934  0.0731 -0.2482
  236MOL   C16642936   3.086   0.026   4.916 -0.1364  0.0497  0.5560
  236MOL   H16742937   3.028   7.599   5.191  0.9628 -0.3830 -1.1406
  236MOL   H16842938   2.925   0.029   5.221  0.3790  0.6940  0.9055
  236MOL   H16942939   2.910   0.095   4.993  1.8828  1.0353  0.4092
  236MOL   H17042940   3.123   0.129   4.911  2.1044 -0.7938 -0.7479
  236MOL   H17142941   3.169   7.657   4.940  0.5154  0.2546 -1.0640
  236MOL   H17242942   3.064   0.009   4.811  0.9413 -2.4076  0.7030
  236MOL   C17342943   2.893   7.578   4.987  0.5476 -0.3514 -0.2589
  236MOL   C17442944   2.758   7.557   5.063  0.7129 -0.0059 -0.1179
  236MOL   C17542945   2.661   7.668   5.031  0.2688  0.3541  0.3727
  236MOL   H17642946   2.872   7.563   4.881  1.8130  2.1827 -0.8882
  236MOL   H17742947   2.949   7.489   5.015  0.8808 -0.1994 -0.4431
  236MOL   H17842948   2.781   7.551   5.170  2.0460 -1.2962 -0.4544
  236MOL   H17942949   2.702   0.066   5.065  1.3944  0.4765 -1.2344
  236MOL   H18042950   2.638   7.682   4.925  1.6562 -0.6070 -0.0672
  236MOL   H18142951   2.557   7.659   5.061 -0.2479  1.7425 -0.9525
  236MOL   H18242952   2.724   7.457   5.034 -0.4301  0.2506  0.3251
  237MOL     C142953   6.023   4.407   4.772 -0.4346 -0.3867 -0.2466
  237MOL     C242954   5.905   4.311   4.743  0.0387  0.0238 -0.0207
  237MOL     C342955   5.944   4.203   4.636  0.0010 -0.5174  0.4038
  237MOL     H442956   6.008   4.471   4.859  0.3890 -2.2060  1.2532
  237MOL     H542957   6.039   4.479   4.691  1.3957  1.1590  1.4442
  237MOL     H642958   5.833   4.378   4.697  2.1805  2.1674 -0.3587
  237MOL     H742959   5.978   4.260   4.550  0.7050 -0.7163  0.5492
  237MOL     H842960   6.026   4.134   4.658 -0.2909 -0.9807  0.0571
  237MOL     H942961   5.846   4.162   4.613  0.2805 -0.4977 -0.8317
  237MOL    H1042962   6.114   4.347   4.777  0.8474  1.5820  0.9100
  237MOL    C1142963   5.847   4.241   4.869  0.1864  0.1018  0.5467
  237MOL    C1242964   5.781   4.317   4.982  0.1267  0.1291 -0.4154
  237MOL    C1342965   5.671   4.411   4.932 -0.6228  1.0470 -0.6754
  237MOL    H1442966   5.769   4.168   4.845  0.1053  0.0622  0.9306
  237MOL    H1542967   5.930   4.184   4.909  0.7745 -0.2454 -1.1105
  237MOL    H1642968   5.861   4.382   5.018  0.9680 -0.4900 -1.1503
  237MOL    H1742969   5.708   4.472   4.850 -1.0583 -0.2073 -1.8192
  237MOL    H1842970   5.587   4.351   4.896 -0.2924  0.4041 -0.3798
  237MOL    H1942971   5.638   4.477   5.012 -1.5478  0.9039 -0.9317
  237MOL    C2042972   5.726   4.223   5.099 -0.2600 -0.1749 -0.2246
  237MOL    C2142973   5.827   4.143   5.185  0.3740 -0.2402 -0.2841
  237MOL    C2242974   5.925   4.230   5.266 -0.3666 -0.7400  0.1986
  237MOL    H2342975   5.655   4.270   5.167  0.5321  0.1609  0.3823
  237MOL    H2442976   5.669   4.148   5.044 -2.4050  2.0052 -1.0798
  237MOL    H2542977   5.886   4.086   5.112  1.9366  0.8415  0.1059
  237MOL    H2642978   5.865   4.293   5.332 -1.5691  0.6934 -2.1901
  237MOL    H2742979   5.987   4.159   5.320 -0.6924 -1.8518 -0.8515
  237MOL    H2842980   5.980   4.293   5.196 -0.3563 -0.4120  0.4995
  237MOL    C2942981   5.737   4.045   5.267 -0.3780  0.2161  0.2058
  237MOL    C3042982   5.804   3.976   5.386 -0.0094 -0.5740 -0.3155
  237MOL    C3142983   5.704   3.910   5.477  0.8865 -0.1280  0.2307
  237MOL    H3242984   5.647   4.098   5.295 -0.1649  0.8644 -0.3332
  237MOL    H3342985   5.698   3.970   5.198  1.4037  1.0101 -1.7141
  237MOL    H3442986   5.847   4.057   5.445 -0.6748 -1.0643  0.8799
  237MOL    H3542987   5.615   3.972   5.478  0.3079 -0.9487  0.1403
  237MOL    H3642988   5.659   3.818   5.440  0.2886 -0.0084  0.6545
  237MOL    H3742989   5.747   3.907   5.578 -1.4467 -3.5749  1.2289
  237MOL    C3842990   5.908   3.870   5.341  0.5459 -0.3343 -0.4987
  237MOL    C3942991   5.971   3.779   5.453 -0.5344 -0.5634 -0.0404
  237MOL    C4042992   6.033   3.650   5.396  0.5353 -0.1190  0.7489
  237MOL    H4142993   5.852   3.812   5.267  0.4867  0.9270 -1.4591
  237MOL    H4242994   5.989   3.913   5.282  0.4003  0.8378  0.1464
  237MOL    H4342995   5.898   3.739   5.523  1.1363  1.1787  2.8054
  237MOL    H4442996   6.102   3.683   5.319  0.4211 -1.3764  0.0899
  237MOL    H4542997   6.078   3.593   5.477 -1.5384 -1.5752  0.9172
  237MOL    H4642998   5.952   3.591   5.352  0.5515  1.3585 -1.3659
  237MOL    C4742999   6.072   3.861   5.539 -0.1955 -0.4777 -0.2738
  237MOL    C4843000   6.111   3.809   5.680  0.4086 -0.0240 -0.0009
  237MOL    C4943001   6.250   3.854   5.725 -0.2107  0.3275  0.0585
  237MOL    H5043002   6.158   3.881   5.476 -1.2847  0.8227 -1.3756
  237MOL    H5143003   6.033   3.960   5.560  0.1324 -0.8986  2.6007
  237MOL    H5243004   6.139   3.704   5.673 -1.7566 -0.4757 -2.9360
  237MOL    H5343005   6.279   3.805   5.818 -0.5706  0.7152  0.3781
  237MOL    H5443006   6.315   3.827   5.643 -1.6317  1.1654 -1.3765
  237MOL    H5543007   6.264   3.961   5.736 -0.8642  0.3759  0.4798
  237MOL    C5643008   6.012   3.852   5.792  0.3745  1.0882 -0.4093
  237MOL    C5743009   6.021   3.773   5.920  0.0229  0.2955  0.8633
  237MOL    C5843010   6.009   3.867   6.036  0.1670  0.0159 -0.3183
  237MOL    H5943011   6.014   3.960   5.809 -2.3179  1.0390  0.3847
  237MOL    H6043012   5.909   3.853   5.756  0.4796  0.0537 -0.7617
  237MOL    H6143013   6.115   3.719   5.921  0.0639  0.3204 -0.3324
  237MOL    H6243014   5.926   3.937   6.030 -0.1380 -0.4849 -2.1012
  237MOL    H6343015   6.003   3.801   6.123  0.4764 -0.8086 -0.9156
  237MOL    H6443016   6.101   3.918   6.062 -1.2770  1.5205  1.9841
  237MOL    C6543017   5.919   3.662   5.927 -0.5024 -0.7652  0.1541
  237MOL    C6643018   5.947   3.537   5.830 -0.1289 -0.1046 -0.5860
  237MOL    C6743019   6.070   3.454   5.870 -0.3884  0.1665 -0.1946
  237MOL    H6843020   5.911   3.616   6.025  1.0565  0.9905  1.1340
  237MOL    H6943021   5.826   3.716   5.910 -0.5490 -0.8814  0.0405
  237MOL    H7043022   5.949   3.576   5.728 -0.8993 -0.2113 -0.6452
  237MOL    H7143023   6.077   3.369   5.802 -1.1292 -0.6976  0.7945
  237MOL    H7243024   6.160   3.513   5.856 -1.3982  2.0909  1.1477
  237MOL    H7343025   6.062   3.406   5.967 -1.0719  0.8183  0.0742
  237MOL    C7443026   5.822   3.438   5.839 -0.2804  0.5530  0.0047
  237MOL    C7543027   5.687   3.496   5.793  0.7506 -0.0019 -0.5409
  237MOL    C7643028   5.679   3.519   5.643  0.3460 -0.3047  0.3609
  237MOL    H7743029   5.845   3.351   5.777  1.6857  1.4827 -0.6086
  237MOL    H7843030   5.824   3.397   5.940  0.6570  0.1869 -0.1539
  237MOL    H7943031   5.680   3.597   5.833 -1.0671  0.4217 -1.8730
  237MOL    H8043032   5.660   3.431   5.582 -1.0916 -0.3464  0.8504
  237MOL    H8143033   5.599   3.587   5.615  0.0183  0.1048  2.2021
  237MOL    H8243034   5.774   3.562   5.613 -1.2779  1.5739 -2.3968
  237MOL    C8343035   5.566   3.422   5.863  0.2263  0.9285  0.4725
  237MOL    C8443036   5.431   3.495   5.851  0.3298  0.2042  0.6147
  237MOL    C8543037   5.313   3.395   5.834  0.0045  0.6453  0.0974
  237MOL    H8643038   5.543   3.327   5.815  3.6846  1.6845 -2.8829
  237MOL    H8743039   5.587   3.403   5.968  0.5427  1.1708  0.4552
  237MOL    H8843040   5.430   3.543   5.752  0.8160 -0.0096  0.5026
  237MOL    H8943041   5.220   3.451   5.822 -1.4559 -1.5529  0.8719
  237MOL    H9043042   5.318   3.327   5.749  1.5324 -0.5530  1.1244
  237MOL    H9143043   5.303   3.335   5.924  1.1604 -1.7199 -1.3138
  237MOL    C9243044   5.409   3.597   5.963 -0.1813  0.0713 -0.1641
  237MOL    C9343045   5.347   3.740   5.932 -0.1242 -0.1065  0.1296
  237MOL    C9443046   5.185   3.739   5.923  0.3716 -0.2001 -0.0971
  237MOL    H9543047   5.348   3.551   6.040 -1.1563  2.2016  0.3652
  237MOL    H9643048   5.506   3.618   6.008 -0.9879  1.2879  1.0464
  237MOL    H9743049   5.384   3.774   5.836 -2.0071  0.0609 -0.5629
  237MOL    H9843050   5.137   3.713   6.017 -1.2925  1.1329 -0.5599
  237MOL    H9943051   5.152   3.840   5.899  0.3876 -0.0418  0.5293
  237MOL   H10043052   5.140   3.674   5.848  0.6660 -3.0166  2.0673
  237MOL   C10143053   5.413   3.845   6.036 -0.0773  0.4350 -0.4166
  237MOL   C10243054   5.546   3.900   5.996 -0.3062 -0.2296  0.4393
  237MOL   C10343055   5.551   3.978   5.859  0.3385  0.1750 -0.1033
  237MOL   H10443056   5.355   3.937   6.036  0.2586  0.6927  3.0394
  237MOL   H10543057   5.399   3.805   6.136 -2.1065 -0.1522 -0.9183
  237MOL   H10643058   5.610   3.813   5.979 -0.1112  0.1880 -1.0401
  237MOL   H10743059   5.462   4.037   5.838 -0.3992 -1.1305 -0.7831
  237MOL   H10843060   5.639   4.042   5.856  1.5139 -1.3934 -0.2218
  237MOL   H10943061   5.557   3.907   5.776 -0.1739  1.1028 -0.9458
  237MOL   C11043062   5.608   4.007   6.096  0.4207 -0.1169 -0.1893
  237MOL   C11143063   5.629   3.967   6.247 -0.0937 -0.2767 -0.1975
  237MOL   C11243064   5.684   3.831   6.270 -0.2138  0.8447  0.4352
  237MOL   H11343065   5.710   4.019   6.062  0.3661  0.9742  0.0269
  237MOL   H11443066   5.554   4.101   6.089 -1.4973 -1.2447 -0.9745
  237MOL   H11543067   5.534   3.963   6.300 -0.9903 -1.6010 -1.8451
  237MOL   H11643068   5.690   3.799   6.374 -2.9436 -1.2602  0.0133
  237MOL   H11743069   5.613   3.759   6.230 -0.1085  1.4939 -0.9531
  237MOL   H11843070   5.782   3.808   6.227 -0.0352 -0.1342  1.3569
  237MOL   C11943071   5.705   4.070   6.323  0.2468 -0.0814  0.0327
  237MOL   C12043072   5.635   4.207   6.356 -0.5637  0.0553  0.2014
  237MOL   C12143073   5.526   4.185   6.465 -0.3523 -0.0079  0.2070
  237MOL   H12243074   5.740   4.041   6.422 -0.0033 -0.5257 -0.0020
  237MOL   H12343075   5.804   4.087   6.281  1.0731 -0.5624  1.7334
  237MOL   H12443076   5.589   4.238   6.263 -1.3010  0.0532  0.5609
  237MOL   H12543077   5.494   4.278   6.510 -2.0876 -0.2168 -0.5788
  237MOL   H12643078   5.442   4.136   6.416 -0.2606  0.1043 -0.0627
  237MOL   H12743079   5.568   4.128   6.549 -0.0187 -1.1426 -0.7073
  237MOL   C12843080   5.739   4.307   6.411  0.1305 -0.4421 -0.8863
  237MOL   C12943081   5.829   4.363   6.298 -0.8321 -0.0912  0.0809
  237MOL   C13043082   5.786   4.501   6.246  0.3810 -0.1976 -0.1958
  237MOL   H13143083   5.687   4.385   6.467 -0.7901 -1.4814 -0.2707
  237MOL   H13243084   5.800   4.267   6.492 -0.8852 -1.1959 -0.4721
  237MOL   H13343085   5.828   4.297   6.211  1.2737 -0.2738  0.1827
  237MOL   H13443086   5.680   4.503   6.223 -0.2554 -0.3561  2.6018
  237MOL   H13543087   5.795   4.594   6.303 -0.1626  0.0855 -0.5727
  237MOL   H13643088   5.840   4.521   6.153 -1.5928  0.6214 -1.1945
  237MOL   C13743089   5.970   4.374   6.353  0.2871 -0.4781  0.6928
  237MOL   C13843090   6.054   4.243   6.384 -0.1311 -0.2389  0.1554
  237MOL   C13943091   6.078   4.145   6.268  0.1861 -0.5782 -0.3960
  237MOL   H14043092   6.034   4.436   6.291  0.9699  0.1935  2.0318
  237MOL   H14143093   5.961   4.433   6.445  0.7014 -1.3464  1.2977
  237MOL   H14243094   5.994   4.187   6.456  0.9904 -1.0235  0.4936
  237MOL   H14343095   6.152   4.184   6.198  0.0206  0.7462  0.1606
  237MOL   H14443096   6.103   4.043   6.297  2.3926 -0.0054 -0.2448
  237MOL   H14543097   5.991   4.158   6.203 -0.3335  0.0822  0.4196
  237MOL   C14643098   6.197   4.271   6.442  0.4393  0.1211  0.0387
  237MOL   C14743099   6.196   4.330   6.589 -1.0876 -0.7749  0.3570
  237MOL   C14843100   6.109   4.258   6.687 -0.4098 -0.5975 -0.2976
  237MOL   H14943101   6.256   4.181   6.456  0.3774  0.5247  3.1478
  237MOL   H15043102   6.247   4.338   6.372  2.2734 -0.0396  1.1704
  237MOL   H15143103   6.161   4.432   6.576  3.2490  0.8920  0.8048
  237MOL   H15243104   6.000   4.261   6.675 -0.4816 -0.1954  0.3985
  237MOL   H15343105   6.138   4.154   6.701  2.4024  0.3750  1.4192
  237MOL   H15443106   6.124   4.307   6.783 -1.5654 -1.7690  0.5059
  237MOL   C15543107   6.337   4.350   6.640 -0.2552 -0.6792 -0.1953
  237MOL   C15643108   6.426   4.454   6.569  0.3015 -0.5593 -0.1219
  237MOL   C15743109   6.503   4.386   6.460 -0.4146  0.1099 -0.0689
  237MOL   H15843110   6.327   4.379   6.745  0.6996  0.7804 -0.4945
  237MOL   H15943111   6.391   4.255   6.644  0.7980 -0.0786  0.0278
  237MOL   H16043112   6.496   4.478   6.649  1.6008 -1.1215 -1.0612
  237MOL   H16143113   6.579   4.457   6.429 -0.5058  0.4867  0.5734
  237MOL   H16243114   6.551   4.296   6.498  1.1687  0.9569 -0.0193
  237MOL   H16343115   6.449   4.359   6.369  0.4066 -1.0735 -0.2214
  237MOL   C16443116   6.379   4.597   6.525  0.3819 -0.2368  0.3607
  237MOL   C16543117   6.302   4.677   6.632 -0.1673 -0.0245 -0.5713
  237MOL   C16643118   6.401   4.710   6.738 -0.5625 -0.2835 -1.1096
  237MOL   H16743119   6.461   4.651   6.478  1.4689 -1.2319  1.0650
  237MOL   H16843120   6.313   4.587   6.439  2.1461  5.1830 -1.8682
  237MOL   H16943121   6.225   4.609   6.668 -0.0510  0.8098  1.3240
  237MOL   H17043122   6.493   4.759   6.707 -1.7460  2.3133 -0.6083
  237MOL   H17143123   6.349   4.773   6.810 -0.2899  0.7933 -1.8582
  237MOL   H17243124   6.428   4.619   6.792 -0.3990 -1.0921 -2.5272
  237MOL   C17343125   6.220   4.791   6.576  0.0074  0.2145 -0.2718
  237MOL   C17443126   6.142   4.868   6.681  0.2665  0.0781 -0.5636
  237MOL   C17543127   6.002   4.913   6.634  0.1363  0.2887 -0.1039
  237MOL   H17643128   6.283   4.856   6.516  0.8574  2.1689  2.5935
  237MOL   H17743129   6.154   4.743   6.503 -0.3082 -1.5995  1.1500
  237MOL   H17843130   6.198   4.950   6.726  1.2847 -0.5143 -0.7437
  237MOL   H17943131   5.933   4.924   6.718  3.0200  1.0247  2.2510
  237MOL   H18043132   6.000   5.008   6.581  0.6273 -0.0749 -0.7769
  237MOL   H18143133   5.956   4.833   6.576  0.9324  1.0631 -1.8393
  237MOL   H18243134   6.104   4.802   6.759  1.5430  1.3386  1.1839
  238MOL     C143135   3.704   0.844   7.653  0.4290 -0.1851  0.2112
  238MOL     C243136   3.674   0.989   0.011  0.1529  0.6041  0.4544
  238MOL     C343137   3.718   1.005   0.159  0.0380 -0.2799  0.7123
  238MOL     H443138   3.645   0.824   7.564 -2.4036 -1.2261  2.2461
  238MOL     H543139   3.659   0.778   0.030 -1.0363 -0.7206 -1.1260
  238MOL     H643140   3.566   0.996   0.021  0.1409  2.0218 -0.6201
  238MOL     H743141   3.675   0.927   0.222  1.9749 -1.7524  0.2860
  238MOL     H843142   3.826   1.015   0.163  0.1325 -1.6251  2.1630
  238MOL     H943143   3.689   1.102   0.198  2.2123  0.5999  0.1960
  238MOL    H1043144   3.808   0.820   7.632  0.0836 -0.6048 -1.0758
  238MOL    C1143145   3.715   1.099   7.618 -0.6639 -0.8159 -0.0816
  238MOL    C1243146   3.647   1.109   7.475 -0.8365 -0.6485  0.0551
  238MOL    C1343147   3.494   1.120   7.488 -0.0152  0.4501 -0.6437
  238MOL    H1443148   3.690   1.191   7.671 -1.5701 -1.1863  0.1460
  238MOL    H1543149   3.824   1.097   7.623 -0.6175  0.9716  0.1762
  238MOL    H1643150   3.677   1.017   7.425  2.7193  1.0943 -1.1723
  238MOL    H1743151   3.442   1.093   7.396 -0.4729  1.2198 -0.6118
  238MOL    H1843152   3.463   1.045   7.562 -0.0942 -1.3954 -2.5149
  238MOL    H1943153   3.461   1.216   7.526  0.6987  1.1214 -1.7119
  238MOL    C2043154   3.707   1.223   7.388 -0.3632  0.3315  0.2458
  238MOL    C2143155   3.646   1.246   7.251  0.1952 -0.3932  0.2146
  238MOL    C2243156   3.700   1.381   7.188  0.5738  1.0601  0.1070
  238MOL    H2343157   3.695   1.324   7.428 -0.3100 -0.2790  1.8339
  238MOL    H2443158   3.813   1.208   7.366 -0.6936 -1.1978 -0.3898
  238MOL    H2543159   3.537   1.252   7.256  0.1234  0.4652 -1.7324
  238MOL    H2643160   3.804   1.371   7.156  0.7665  1.1323  0.6987
  238MOL    H2743161   3.651   1.424   7.101 -0.1015 -2.0870 -1.1519
  238MOL    H2843162   3.693   1.454   7.268 -0.6028  2.7405 -1.5050
  238MOL    C2943163   3.680   1.130   7.152 -0.3659  0.7868  0.1273
  238MOL    C3043164   3.562   1.093   7.060  0.1449 -0.1793 -0.2165
  238MOL    C3143165   3.522   1.205   6.963  0.1449 -0.1332  0.1068
  238MOL    H3243166   3.758   1.164   7.084  0.3066  0.2800  0.6492
  238MOL    H3343167   3.730   1.051   7.206 -0.7601  1.0446  0.8747
  238MOL    H3443168   3.476   1.076   7.125 -0.4058  0.5002 -0.7690
  238MOL    H3543169   3.449   1.176   6.888  1.2008 -2.6690  0.0024
  238MOL    H3643170   3.473   1.287   7.016  1.0772  0.4813  0.0316
  238MOL    H3743171   3.606   1.250   6.911  0.6641 -0.0756  0.9807
  238MOL    C3843172   3.589   0.969   6.979  0.8599 -0.4317 -1.3178
  238MOL    C3943173   3.656   0.841   7.045 -0.1988  0.2226 -0.4230
  238MOL    C4043174   3.584   0.810   7.183 -0.2618  0.3144 -0.3245
  238MOL    H4143175   3.484   0.962   6.950  0.2012  0.8851  0.7027
  238MOL    H4243176   3.649   0.986   6.890 -0.9534  0.2606 -2.4448
  238MOL    H4343177   3.758   0.866   7.072  0.2822 -0.7741 -1.2944
  238MOL    H4443178   3.643   0.746   7.248 -0.4450  1.0551  0.5630
  238MOL    H4543179   3.556   0.898   7.240 -1.5084 -0.2897  0.0337
  238MOL    H4643180   3.487   0.760   7.189 -0.2251  0.4120  1.2073
  238MOL    C4743181   3.650   0.720   6.947  0.3336 -0.3875  0.4809
  238MOL    C4843182   3.729   0.726   6.813  0.3876 -0.3359 -0.0406
  238MOL    C4943183   3.882   0.750   6.830 -0.1300 -0.3193  0.3519
  238MOL    H5043184   3.688   0.633   7.001  0.2551 -0.7195 -0.0027
  238MOL    H5143185   3.547   0.694   6.920  0.8691 -1.3663 -0.6318
  238MOL    H5243186   3.686   0.805   6.752  0.5301 -1.5123 -1.7032
  238MOL    H5343187   3.915   0.830   6.897  3.5324 -1.8565  0.5220
  238MOL    H5443188   3.927   0.659   6.870 -2.9334 -1.6426  0.6395
  238MOL    H5543189   3.913   0.772   6.728 -0.4739  1.9726  0.7024
  238MOL    C5643190   3.698   0.592   6.733  0.7480 -0.5185  0.1429
  238MOL    C5743191   3.738   0.595   6.587 -0.2772  0.3728  0.4566
  238MOL    C5843192   3.717   0.453   6.533 -0.0611 -0.4848 -0.7813
  238MOL    H5943193   3.772   0.526   6.778  3.3119  2.4837  0.5394
  238MOL    H6043194   3.593   0.561   6.741  0.6695 -0.1202  0.6949
  238MOL    H6143195   3.844   0.617   6.582 -0.4551  1.2357  0.3594
  238MOL    H6243196   3.758   0.431   6.435  1.8069 -2.0997  0.3119
  238MOL    H6343197   3.769   0.381   6.596  0.7549 -1.2002 -2.2625
  238MOL    H6443198   3.613   0.422   6.532 -0.6682  1.5028 -2.0935
  238MOL    C6543199   3.655   0.696   6.503  0.1458  0.0116  0.0056
  238MOL    C6643200   3.690   0.689   6.349  0.2073 -0.1358 -0.1600
  238MOL    C6743201   3.571   0.749   6.276  0.8431 -0.3802 -0.2795
  238MOL    H6843202   3.553   0.663   6.524  0.7807 -0.6000  2.2626
  238MOL    H6943203   3.662   0.800   6.534  1.7776 -0.3046  0.7479
  238MOL    H7043204   3.701   0.589   6.307  0.7828 -0.7131  1.3126
  238MOL    H7143205   3.571   0.727   6.169 -0.9112  0.0562 -0.3950
  238MOL    H7243206   3.478   0.702   6.309  1.0024 -2.0182 -2.1019
  238MOL    H7343207   3.568   0.857   6.291  1.9251 -0.0489 -2.2740
  238MOL    C7443208   3.816   0.769   6.320 -0.3719 -0.2801 -0.1091
  238MOL    C7543209   3.890   0.720   6.188  0.1177 -0.2773 -0.6672
  238MOL    C7643210   3.997   0.827   6.142  0.2402 -0.0633  0.0072
  238MOL    H7743211   3.793   0.876   6.317 -2.1459 -0.6899 -3.4133
  238MOL    H7843212   3.892   0.753   6.396  0.4638 -0.9487 -1.0748
  238MOL    H7943213   3.812   0.711   6.112 -0.9989 -1.6426  0.6067
  238MOL    H8043214   4.039   0.804   6.045 -1.4176  0.5744 -0.8915
  238MOL    H8143215   3.957   0.927   6.123  0.2092 -0.5785 -2.7603
  238MOL    H8243216   4.074   0.843   6.218  1.2455 -2.2418 -0.5268
  238MOL    C8343217   3.949   0.576   6.195 -0.1901 -0.6306 -0.4976
  238MOL    C8443218   3.950   0.486   6.069  0.0850 -0.6106  0.6111
  238MOL    C8543219   4.070   0.394   6.079  0.4607  0.2801 -0.1529
  238MOL    H8643220   4.052   0.596   6.227 -0.5677  0.9107 -0.2106
  238MOL    H8743221   3.902   0.527   6.280 -0.8924 -0.2649 -0.6752
  238MOL    H8843222   3.977   0.552   5.986 -0.8036 -0.1465  0.6883
  238MOL    H8943223   4.076   0.331   6.168 -0.6240  0.9532  0.4079
  238MOL    H9043224   4.081   0.333   5.989 -1.0477  1.1979 -0.9699
  238MOL    H9143225   4.155   0.463   6.078  0.5981  0.1338  1.0265
  238MOL    C9243226   3.813   0.416   6.036  0.5737  0.3283  0.2856
  238MOL    C9343227   3.782   0.371   5.888 -0.0805  0.7218 -0.6247
  238MOL    C9443228   3.670   0.261   5.885  0.1868  0.2104 -0.0964
  238MOL    H9543229   3.769   0.340   6.101 -0.7940  0.5568 -0.3445
  238MOL    H9643230   3.732   0.485   6.062 -1.1829 -1.7385  0.4982
  238MOL    H9743231   3.870   0.317   5.851  0.3440  0.0613  1.2865
  238MOL    H9843232   3.573   0.297   5.920 -0.0408  0.0528 -0.5618
  238MOL    H9943233   3.664   0.228   5.781  1.0291  1.8194 -0.6730
  238MOL   H10043234   3.701   0.169   5.935  0.6249  1.8475  2.7419
  238MOL   C10143235   3.751   0.497   5.807 -0.0627  0.7856  0.2101
  238MOL   C10243236   3.756   0.479   5.648  0.1664 -0.1653 -0.6633
  238MOL   C10343237   3.738   0.619   5.583 -0.5836 -0.3499 -0.1900
  238MOL   H10443238   3.656   0.541   5.839  0.4430  1.5408  0.7015
  238MOL   H10543239   3.830   0.570   5.828  1.4027 -0.2983 -1.4042
  238MOL   H10643240   3.673   0.411   5.627 -1.4716  1.1964  1.2126
  238MOL   H10743241   3.635   0.653   5.595 -1.2349 -1.6655 -1.8783
  238MOL   H10843242   3.813   0.696   5.600  0.0436 -1.0544  0.3283
  238MOL   H10943243   3.752   0.600   5.477 -0.4894  1.7112 -0.5523
  238MOL   C11043244   3.886   0.425   5.602  0.0975 -0.2918 -0.1994
  238MOL   C11143245   3.880   0.270   5.565  0.3531 -0.1620 -0.2417
  238MOL   C11243246   3.809   0.246   5.442  0.0730  0.1628 -0.7409
  238MOL   H11343247   3.905   0.475   5.507 -0.8121  1.1375  0.3584
  238MOL   H11443248   3.968   0.447   5.669  0.2964 -0.0255 -0.5259
  238MOL   H11543249   3.835   0.221   5.652 -0.0190  1.1521  0.3062
  238MOL   H11643250   3.821   0.138   5.429  0.8351 -0.0648  1.6931
  238MOL   H11743251   3.707   0.283   5.439 -0.1178 -0.2644  0.3408
  238MOL   H11843252   3.851   0.300   5.357 -1.6419 -0.7585 -2.2114
  238MOL   C11943253   4.032   0.228   5.547  0.2990 -0.4742  0.5178
  238MOL   C12043254   4.118   0.201   5.666 -0.1117 -0.5326  0.1510
  238MOL   C12143255   4.077   0.064   5.736  0.0514 -0.0371  0.1972
  238MOL   H12243256   4.035   0.141   5.480 -3.0116 -0.2167 -0.0263
  238MOL   H12343257   4.082   0.304   5.488 -0.9640 -0.5063 -0.6305
  238MOL   H12443258   4.106   0.283   5.736 -0.6903 -0.2129 -0.3194
  238MOL   H12543259   3.981   0.056   5.788  1.0238 -1.7798  1.7837
  238MOL   H12643260   4.059   7.696   5.651  0.5841  1.6779 -1.2536
  238MOL   H12743261   4.150   0.030   5.809  0.7107  0.1948 -0.3509
  238MOL   C12843262   4.264   0.207   5.636  0.4358 -0.4791  0.7201
  238MOL   C12943263   4.340   0.336   5.605 -0.2750 -0.2264  0.1590
  238MOL   C13043264   4.395   0.396   5.736 -0.0992  0.1259  1.0445
  238MOL   H13143265   4.310   0.152   5.718 -0.5180 -0.3258  1.3595
  238MOL   H13243266   4.284   0.134   5.557 -3.2405  1.3190 -1.9685
  238MOL   H13343267   4.270   0.409   5.565 -0.3474 -0.2314  0.2794
  238MOL   H13443268   4.467   0.328   5.781  0.5656  0.5809  0.6723
  238MOL   H13543269   4.441   0.492   5.714 -0.0376  0.2030  1.4984
  238MOL   H13643270   4.316   0.419   5.809 -0.0804 -0.2842  1.1946
  238MOL   C13743271   4.460   0.305   5.506  0.2802  0.4520 -1.0086
  238MOL   C13843272   4.436   0.294   5.355  0.1491 -0.2095 -0.7465
  238MOL   C13943273   4.428   0.432   5.295 -0.4922 -0.3154 -0.4849
  238MOL   H14043274   4.548   0.368   5.525  2.3019 -2.5601 -0.0042
  238MOL   H14143275   4.491   0.206   5.540  1.1408  0.3077 -2.1788
  238MOL   H14243276   4.336   0.252   5.345 -0.2743  1.3512 -3.5885
  238MOL   H14343277   4.336   0.472   5.338 -0.1064  0.3744 -0.2950
  238MOL   H14443278   4.505   0.499   5.335 -0.1046 -1.6553  1.0550
  238MOL   H14543279   4.427   0.439   5.186  3.4475  2.0230 -0.4795
  238MOL   C14643280   4.547   0.203   5.289 -0.4999 -0.6200 -0.2166
  238MOL   C14743281   4.555   0.180   5.140  0.2438  0.6134  0.4401
  238MOL   C14843282   4.669   0.066   5.116  0.0418  0.1198 -0.8800
  238MOL   H14943283   4.644   0.247   5.310 -0.4442 -1.3622  1.1939
  238MOL   H15043284   4.541   0.109   5.344 -0.7591 -0.7887 -0.5324
  238MOL   H15143285   4.574   0.277   5.093 -1.0955  0.9892  0.6356
  238MOL   H15243286   4.648   7.670   5.168  0.1391 -0.3609 -1.6993
  238MOL   H15343287   4.659   0.048   5.009 -1.3100  1.1675 -0.9331
  238MOL   H15443288   4.766   0.097   5.154 -0.4096 -0.5955  0.9125
  238MOL   C15543289   4.425   0.131   5.068  0.3633 -0.4639 -0.0942
  238MOL   C15643290   4.316   0.229   5.030  0.0413  0.4578 -0.2493
  238MOL   C15743291   4.362   0.337   4.930  0.0145  0.5779 -0.0117
  238MOL   H15843292   4.458   0.098   4.969 -1.7666  0.2126 -1.0549
  238MOL   H15943293   4.388   0.037   5.110  0.7640 -0.3113  0.5953
  238MOL   H16043294   4.299   0.266   5.132  1.7594 -0.4919  0.4097
  238MOL   H16143295   4.291   0.418   4.914  1.1332  1.6006  0.1695
  238MOL   H16243296   4.460   0.380   4.954  0.2097 -0.7534  1.7070
  238MOL   H16343297   4.368   0.291   4.831  2.1785  2.1690 -0.6599
  238MOL   C16443298   4.191   0.163   4.978  0.5836  0.5633  0.3181
  238MOL   C16543299   4.107   0.068   5.075  0.3146 -0.0901 -0.3665
  238MOL   C16643300   4.032   0.134   5.188 -0.1609  0.6879 -0.5209
  238MOL   H16743301   4.133   0.249   4.945 -0.7169  0.2415  1.6935
  238MOL   H16843302   4.216   0.092   4.898  1.9449  0.8844  0.4454
  238MOL   H16943303   4.172   7.691   5.121 -0.6728 -0.8502 -0.1673
  238MOL   H17043304   3.974   0.063   5.247  0.7806 -0.1886 -0.6304
  238MOL   H17143305   4.106   0.185   5.250 -0.9509 -0.7172  1.6591
  238MOL   H17243306   3.959   0.209   5.157 -0.3290  2.0077  2.7753
  238MOL   C17343307   4.000   7.682   4.999 -0.3275 -0.3224  0.5260
  238MOL   C17443308   4.053   7.556   4.911 -0.3664 -0.9888  0.1246
  238MOL   C17543309   4.147   7.462   4.989  0.4344  0.7942  0.5692
  238MOL   H17643310   3.933   7.637   5.072 -1.0735  0.1412  0.1257
  238MOL   H17743311   3.940   0.053   4.940 -0.9492 -0.9473  0.4307
  238MOL   H17843312   4.109   7.590   4.824 -1.3170 -0.0782 -0.1453
  238MOL   H17943313   4.117   7.425   5.087  0.0007  0.5801  0.3602
  238MOL   H18043314   4.175   7.376   4.928  1.5885  2.5301 -1.3948
  238MOL   H18143315   4.240   7.517   4.999 -0.4101  2.1393  1.2293
  238MOL   H18243316   3.971   7.500   4.866  0.8566 -2.1111 -0.7548
  239MOL     C143317   2.253   2.306   3.093  0.4772  0.3842  0.2510
  239MOL     C243318   2.219   2.386   3.219  0.2881 -0.8292  0.2996
  239MOL     C343319   2.069   2.398   3.227 -0.5759  0.4069 -0.0692
  239MOL     H443320   2.358   2.297   3.067  0.7123  0.5794  1.1441
  239MOL     H543321   2.205   2.332   2.998  0.1226 -1.0514  0.0280
  239MOL     H643322   2.246   2.491   3.205  1.0626 -0.8092  1.8251
  239MOL     H743323   2.042   2.463   3.310  0.9794  1.0392 -0.0281
  239MOL     H843324   2.026   2.439   3.136 -1.4999  1.3293  0.7870
  239MOL     H943325   2.035   2.296   3.248 -0.2671  0.4833  0.8404
  239MOL    H1043326   2.222   2.204   3.118  0.7723  0.5527  1.3122
  239MOL    C1143327   2.285   2.316   3.339 -0.4598  0.4588  0.4674
  239MOL    C1243328   2.437   2.307   3.329 -0.0076  0.1999 -0.8160
  239MOL    C1343329   2.492   2.453   3.345 -0.5793 -0.6789  0.1297
  239MOL    H1443330   2.252   2.362   3.432 -0.7518  0.9445  0.1283
  239MOL    H1543331   2.243   2.216   3.348 -1.7567  0.9985  0.4393
  239MOL    H1643332   2.468   2.275   3.229  1.6276 -1.6652  0.2462
  239MOL    H1743333   2.601   2.457   3.353 -0.6885  0.3266  1.2003
  239MOL    H1843334   2.461   2.519   3.264  1.3878 -0.4258 -0.4528
  239MOL    H1943335   2.463   2.491   3.443  1.2391 -0.0995  0.4508
  239MOL    C2043336   2.516   2.217   3.432 -0.1036 -0.7682  0.8352
  239MOL    C2143337   2.487   2.062   3.414  0.4485  1.2009 -0.1315
  239MOL    C2243338   2.547   2.015   3.280 -1.1452 -0.0101 -0.2810
  239MOL    H2343339   2.621   2.245   3.420 -0.9340  1.2619 -2.2676
  239MOL    H2443340   2.495   2.258   3.531  0.0715  2.4822 -0.4332
  239MOL    H2543341   2.379   2.049   3.414  0.4737  0.8560  1.4764
  239MOL    H2643342   2.534   1.907   3.268 -0.3258 -0.2738  1.1760
  239MOL    H2743343   2.478   2.060   3.208  0.3908 -0.8578 -2.3240
  239MOL    H2843344   2.651   2.047   3.277 -1.5480  1.2690 -0.8044
  239MOL    C2943345   2.539   1.982   3.535 -0.3444 -0.8669 -0.0825
  239MOL    C3043346   2.482   1.841   3.547  0.4514 -0.2448  0.1953
  239MOL    C3143347   2.550   1.774   3.666 -0.0808  0.4433  0.4769
  239MOL    H3243348   2.646   1.973   3.550 -0.3103 -1.8000 -0.8393
  239MOL    H3343349   2.518   2.037   3.627  1.7761 -0.1124 -0.0281
  239MOL    H3443350   2.515   1.794   3.454  1.2467 -0.0374  0.3711
  239MOL    H3543351   2.657   1.753   3.672  0.3655  2.0390 -1.2976
  239MOL    H3643352   2.529   1.842   3.748 -1.3077  2.3386 -1.3437
  239MOL    H3743353   2.496   1.681   3.685 -1.0437  0.7574 -0.6580
  239MOL    C3843354   2.323   1.830   3.549 -0.2387 -0.6345 -0.4623
  239MOL    C3943355   2.247   1.807   3.419  1.0469 -0.4089 -0.8802
  239MOL    C4043356   2.261   1.654   3.384 -0.3929  0.3923  0.0525
  239MOL    H4143357   2.294   1.762   3.629  0.3091  0.8567  1.0456
  239MOL    H4243358   2.298   1.931   3.582  0.1241 -1.5112  2.6058
  239MOL    H4343359   2.287   1.865   3.335  1.7333  0.8512  0.2992
  239MOL    H4443360   2.218   1.584   3.455  0.4740 -0.6562 -0.4397
  239MOL    H4543361   2.208   1.624   3.293 -2.1052 -0.3615  1.2679
  239MOL    H4643362   2.367   1.627   3.384 -0.6917 -0.8627 -1.2724
  239MOL    C4743363   2.100   1.849   3.430 -0.2207 -0.6034 -0.2263
  239MOL    C4843364   2.009   1.870   3.310 -0.5218 -0.1415  0.0587
  239MOL    C4943365   1.861   1.901   3.353  0.1913  0.1223  0.3630
  239MOL    H5043366   2.051   1.775   3.494  1.9833  0.1669  2.4102
  239MOL    H5143367   2.090   1.937   3.494  0.1075  0.5554 -1.7291
  239MOL    H5243368   2.008   1.783   3.246  0.8261  0.6273 -1.0377
  239MOL    H5343369   1.829   1.820   3.419 -0.8276  2.3649  2.6926
  239MOL    H5443370   1.843   1.995   3.404  0.7559  0.3685  0.1108
  239MOL    H5543371   1.795   1.903   3.267 -0.7603  3.4255  1.1201
  239MOL    C5643372   2.058   1.983   3.220  0.0834 -1.0228  1.1688
  239MOL    C5743373   2.002   1.965   3.074 -0.0217 -0.4558  0.1041
  239MOL    C5843374   1.938   2.095   3.029  0.0168 -0.4685  0.4837
  239MOL    H5943375   2.011   2.073   3.262 -1.0576  0.1310 -2.3945
  239MOL    H6043376   2.162   2.015   3.228 -0.9504  2.6759  0.8414
  239MOL    H6143377   1.920   1.894   3.088  0.1809 -0.9881 -1.2673
  239MOL    H6243378   1.854   2.122   3.094  0.8340 -1.6719  2.0666
  239MOL    H6343379   2.007   2.178   3.016  1.9954 -2.2469 -0.6197
  239MOL    H6443380   1.884   2.071   2.937 -0.4969  1.1385  0.3302
  239MOL    C6543381   2.101   1.914   2.961 -0.4242  0.1295  0.3800
  239MOL    C6643382   2.134   1.770   2.971  0.7446 -0.7653 -0.3542
  239MOL    C6743383   2.015   1.682   2.938  0.2969 -0.0842  0.3493
  239MOL    H6843384   2.072   1.931   2.858  1.1606 -0.6177 -0.2116
  239MOL    H6943385   2.198   1.963   2.973 -1.8454  2.6837  1.7994
  239MOL    H7043386   2.170   1.750   3.072  0.4910  1.4282  0.1981
  239MOL    H7143387   2.036   1.579   2.909 -1.3383 -0.1279 -0.7391
  239MOL    H7243388   1.943   1.669   3.019 -1.1376 -0.8288 -1.0033
  239MOL    H7343389   1.952   1.724   2.859  3.4858  2.2520 -1.0603
  239MOL    C7443390   2.257   1.743   2.881 -0.0802  0.2529 -0.1342
  239MOL    C7543391   2.398   1.778   2.931 -0.2067  0.1396 -1.0149
  239MOL    C7643392   2.464   1.665   3.012 -0.4974 -0.1885  0.0668
  239MOL    H7743393   2.265   1.634   2.875  2.1219  0.5149 -3.4181
  239MOL    H7843394   2.236   1.773   2.778  0.2664 -0.8259 -0.5303
  239MOL    H7943395   2.391   1.862   3.001  0.4868  0.0404 -0.8206
  239MOL    H8043396   2.560   1.697   3.054 -0.1842 -0.1370 -0.6829
  239MOL    H8143397   2.401   1.647   3.099 -0.9801 -2.3126 -0.7138
  239MOL    H8243398   2.466   1.576   2.950  1.2123 -0.7505  0.8974
  239MOL    C8343399   2.481   1.828   2.811  0.6331  0.9335 -0.7392
  239MOL    C8443400   2.628   1.858   2.851  0.2295  0.2055  0.8023
  239MOL    C8543401   2.711   1.737   2.820  0.3861 -0.6555 -1.0903
  239MOL    H8643402   2.476   1.772   2.718 -3.0028 -0.4759  0.2128
  239MOL    H8743403   2.430   1.920   2.784 -1.4924  0.5608  1.7943
  239MOL    H8843404   2.633   1.874   2.959  0.6805 -0.4563  0.8820
  239MOL    H8943405   2.664   1.645   2.856 -1.4511  1.2985  1.6671
  239MOL    H9043406   2.730   1.727   2.713  1.6246 -1.6190 -0.7934
  239MOL    H9143407   2.808   1.732   2.870  1.2812  0.0906 -2.7177
  239MOL    C9243408   2.682   1.980   2.774  0.1185 -0.3043 -0.0931
  239MOL    C9343409   2.617   2.116   2.806  0.7442 -0.5744  0.2476
  239MOL    C9443410   2.627   2.149   2.953 -0.0907  0.3125  0.5088
  239MOL    H9543411   2.790   1.988   2.771  0.0824 -0.4057 -2.2054
  239MOL    H9643412   2.650   1.952   2.674 -0.7646 -0.7628  0.3021
  239MOL    H9743413   2.511   2.118   2.782  0.2787 -1.1091  2.1527
  239MOL    H9843414   2.564   2.235   2.974  0.1007  1.0730 -1.8222
  239MOL    H9943415   2.589   2.065   3.012  0.9994  0.2277  1.0968
  239MOL   H10043416   2.724   2.180   2.993 -0.6510  3.8038 -0.6775
  239MOL   C10143417   2.676   2.222   2.719 -0.6104 -0.6006  0.0929
  239MOL   C10243418   2.663   2.217   2.564 -0.3165 -0.0725 -0.5250
  239MOL   C10343419   2.521   2.218   2.521 -0.3771 -0.1827 -0.3640
  239MOL   H10443420   2.642   2.316   2.761 -1.8991 -1.2866  0.6270
  239MOL   H10543421   2.781   2.220   2.748 -1.0083 -0.8102  1.5685
  239MOL   H10643422   2.699   2.120   2.530 -2.4904 -0.6972 -1.0882
  239MOL   H10743423   2.482   2.305   2.573  1.3076 -0.1623  0.9104
  239MOL   H10843424   2.517   2.238   2.414  0.2206  1.2693 -0.1253
  239MOL   H10943425   2.461   2.130   2.544  0.8637 -1.4583 -1.8670
  239MOL   C11043426   2.748   2.331   2.501 -0.7646 -0.2537 -0.8043
  239MOL   C11143427   2.892   2.353   2.531 -0.6662  0.4673  0.2226
  239MOL   C11243428   2.972   2.223   2.507  0.4094  0.0495 -0.3592
  239MOL   H11343429   2.733   2.335   2.393  0.9570 -0.5306 -1.0765
  239MOL   H11443430   2.687   2.413   2.539  1.9922  0.7946  1.5521
  239MOL   H11543431   2.908   2.372   2.637 -0.6583  0.4988  0.2156
  239MOL   H11643432   2.974   2.186   2.404 -0.4554  0.4665 -0.5359
  239MOL   H11743433   3.076   2.233   2.536  0.9459 -0.9170 -1.8884
  239MOL   H11843434   2.927   2.146   2.569 -2.7542  2.7996  0.9123
  239MOL   C11943435   2.952   2.467   2.454 -0.2320 -0.4675  0.2248
  239MOL   C12043436   2.872   2.601   2.472  0.2956  0.2248 -0.2144
  239MOL   C12143437   2.874   2.649   2.617  0.7696  0.1722  0.0652
  239MOL   H12243438   3.049   2.490   2.497  0.3327 -1.8716 -0.3084
  239MOL   H12343439   2.946   2.443   2.348 -0.1965 -0.9707  0.3387
  239MOL   H12443440   2.770   2.580   2.440  0.9859 -1.3218 -1.4855
  239MOL   H12543441   2.817   2.740   2.633 -1.7491 -1.6680  1.8599
  239MOL   H12643442   2.818   2.581   2.681  4.0273 -0.6312  2.1431
  239MOL   H12743443   2.972   2.660   2.663  0.7433 -0.7120  0.3410
  239MOL   C12843444   2.935   2.713   2.383  0.0577  0.3054  0.6613
  239MOL   C12943445   2.932   2.710   2.228  0.2429 -0.0114  0.3673
  239MOL   C13043446   2.789   2.666   2.191  0.4900 -0.4665 -0.7116
  239MOL   H13143447   2.883   2.803   2.414  1.0582  1.5778 -1.2571
  239MOL   H13243448   3.040   2.727   2.411  0.2295  0.4951 -0.0651
  239MOL   H13343449   3.006   2.637   2.195 -0.8532 -0.5040 -1.0955
  239MOL   H13443450   2.714   2.727   2.240  1.1542 -0.4472  0.2997
  239MOL   H13543451   2.763   2.668   2.085 -0.0514  0.8743 -0.5617
  239MOL   H13643452   2.774   2.562   2.221  0.2807  0.1042  1.2505
  239MOL   C13743453   2.950   2.849   2.172  0.5134 -0.6801 -1.1252
  239MOL   C13843454   3.085   2.917   2.200  0.1292 -0.0158 -0.6256
  239MOL   C13943455   3.205   2.833   2.151  0.7503 -0.1141  0.4318
  239MOL   H14043456   2.937   2.838   2.064  2.6492 -2.2470 -1.2417
  239MOL   H14143457   2.871   2.910   2.216  1.9124  1.6177 -1.7278
  239MOL   H14243458   3.088   2.938   2.307  0.5984  1.0808 -0.8428
  239MOL   H14343459   3.186   2.814   2.045  0.1219  0.1997  0.4847
  239MOL   H14443460   3.307   2.868   2.164  0.5995  0.3726  0.3188
  239MOL   H14543461   3.214   2.740   2.208 -1.5590 -0.1737  0.7566
  239MOL   C14643462   3.100   3.061   2.131  0.0113  0.4944  0.2513
  239MOL   C14743463   3.000   3.171   2.181  0.2506  0.3693 -0.2779
  239MOL   C14843464   2.988   3.180   2.337  0.7233  0.6844  0.2431
  239MOL   H14943465   3.204   3.088   2.148 -0.5161  3.4182 -1.0239
  239MOL   H15043466   3.078   3.051   2.025  1.7063  1.3669 -0.1818
  239MOL   H15143467   2.906   3.156   2.127 -0.9177 -0.2919  1.8675
  239MOL   H15243468   3.092   3.189   2.365  1.0066 -1.4066 -0.0592
  239MOL   H15343469   2.941   3.272   2.371  0.5832 -0.0955  2.2338
  239MOL   H15443470   2.940   3.095   2.386  1.4102 -0.2931 -0.7458
  239MOL   C15543471   3.032   3.313   2.131 -0.2772  0.2987  0.4126
  239MOL   C15643472   3.071   3.333   1.979 -0.3407  0.0006  1.2359
  239MOL   C15743473   2.946   3.313   1.900  0.6391 -0.5746 -1.0474
  239MOL   H15843474   2.948   3.377   2.157  0.9862  1.6406  1.3270
  239MOL   H15943475   3.116   3.338   2.197 -1.6393  1.1679  1.8672
  239MOL   H16043476   3.153   3.268   1.948 -2.2860 -1.7644 -0.3289
  239MOL   H16143477   2.929   3.206   1.917  0.8365 -0.4931 -0.3128
  239MOL   H16243478   2.861   3.375   1.929  0.7290 -0.9525  0.0573
  239MOL   H16343479   2.956   3.324   1.792 -0.8599 -0.9277 -1.2357
  239MOL   C16443480   3.111   3.478   1.946 -0.2830 -0.3754  0.1443
  239MOL   C16543481   3.248   3.520   2.002 -0.0519 -0.3299  0.0978
  239MOL   C16643482   3.368   3.433   1.951 -0.2279 -0.8025 -0.3089
  239MOL   H16743483   3.113   3.480   1.837 -0.0743 -0.7402  0.1415
  239MOL   H16843484   3.036   3.551   1.977  0.5247 -0.2267  1.8194
  239MOL   H16943485   3.239   3.497   2.108  0.1195  3.8973  1.1257
  239MOL   H17043486   3.379   3.330   1.984  0.5403 -0.8654 -0.7478
  239MOL   H17143487   3.361   3.425   1.843  0.6125  4.3690 -0.8512
  239MOL   H17243488   3.460   3.491   1.964 -0.2047 -0.5579 -1.5268
  239MOL   C17343489   3.266   3.674   1.983 -0.5462  0.0819  0.6199
  239MOL   C17443490   3.314   3.713   1.838 -0.0695 -0.2246  0.5662
  239MOL   C17543491   3.318   3.863   1.829  0.0937 -0.1813  0.3685
  239MOL   H17643492   3.178   3.727   2.019 -1.5739 -0.1637 -1.4797
  239MOL   H17743493   3.343   3.709   2.052 -0.5238 -0.7009  0.9930
  239MOL   H17843494   3.244   3.668   1.766 -0.7031  3.4321 -1.2011
  239MOL   H17943495   3.370   3.917   1.908  0.7385 -1.5291  0.8913
  239MOL   H18043496   3.350   3.887   1.727 -0.0546  0.0985  0.3903
  239MOL   H18143497   3.222   3.910   1.848 -0.0156  0.8233 -2.4495
  239MOL   H18243498   3.411   3.681   1.801 -0.2802  1.2557 -1.3605
  240MOL     C143499   2.142   5.373   6.269 -0.5581 -0.4507  0.4012
  240MOL     C243500   2.178   5.226   6.295  0.6300 -0.5331  0.3898
  240MOL     C343501   2.201   5.214   6.452 -0.3691 -0.1507  0.5686
  240MOL     H443502   2.157   5.402   6.165 -1.7139 -0.4564  0.2309
  240MOL     H543503   2.195   5.440   6.337 -2.6513  1.5863  0.0817
  240MOL     H643504   2.273   5.208   6.245  0.9189  0.9112  0.3817
  240MOL     H743505   2.108   5.200   6.505  0.3215 -0.1325  1.8003
  240MOL     H843506   2.272   5.134   6.475 -0.2205 -0.9722 -2.4567
  240MOL     H943507   2.259   5.301   6.483  0.1591  0.6709 -2.5014
  240MOL    H1043508   2.037   5.382   6.294 -0.9202 -0.6936 -0.9649
  240MOL    C1143509   2.071   5.139   6.229 -0.8056 -0.0258  0.4791
  240MOL    C1243510   2.061   5.127   6.076  0.1547 -0.1020  0.7893
  240MOL    C1343511   2.188   5.055   6.011 -0.9496  0.1895  0.3326
  240MOL    H1443512   2.082   5.038   6.268 -2.3689 -0.3655  0.0427
  240MOL    H1543513   1.975   5.164   6.273 -0.6692 -0.2751  0.9247
  240MOL    H1643514   2.058   5.228   6.034 -0.9756 -0.2759  0.4333
  240MOL    H1743515   2.283   5.081   6.058 -1.4854 -0.5239  1.8343
  240MOL    H1843516   2.155   4.952   6.014 -0.5456  0.0779  1.1540
  240MOL    H1943517   2.194   5.087   5.907  0.7774  0.3291  0.4449
  240MOL    C2043518   1.928   5.059   6.038  0.4617 -0.5273  0.2060
  240MOL    C2143519   1.884   5.049   5.888  0.8477 -0.5063 -0.5217
  240MOL    C2243520   1.815   4.916   5.857 -0.7260 -0.5662 -0.0988
  240MOL    H2343521   1.929   4.959   6.079  0.9790 -0.9275 -0.7555
  240MOL    H2443522   1.848   5.113   6.089  0.7136 -2.2613  2.4826
  240MOL    H2543523   1.972   5.035   5.826  0.6087  0.3658 -1.0557
  240MOL    H2643524   1.719   4.900   5.906  0.4814  0.7772  2.8235
  240MOL    H2743525   1.795   4.898   5.752  0.6768  0.2528 -0.5177
  240MOL    H2843526   1.881   4.835   5.889  0.1996  0.1925 -0.0574
  240MOL    C2943527   1.797   5.163   5.828 -0.6837 -0.5566  0.2589
  240MOL    C3043528   1.858   5.306   5.808 -0.7114 -0.1659 -0.1189
  240MOL    C3143529   1.983   5.297   5.713  0.1906  0.2624  0.3373
  240MOL    H3243530   1.764   5.134   5.728 -0.0799 -0.0961 -0.0801
  240MOL    H3343531   1.712   5.173   5.894 -0.1759  2.3010  0.5318
  240MOL    H3443532   1.898   5.344   5.902 -1.2893 -0.7252  0.3640
  240MOL    H3543533   2.075   5.285   5.771 -0.5757 -0.3075  1.4475
  240MOL    H3643534   1.976   5.221   5.635 -3.0344  1.3320 -0.4794
  240MOL    H3743535   2.007   5.392   5.666 -0.2673 -0.4668 -1.4192
  240MOL    C3843536   1.760   5.397   5.742  0.1885 -0.3631  0.5955
  240MOL    C3943537   1.628   5.426   5.812 -0.3158 -0.4908 -0.8812
  240MOL    C4043538   1.644   5.475   5.959  0.0544 -0.2288  0.4033
  240MOL    H4143539   1.809   5.491   5.719 -0.3626 -0.0476  0.7172
  240MOL    H4243540   1.746   5.353   5.643  0.5101 -1.3724  0.9811
  240MOL    H4343541   1.559   5.342   5.814 -1.2541  0.2795  1.9340
  240MOL    H4443542   1.712   5.407   6.011  2.5785  0.8541 -1.3901
  240MOL    H4543543   1.676   5.579   5.963 -0.2998 -0.0562 -1.0494
  240MOL    H4643544   1.550   5.472   6.015  1.2530 -0.9673  2.4441
  240MOL    C4743545   1.542   5.532   5.738 -0.9644  0.3856  0.2540
  240MOL    C4843546   1.508   5.506   5.591  0.6979  0.1506 -0.5128
  240MOL    C4943547   1.426   5.376   5.579  0.6005  0.0740  0.6615
  240MOL    H5043548   1.456   5.545   5.803 -0.3080  0.3699  1.1385
  240MOL    H5143549   1.598   5.625   5.750  0.3311 -0.3114 -0.2640
  240MOL    H5243550   1.600   5.499   5.532  0.1572 -0.7898 -1.2555
  240MOL    H5343551   1.492   5.300   5.621 -0.1634 -0.3097  1.1887
  240MOL    H5443552   1.333   5.383   5.636  0.8124  1.8232  0.8283
  240MOL    H5543553   1.400   5.353   5.476  0.5471 -1.6029  1.0314
  240MOL    C5643554   1.431   5.624   5.526  0.2106 -0.2626  0.4544
  240MOL    C5743555   1.497   5.760   5.494 -0.8570 -0.0819 -1.0367
  240MOL    C5843556   1.537   5.766   5.345  0.2999 -0.6709 -0.4595
  240MOL    H5943557   1.372   5.605   5.437 -1.4530 -0.4406  1.5696
  240MOL    H6043558   1.351   5.644   5.598 -0.5489 -0.9325 -0.1984
  240MOL    H6143559   1.586   5.752   5.558 -0.6446  1.4713 -1.1174
  240MOL    H6243560   1.470   5.791   5.263  0.9534 -3.0619 -1.7689
  240MOL    H6343561   1.606   5.850   5.336 -1.9073  1.2751  0.2689
  240MOL    H6443562   1.584   5.670   5.322 -1.5332 -1.2743 -1.7236
  240MOL    C6543563   1.403   5.881   5.538  0.4720 -0.6364  0.8010
  240MOL    C6643564   1.481   6.009   5.577  0.0397  0.9801 -0.5750
  240MOL    C6743565   1.391   6.131   5.561 -0.3231 -0.1055  0.0696
  240MOL    H6843566   1.353   5.893   5.442  2.3175  0.4363 -0.0643
  240MOL    H6943567   1.318   5.874   5.606 -0.1907 -0.9047 -0.0392
  240MOL    H7043568   1.562   6.021   5.506  0.1542 -0.6754 -0.7505
  240MOL    H7143569   1.451   6.216   5.593  0.0796 -0.7338  0.9926
  240MOL    H7243570   1.357   6.153   5.460  0.6765  1.0361 -0.0363
  240MOL    H7343571   1.303   6.129   5.626  0.2624  0.0944  0.8728
  240MOL    C7443572   1.549   6.010   5.722  0.0401 -0.2087 -0.1649
  240MOL    C7543573   1.473   6.059   5.850  0.2568  0.6363 -0.2515
  240MOL    C7643574   1.350   5.973   5.872  0.4440 -0.4597 -0.9191
  240MOL    H7743575   1.594   5.915   5.751  1.0640  0.3772  0.1822
  240MOL    H7843576   1.623   6.087   5.703 -0.8746  0.5508 -0.6512
  240MOL    H7943577   1.451   6.163   5.828  0.4835  0.2729 -2.3414
  240MOL    H8043578   1.375   5.867   5.878  1.1014 -0.2603  0.0177
  240MOL    H8143579   1.296   5.993   5.964  0.9094 -0.2958 -0.6798
  240MOL    H8243580   1.278   5.987   5.791 -0.6378  1.7403  0.3905
  240MOL    C8343581   1.566   6.052   5.976  0.3577  1.0293  0.4527
  240MOL    C8443582   1.516   6.105   6.116  0.1733  0.0890 -0.4608
  240MOL    C8543583   1.614   6.083   6.230 -0.2188  0.1655  0.4627
  240MOL    H8643584   1.609   5.952   5.984 -1.5265  0.2144  0.7458
  240MOL    H8743585   1.651   6.118   5.955  1.7118 -0.2748  1.7526
  240MOL    H8843586   1.437   6.035   6.143 -0.7171  0.3536 -2.2913
  240MOL    H8943587   1.672   6.173   6.248  0.0099 -0.0392  0.7500
  240MOL    H9043588   1.557   6.055   6.319  0.0908  1.4712  1.0763
  240MOL    H9143589   1.673   5.995   6.204  0.2574  0.4570  0.5408
  240MOL    C9243590   1.447   6.240   6.107  0.2320 -0.0417 -0.2785
  240MOL    C9343591   1.371   6.277   6.239  0.0004  0.0347 -0.0684
  240MOL    C9443592   1.363   6.431   6.252 -0.5849 -0.5178 -0.2629
  240MOL    H9543593   1.520   6.319   6.088  0.2635 -0.0793 -0.3099
  240MOL    H9643594   1.371   6.252   6.029 -0.3258  2.4430  0.5949
  240MOL    H9743595   1.420   6.248   6.333 -1.7697  0.3728  0.9785
  240MOL    H9843596   1.342   6.477   6.155  0.8670  3.3434  1.1638
  240MOL    H9943597   1.283   6.464   6.319  0.9016  1.7665  0.4451
  240MOL   H10043598   1.458   6.472   6.286 -1.3088 -0.1341  1.3582
  240MOL   C10143599   1.232   6.209   6.240 -0.0120 -0.4130 -0.3648
  240MOL   C10243600   1.198   6.135   6.375 -0.2783 -0.0093 -0.0083
  240MOL   C10343601   1.157   6.237   6.480  0.1857 -0.1487 -0.3343
  240MOL   H10443602   1.149   6.277   6.222  0.2746  0.6981  2.3518
  240MOL   H10543603   1.231   6.131   6.164  2.2802 -0.7078 -0.1255
  240MOL   H10643604   1.288   6.087   6.414  0.2884  0.8364 -0.2567
  240MOL   H10743605   1.057   6.278   6.468 -1.0781 -2.9257  0.2536
  240MOL   H10843606   1.170   6.194   6.579  1.3467 -1.4423 -1.0185
  240MOL   H10943607   1.230   6.317   6.490  1.0240 -0.4379 -3.4643
  240MOL   C11043608   1.088   6.029   6.347 -0.3705 -0.6015  0.0395
  240MOL   C11143609   1.137   5.881   6.382  0.6220 -0.3672 -0.2485
  240MOL   C11243610   1.026   5.783   6.388  0.0334 -1.0906 -0.4372
  240MOL   H11343611   1.006   6.056   6.413  0.3549  0.6353  0.4384
  240MOL   H11443612   1.037   6.036   6.251  0.3182  0.1864 -0.2740
  240MOL   H11543613   1.179   5.886   6.482  0.3892 -3.2778  0.0265
  240MOL   H11643614   0.976   5.758   6.294  0.5269 -0.7705 -0.7834
  240MOL   H11743615   1.046   5.695   6.449 -0.1295  0.3121  1.6923
  240MOL   H11843616   0.949   5.825   6.453  1.0722 -0.0830  0.1521
  240MOL   C11943617   1.250   5.854   6.283  0.1751  0.6664  1.1176
  240MOL   C12043618   1.296   5.713   6.255 -0.3339 -0.2624  0.3030
  240MOL   C12143619   1.407   5.697   6.148 -0.0728  0.0796  0.0245
  240MOL   H12243620   1.243   5.900   6.184  1.3429  1.3397  1.3463
  240MOL   H12343621   1.339   5.906   6.318 -0.3463  2.5734 -0.2996
  240MOL   H12443622   1.203   5.669   6.217  0.5008 -1.6078 -0.2056
  240MOL   H12543623   1.359   5.689   6.050 -0.7311 -1.2881  0.4494
  240MOL   H12643624   1.461   5.792   6.149  1.4340 -0.7570 -1.2553
  240MOL   H12743625   1.490   5.629   6.163  0.9101  1.5423  1.3955
  240MOL   C12843626   1.340   5.636   6.383  0.1530 -0.1238 -0.2700
  240MOL   C12943627   1.334   5.482   6.373 -0.3810  0.3786  0.0908
  240MOL   C13043628   1.406   5.414   6.486 -0.0080  0.4821  0.1919
  240MOL   H13143629   1.442   5.664   6.411 -0.1988  0.0078  0.8554
  240MOL   H13243630   1.293   5.679   6.471  0.5723 -0.4375  0.1098
  240MOL   H13343631   1.384   5.449   6.283  1.6567 -0.7865  1.6038
  240MOL   H13443632   1.510   5.440   6.504 -0.0039 -0.5292  1.6990
  240MOL   H13543633   1.359   5.429   6.583  0.7865  0.9398  0.5108
  240MOL   H13643634   1.401   5.306   6.474  1.4303  0.4515 -0.1789
  240MOL   C13743635   1.189   5.436   6.366  0.3706  0.5360 -0.1665
  240MOL   C13843636   1.170   5.330   6.258  0.1052 -0.6343  0.0299
  240MOL   C13943637   1.046   5.236   6.292 -0.4632 -0.4491  0.1755
  240MOL   H14043638   1.151   5.404   6.463  0.3423  0.5707 -0.1658
  240MOL   H14143639   1.116   5.516   6.351 -2.2856 -1.8373 -0.2176
  240MOL   H14243640   1.257   5.268   6.279  2.3314  1.7745 -1.6832
  240MOL   H14343641   1.076   5.139   6.252 -0.8027 -0.8684  0.9288
  240MOL   H14443642   1.024   5.222   6.398 -1.6092  0.8194  0.1098
  240MOL   H14543643   0.953   5.276   6.252  0.5924  1.8589 -0.0143
  240MOL   C14643644   1.171   5.384   6.111 -0.3436  0.1359  0.5035
  240MOL   C14743645   1.180   5.273   6.001 -0.0490 -0.2525  0.1816
  240MOL   C14843646   1.167   5.341   5.855 -0.2709 -0.2323  0.2682
  240MOL   H14943647   1.087   5.448   6.086 -1.1144 -0.1115  2.3651
  240MOL   H15043648   1.250   5.459   6.108  1.9575 -2.2248 -0.0195
  240MOL   H15143649   1.087   5.219   6.017 -1.0722  1.2597 -0.4715
  240MOL   H15243650   1.249   5.410   5.832 -0.9863  0.1700 -1.0925
  240MOL   H15343651   1.161   5.275   5.769  1.5912 -0.2728  0.1419
  240MOL   H15443652   1.078   5.404   5.856  0.8216  1.3651 -0.2723
  240MOL   C15543653   1.299   5.173   6.012 -0.4542  0.6962 -0.5401
  240MOL   C15643654   1.305   5.050   5.920 -0.4964 -0.1224  0.1683
  240MOL   C15743655   1.447   5.017   5.895  0.1189 -0.7139 -0.3068
  240MOL   H15843656   1.389   5.234   6.003  0.6224 -0.4214  2.3157
  240MOL   H15943657   1.298   5.134   6.113  0.1317  2.5159  0.1923
  240MOL   H16043658   1.257   5.085   5.829  2.4483  1.9148 -0.6902
  240MOL   H16143659   1.490   5.011   5.995 -0.1744  0.7198 -0.0920
  240MOL   H16243660   1.465   4.932   5.829 -0.1161 -1.3196  0.3933
  240MOL   H16343661   1.499   5.102   5.852  1.5677 -2.1531 -1.4602
  240MOL   C16443662   1.226   4.923   5.971 -0.3589 -1.0181 -0.2620
  240MOL   C16543663   1.242   4.791   5.885  0.2887 -0.1006 -0.4149
  240MOL   C16643664   1.184   4.668   5.951 -0.1651 -0.4137 -0.1964
  240MOL   H16743665   1.263   4.900   6.071 -1.9998  2.0302  1.1031
  240MOL   H16843666   1.119   4.938   5.983  0.2706  1.7454  2.1927
  240MOL   H16943667   1.346   4.760   5.889  0.0553 -0.9875 -0.9943
  240MOL   H17043668   1.238   4.657   6.045  0.9183  0.5125 -0.7104
  240MOL   H17143669   1.077   4.687   5.961  0.0667  0.6314  0.3568
  240MOL   H17243670   1.184   4.574   5.895  1.1504 -0.8916  0.5732
  240MOL   C17343671   1.195   4.810   5.742 -0.0709 -0.6171  0.6270
  240MOL   C17443672   1.047   4.852   5.730 -0.1816 -0.1847 -0.1320
  240MOL   C17543673   0.997   4.829   5.585  0.2452 -0.2584 -0.2190
  240MOL   H17643674   1.251   4.885   5.686 -1.7129  0.7811  0.8043
  240MOL   H17743675   1.221   4.715   5.695 -0.0489 -1.1431  1.6910
  240MOL   H17843676   1.046   4.956   5.763  0.1963  0.1886 -1.2724
  240MOL   H17943677   0.902   4.878   5.568 -0.6211 -1.5013  0.9257
  240MOL   H18043678   1.064   4.884   5.520  0.4406  0.2801  0.4314
  240MOL   H18143679   0.990   4.726   5.548  0.4182 -0.0583 -0.8055
  240MOL   H18243680   0.983   4.794   5.797  0.6772 -1.5652 -0.4988
  241MOL     C143681   0.644   6.538   4.231 -0.1516 -0.2307 -0.1221
  241MOL     C243682   0.563   6.672   4.254  0.2110 -0.0842  0.8128
  241MOL     C343683   0.426   6.655   4.314  0.7644  0.4218 -0.6056
  241MOL     H443684   0.648   6.487   4.327  0.4404 -0.9775 -0.5292
  241MOL     H543685   0.745   6.560   4.194 -0.0366  0.8806  0.8125
  241MOL     H643686   0.540   6.719   4.159 -1.4529  1.1935  1.8281
  241MOL     H743687   0.391   6.748   4.359  0.3805 -0.1900  0.3762
  241MOL     H843688   0.347   6.611   4.252 -1.4654  3.1761  0.1604
  241MOL     H943689   0.433   6.588   4.400 -1.0743 -0.7948 -1.3693
  241MOL    H1043690   0.598   6.468   4.161 -0.8670  0.5958 -0.4895
  241MOL    C1143691   0.641   6.772   4.338  0.3538 -0.7679 -0.3855
  241MOL    C1243692   0.782   6.816   4.287 -0.0937  0.4778 -0.2533
  241MOL    C1343693   0.790   6.864   4.140  0.3028 -0.3669 -0.0813
  241MOL    H1443694   0.581   6.863   4.346  0.0366 -0.9881 -0.2429
  241MOL    H1543695   0.640   6.735   4.441  0.5539 -0.2119 -0.1835
  241MOL    H1643696   0.846   6.727   4.290 -4.1781 -2.7675 -2.8325
  241MOL    H1743697   0.721   6.807   4.078  0.0268  0.2791 -0.3658
  241MOL    H1843698   0.752   6.965   4.132 -0.2641 -0.4925  0.8199
  241MOL    H1943699   0.891   6.859   4.102  0.5174 -3.0066  0.7183
  241MOL    C2043700   0.853   6.919   4.382  0.3480 -0.0969  1.1178
  241MOL    C2143701   0.900   6.871   4.518  0.2001  0.1887  0.4998
  241MOL    C2243702   1.040   6.920   4.534 -0.7706 -0.7620  0.0900
  241MOL    H2343703   0.942   6.951   4.329  1.1696  0.3285  2.7221
  241MOL    H2443704   0.801   7.014   4.388  0.9503  0.3390 -0.3759
  241MOL    H2543705   0.921   6.765   4.503 -0.0542  0.4290 -1.7439
  241MOL    H2643706   1.084   6.882   4.626 -0.6216 -1.0689 -0.1053
  241MOL    H2743707   1.102   6.886   4.451  0.9604  0.7734  0.7148
  241MOL    H2843708   1.052   7.028   4.541 -1.4277 -0.6601 -0.2820
  241MOL    C2943709   0.796   6.891   4.635  0.0865 -0.0224  0.2220
  241MOL    C3043710   0.773   7.041   4.676  0.0717 -0.2733 -0.2357
  241MOL    C3143711   0.645   7.103   4.617 -0.1689  0.7281  0.0534
  241MOL    H3243712   0.702   6.839   4.620 -0.5559  1.3258 -0.4819
  241MOL    H3343713   0.819   6.829   4.722 -1.4485  1.1816  1.4904
  241MOL    H3443714   0.859   7.094   4.636 -0.5143 -1.4375 -3.1768
  241MOL    H3543715   0.638   7.210   4.634 -1.4618  0.6704 -0.0401
  241MOL    H3643716   0.614   7.077   4.516 -0.1984  0.5857  0.0996
  241MOL    H3743717   0.564   7.061   4.677 -0.3136  1.5240  0.4259
  241MOL    C3843718   0.759   7.050   4.834  0.5278 -0.0021  0.6658
  241MOL    C3943719   0.884   7.047   4.925 -1.0103  0.2467  0.2548
  241MOL    C4043720   0.925   6.907   4.977 -0.4832 -0.6526 -0.5125
  241MOL    H4143721   0.712   7.146   4.856  2.2279  1.8031 -3.1256
  241MOL    H4243722   0.684   6.978   4.865 -1.3038  1.4585 -0.2602
  241MOL    H4343723   0.856   7.096   5.018  0.3014 -0.3780  0.9776
  241MOL    H4443724   0.934   6.821   4.910  1.2394 -0.1833 -0.8857
  241MOL    H4543725   1.021   6.917   5.028 -2.2339  1.0119  2.5821
  241MOL    H4643726   0.859   6.873   5.057  0.0231 -0.4917 -0.0263
  241MOL    C4743727   1.007   7.120   4.868  0.1373  0.8114 -0.4994
  241MOL    C4843728   0.988   7.269   4.833  0.3477 -0.0340  0.5496
  241MOL    C4943729   0.932   7.345   4.953  0.4222  0.4594 -0.4860
  241MOL    H5043730   1.080   7.110   4.948 -1.5019  2.8343  1.2969
  241MOL    H5143731   1.032   7.054   4.785 -2.2172 -1.2722  0.3987
  241MOL    H5243732   0.915   7.285   4.753  1.8043  0.6155 -0.6814
  241MOL    H5343733   0.835   7.306   4.982  0.0520  0.9984 -0.9943
  241MOL    H5443734   0.992   7.349   5.044 -1.3327 -1.0003  0.7560
  241MOL    H5543735   0.915   7.451   4.935  0.0458  0.4151 -0.3992
  241MOL    C5643736   1.123   7.332   4.785  0.2427  0.3238 -0.2219
  241MOL    C5743737   1.119   7.481   4.754  0.7564  0.1700  0.0089
  241MOL    C5843738   1.260   7.525   4.740 -1.1364 -0.5795  0.2413
  241MOL    H5943739   1.197   7.304   4.860 -0.3438 -3.5483 -0.9432
  241MOL    H6043740   1.155   7.280   4.694  0.2181  2.2070 -1.3193
  241MOL    H6143741   1.073   7.531   4.839  0.8238  2.8098 -1.4571
  241MOL    H6243742   1.253   7.634   4.736  1.7435 -0.3890 -0.8698
  241MOL    H6343743   1.308   7.504   4.836 -1.5650  2.0949  1.0873
  241MOL    H6443744   1.314   7.478   4.658 -0.7049 -0.2206  0.3210
  241MOL    C6543745   1.038   7.537   4.628 -0.2339 -0.7655  0.0911
  241MOL    C6643746   1.082   7.488   4.486 -0.0231  0.4251 -0.6228
  241MOL    C6743747   0.995   7.374   4.426  0.1271  0.3876  0.0147
  241MOL    H6843748   0.931   7.541   4.647 -0.5852 -0.9040 -1.7480
  241MOL    H6943749   1.045   7.645   4.630 -1.7877 -0.6220 -0.8657
  241MOL    H7043750   1.180   7.444   4.500  0.5557  2.3360  1.6814
  241MOL    H7143751   0.987   7.292   4.497  1.5963  0.2973  0.0905
  241MOL    H7243752   0.893   7.410   4.415  0.6235  1.3415 -1.6703
  241MOL    H7343753   1.035   7.348   4.328  0.2539 -0.4278  0.2835
  241MOL    C7443754   1.099   7.600   4.382  0.0854 -0.3849  0.1059
  241MOL    C7543755   1.236   7.653   4.369 -0.0686  0.5934 -0.3668
  241MOL    C7643756   1.333   7.559   4.307  0.0776  0.6175 -0.3290
  241MOL    H7743757   1.058   7.556   4.292  1.5147 -3.2836  0.7886
  241MOL    H7843758   1.028   7.679   4.405  3.0584  3.3504 -3.0373
  241MOL    H7943759   1.268   7.678   4.470  0.1531 -4.6458  1.0012
  241MOL    H8043760   1.437   7.574   4.335 -0.3737 -0.8538  2.3704
  241MOL    H8143761   1.315   7.455   4.334 -3.7142  0.9343 -1.3710
  241MOL    H8243762   1.327   7.560   4.198 -1.0682  1.5363 -0.2702
  241MOL    C8343763   1.234   0.091   4.297  0.2911  0.9774 -0.1854
  241MOL    C8443764   1.374   0.162   4.276 -0.4084  0.3620 -0.4953
  241MOL    C8543765   1.343   0.306   4.218 -0.4998 -0.0035  0.0152
  241MOL    H8643766   1.189   0.082   4.198  0.5646 -1.4784 -0.1279
  241MOL    H8743767   1.166   0.158   4.349 -0.0725 -0.4323  1.2058
  241MOL    H8843768   1.438   0.105   4.208  0.2462  1.9237 -1.1950
  241MOL    H8943769   1.432   0.370   4.220 -0.0654 -0.6393  1.4880
  241MOL    H9043770   1.305   0.300   4.117  2.0211  0.1473 -0.9841
  241MOL    H9143771   1.273   0.362   4.280 -0.4742 -0.3302  0.3449
  241MOL    C9243772   1.442   0.188   4.412  0.2112 -0.0166  0.2011
  241MOL    C9343773   1.590   0.138   4.409  0.1272  0.3500  0.0495
  241MOL    C9443774   1.686   0.215   4.317 -0.4937  0.7810  0.3787
  241MOL    H9543775   1.446   0.293   4.440 -0.9398  0.4282 -1.2611
  241MOL    H9643776   1.396   0.130   4.492 -1.5306 -1.4842 -1.7922
  241MOL    H9743777   1.576   0.032   4.385 -1.0641  0.3166  0.8608
  241MOL    H9843778   1.787   0.176   4.331 -0.5453  0.2906 -0.5672
  241MOL    H9943779   1.665   0.198   4.212 -0.4475  0.6804  0.3847
  241MOL   H10043780   1.692   0.320   4.344  5.6153  0.1731  2.1662
  241MOL   C10143781   1.645   0.141   4.559 -0.7265  0.7424 -0.0426
  241MOL   C10243782   1.607   0.028   4.653  1.2747  0.2569  0.2434
  241MOL   C10343783   1.667   7.585   4.619 -0.0433 -0.1847 -1.6214
  241MOL   H10443784   1.753   0.130   4.552 -0.7517 -0.7261  1.5653
  241MOL   H10543785   1.624   0.240   4.599 -0.4751  0.6236  0.3830
  241MOL   H10643786   1.498   0.016   4.647  1.4035 -0.8170 -0.0718
  241MOL   H10743787   1.761   7.605   4.568  1.2113 -0.6282  0.4575
  241MOL   H10843788   1.696   7.517   4.699  0.3157  0.0510 -1.5512
  241MOL   H10943789   1.601   7.532   4.550  0.3362 -2.6195 -0.1570
  241MOL   C11043790   1.616   0.052   4.808  0.2205 -0.0798 -0.5946
  241MOL   C11143791   1.484   0.110   4.867  0.6237  0.0131 -0.5304
  241MOL   C11243792   1.485   0.092   5.024  0.3055  0.0146 -0.0190
  241MOL   H11343793   1.634   7.665   4.874  1.2087  0.5861 -0.0008
  241MOL   H11443794   1.703   0.112   4.835 -0.5994 -0.5615  3.2548
  241MOL   H11543795   1.405   0.042   4.833  0.1855 -0.1320  0.7536
  241MOL   H11643796   1.570   0.141   5.072  0.4156  0.7841 -0.9681
  241MOL   H11743797   1.398   0.128   5.079  1.8086  2.9972  0.5065
  241MOL   H11843798   1.478   7.686   5.055  0.7695  0.2204  0.7677
  241MOL   C11943799   1.449   0.259   4.834 -0.7944  0.6350  0.2202
  241MOL   C12043800   1.304   0.296   4.874  0.5854 -0.4967  1.3098
  241MOL   C12143801   1.309   0.443   4.918 -0.6192  0.0311 -0.0315
  241MOL   H12243802   1.516   0.324   4.891  0.4970 -0.4182 -0.0663
  241MOL   H12343803   1.461   0.281   4.728 -0.0005  1.0243  0.3860
  241MOL   H12443804   1.269   0.235   4.957 -3.1441  2.4235  2.0027
  241MOL   H12543805   1.341   0.506   4.834 -1.3941 -0.8079 -0.9544
  241MOL   H12643806   1.216   0.485   4.957 -0.7934 -0.3522 -0.0348
  241MOL   H12743807   1.379   0.467   4.999 -1.8713 -2.5242  1.8573
  241MOL   C12843808   1.207   0.282   4.750 -0.0922 -0.0990  0.8424
  241MOL   C12943809   1.056   0.316   4.757  0.2150  0.6515 -0.0606
  241MOL   C13043810   0.982   0.314   4.623  0.3601 -0.2758 -0.1739
  241MOL   H13143811   1.241   0.350   4.672 -0.1973 -0.1463  0.7546
  241MOL   H13243812   1.226   0.190   4.696 -2.3524 -0.6660  0.9608
  241MOL   H13343813   1.043   0.418   4.791 -0.2406  0.2100  1.1054
  241MOL   H13443814   1.050   0.346   4.543 -1.6844 -2.1223 -2.7511
  241MOL   H13543815   0.935   0.218   4.600 -1.1785  0.8785 -2.0534
  241MOL   H13643816   0.898   0.382   4.612  1.5592  1.2845  0.0822
  241MOL   C13743817   0.988   0.226   4.860 -0.1216  0.2449  0.9125
  241MOL   C13843818   0.846   0.266   4.902  0.1437  0.1617  0.2312
  241MOL   C13943819   0.787   0.134   4.965 -0.3825  0.2404 -0.2278
  241MOL   H14043820   0.986   0.124   4.822 -0.6208 -0.3319  2.4425
  241MOL   H14143821   1.052   0.224   4.948 -1.5206 -2.7014  1.9342
  241MOL   H14243822   0.792   0.279   4.808  0.7138  1.1520  0.0304
  241MOL   H14343823   0.789   0.052   4.894 -2.0955  1.1367 -1.3481
  241MOL   H14443824   0.827   0.114   5.065  0.0547  1.3449 -0.1770
  241MOL   H14543825   0.681   0.157   4.980 -0.3434 -0.3644  1.0649
  241MOL   C14643826   0.844   0.391   4.988  0.4637 -0.1241 -0.0407
  241MOL   C14743827   0.709   0.461   5.021  0.1735  0.2344  0.0855
  241MOL   C14843828   0.737   0.597   5.079  0.3246 -0.1251  0.8769
  241MOL   H14943829   0.911   0.374   5.073 -1.4806 -1.8183  1.2103
  241MOL   H15043830   0.902   0.460   4.926 -0.5751 -1.0685 -2.1149
  241MOL   H15143831   0.663   0.394   5.094  0.4573 -1.5958 -1.3730
  241MOL   H15243832   0.645   0.655   5.089 -0.6321 -1.4704  0.0976
  241MOL   H15343833   0.782   0.574   5.175 -0.4708  0.3062  1.3551
  241MOL   H15443834   0.812   0.652   5.022 -0.3403  1.0339  1.0844
  241MOL   C15543835   0.612   0.466   4.896 -0.3262  0.1674  0.3341
  241MOL   C15643836   0.470   0.511   4.916 -0.2039  0.6484 -0.2602
  241MOL   C15743837   0.408   0.533   4.781 -0.4620  0.8875 -0.1916
  241MOL   H15843838   0.655   0.541   4.830 -0.5368  1.7671  1.9935
  241MOL   H15943839   0.604   0.369   4.847  2.3088  0.8635 -1.5270
  241MOL   H16043840   0.461   0.603   4.973 -2.7504  0.2407  0.0402
  241MOL   H16143841   0.418   0.446   4.716 -3.2334  1.2512 -1.1720
  241MOL   H16243842   0.306   0.565   4.761 -1.4252  0.0875  3.2120
  241MOL   H16343843   0.463   0.612   4.729  0.3639 -1.0322 -2.3470
  241MOL   C16443844   0.385   0.404   4.989 -0.0769 -0.1203 -0.0702
  241MOL   C16543845   0.236   0.426   5.003 -0.1033  0.4062  0.1247
  241MOL   C16643846   0.172   0.298   5.066 -0.7682  0.3121  0.8270
  241MOL   H16743847   0.408   0.318   4.927 -0.7821  0.1812 -0.7687
  241MOL   H16843848   0.434   0.381   5.083  2.3576  2.9454 -0.5245
  241MOL   H16943849   0.186   0.440   4.907 -1.7803  0.9035  1.0521
  241MOL   H17043850   0.207   0.215   5.004  0.9532  2.2500 -0.8929
  241MOL   H17143851   0.193   0.296   5.172  0.5917  1.9063  0.6169
  241MOL   H17243852   0.064   0.301   5.048 -0.7171 -0.7590  0.2951
  241MOL   C17343853   0.205   0.550   5.089  0.1785 -1.2860  0.1917
  241MOL   C17443854   0.059   0.598   5.080  0.2010 -0.7104 -0.4147
  241MOL   C17543855   0.047   0.744   5.114  0.4780 -0.0337 -0.1095
  241MOL   H17643856   0.237   0.534   5.192 -1.0662 -2.3381  0.4332
  241MOL   H17743857   0.271   0.627   5.049 -2.0586  0.7448  0.3136
  241MOL   H17843858   7.690   0.536   5.140 -0.3443  0.6342  0.3743
  241MOL   H17943859   0.092   0.806   5.038 -2.8586  0.5588 -1.7126
  241MOL   H18043860   7.637   0.756   5.099  0.8414  0.6519 -2.2712
  241MOL   H18143861   0.062   0.775   5.217  1.3967 -0.5386 -0.0893
  241MOL   H18243862   0.035   0.584   4.974  3.0748  0.4103 -1.2579
  242MOL     C143863   0.815   5.918   4.386  0.0546 -0.3768  0.5735
  242MOL     C243864   0.930   5.958   4.480 -0.3378 -0.2432  0.5149
  242MOL     C343865   1.067   5.952   4.420  0.0518  0.6120  0.3410
  242MOL     H443866   0.713   5.927   4.425  0.0208  0.7153  0.2202
  242MOL     H543867   0.827   5.812   4.362  0.0936 -0.2347 -0.0437
  242MOL     H643868   0.940   5.883   4.559  0.7839 -0.4873  0.1437
  242MOL     H743869   1.081   6.035   4.350 -1.6092  0.6611  0.0560
  242MOL     H843870   1.155   5.966   4.483  1.1116  0.7519 -1.1224
  242MOL     H943871   1.074   5.867   4.353 -0.5865  0.7486  0.0982
  242MOL    H1043872   0.809   5.968   4.290  3.3870 -1.5231 -0.2835
  242MOL    C1143873   0.912   6.100   4.543  0.7235 -0.7306  0.4927
  242MOL    C1243874   0.879   6.086   4.694  0.6272  0.4213 -0.7966
  242MOL    C1343875   0.891   6.225   4.762  0.1042 -0.1592 -0.2096
  242MOL    H1443876   0.999   6.165   4.532 -1.3225  1.6891 -2.3158
  242MOL    H1543877   0.827   6.150   4.497  2.5549  2.0819  0.0418
  242MOL    H1643878   0.961   6.025   4.732 -0.6396 -1.2335 -0.6653
  242MOL    H1743879   0.847   6.223   4.862  0.9538  0.1726  0.1798
  242MOL    H1843880   0.995   6.243   4.786 -0.1174 -0.8307  1.2800
  242MOL    H1943881   0.852   6.317   4.716  1.4210  1.3351  1.6025
  242MOL    C2043882   0.751   6.008   4.718 -0.3739  0.2085  0.2228
  242MOL    C2143883   0.776   5.886   4.804  0.3282 -0.5779  0.4920
  242MOL    C2243884   0.793   5.928   4.953  0.2537  0.1769 -0.4329
  242MOL    H2343885   0.686   6.074   4.776 -0.6384 -1.1063  1.4500
  242MOL    H2443886   0.695   5.987   4.627  2.8681  0.3309 -1.8735
  242MOL    H2543887   0.865   5.838   4.762  0.5053  1.4457 -1.5212
  242MOL    H2643888   0.867   6.005   4.976 -0.0449  0.4808 -0.4988
  242MOL    H2743889   0.698   5.962   4.993  0.9287  0.7492  0.7158
  242MOL    H2843890   0.829   5.845   5.015 -2.0634 -0.8304 -0.4027
  242MOL    C2943891   0.658   5.780   4.799  0.5368  0.5532 -0.0748
  242MOL    C3043892   0.659   5.697   4.668 -0.4727 -0.0339 -0.4883
  242MOL    C3143893   0.768   5.590   4.678 -0.0945  0.4083 -0.3341
  242MOL    H3243894   0.682   5.705   4.874 -1.2238 -1.9684 -1.9343
  242MOL    H3343895   0.564   5.818   4.840 -0.1254 -0.4529 -0.6599
  242MOL    H3443896   0.695   5.759   4.585  0.4388  0.0327 -0.0487
  242MOL    H3543897   0.864   5.642   4.686 -0.5598  1.2279 -0.0350
  242MOL    H3643898   0.774   5.528   4.768 -1.4626 -0.1028 -0.5831
  242MOL    H3743899   0.758   5.525   4.592 -1.5724  0.3538 -0.1207
  242MOL    C3843900   0.532   5.629   4.651 -0.1665  0.0026  0.9496
  242MOL    C3943901   0.407   5.711   4.629 -0.2369 -0.2228 -1.0071
  242MOL    C4043902   0.420   5.819   4.517 -0.3295 -0.1543  0.4577
  242MOL    H4143903   0.551   5.558   4.570  0.0177 -1.0916  1.9434
  242MOL    H4243904   0.533   5.565   4.739 -0.9119 -1.0890  0.1873
  242MOL    H4343905   0.381   5.762   4.722 -0.6649  1.1024 -1.8384
  242MOL    H4443906   0.329   5.879   4.520 -0.1561  0.1221  0.2602
  242MOL    H4543907   0.501   5.890   4.534 -0.3327  0.0655 -0.4084
  242MOL    H4643908   0.423   5.778   4.416 -0.3796  1.5091 -0.2328
  242MOL    C4743909   0.295   5.616   4.593 -0.2497 -0.4640 -0.5289
  242MOL    C4843910   0.149   5.673   4.550 -0.0966  0.0637 -0.1227
  242MOL    C4943911   0.053   5.579   4.478 -0.6168  0.0230 -0.6108
  242MOL    H5043912   0.334   5.573   4.500  0.7976 -1.8778  0.5506
  242MOL    H5143913   0.281   5.545   4.674 -0.7415 -0.7702 -0.8779
  242MOL    H5243914   0.176   5.749   4.477  3.8019 -0.1084  1.0256
  242MOL    H5343915   0.010   5.635   4.394  0.3080 -0.1407 -1.2016
  242MOL    H5443916   0.118   5.497   4.450 -1.1298 -0.0929 -1.4888
  242MOL    H5543917   7.679   5.537   4.550  0.3183  0.6636  0.7036
  242MOL    C5643918   0.081   5.741   4.677 -0.4390 -0.2158  0.7896
  242MOL    C5743919   0.001   5.872   4.643  0.0778 -0.0824 -0.7176
  242MOL    C5843920   7.604   5.853   4.527  0.4863  0.2776 -0.2846
  242MOL    H5943921   0.003   5.672   4.709 -1.8063  0.1809 -1.5717
  242MOL    H6043922   0.153   5.744   4.759 -0.2295  1.4379  0.5796
  242MOL    H6143923   0.071   5.947   4.607  1.5244 -0.5999  0.9611
  242MOL    H6243924   7.549   5.945   4.511 -1.5308 -1.0674 -1.2156
  242MOL    H6343925   7.654   5.828   4.434  0.2947  0.0502 -0.3260
  242MOL    H6443926   7.533   5.778   4.561  1.1722 -0.2362  0.0270
  242MOL    C6543927   7.622   5.913   4.773  0.2493 -0.4723 -0.0136
  242MOL    C6643928   0.012   5.967   4.889 -1.0722 -1.1429  0.1438
  242MOL    C6743929   0.102   6.085   4.835 -0.1476  0.3755  0.2436
  242MOL    H6843930   7.556   5.992   4.737  0.3301  0.1543  1.1944
  242MOL    H6943931   7.552   5.833   4.797  0.6778 -1.2285 -1.2491
  242MOL    H7043932   0.078   5.892   4.933 -1.1173 -1.3043 -0.0607
  242MOL    H7143933   0.157   6.151   4.903  1.4585  1.2923 -1.8960
  242MOL    H7243934   0.177   6.049   4.764  1.2307 -0.7222  2.2070
  242MOL    H7343935   0.033   6.152   4.785  0.1865 -1.1870 -2.3940
  242MOL    C7443936   7.618   6.021   5.007 -0.4940 -0.1014 -0.2508
  242MOL    C7543937   7.543   5.918   5.089  0.7199 -0.3286 -0.0020
  242MOL    C7643938   7.641   5.807   5.137  0.1003  0.5454  0.5205
  242MOL    H7743939   7.685   6.080   5.071  0.3263  0.1803 -1.3435
  242MOL    H7843940   7.552   6.095   4.963  0.8839  1.2999 -0.0334
  242MOL    H7943941   7.471   5.870   5.023 -1.6163  2.6156  0.3383
  242MOL    H8043942   7.586   5.738   5.200  0.4489  0.2695  0.5263
  242MOL    H8143943   7.688   5.750   5.058 -0.9213  0.4538 -0.0258
  242MOL    H8243944   0.028   5.848   5.194  1.1333 -0.5883 -0.1685
  242MOL    C8343945   7.457   5.978   5.203  0.4586  0.1706 -0.1007
  242MOL    C8443946   7.375   6.109   5.184  0.1519 -0.2144  0.4572
  242MOL    C8543947   7.281   6.081   5.074  0.2932 -0.1053 -0.2642
  242MOL    H8643948   7.383   5.906   5.237  1.8779 -0.5592  1.5386
  242MOL    H8743949   7.517   5.988   5.294  0.7993  0.2811 -0.3371
  242MOL    H8843950   7.451   6.179   5.148  0.5967 -1.7576 -1.6904
  242MOL    H8943951   7.330   6.065   4.978  0.7367 -1.3649  0.1660
  242MOL    H9043952   7.212   5.998   5.091 -0.9509  0.8733 -0.3812
  242MOL    H9143953   7.220   6.170   5.053  0.7852 -0.2880 -2.7058
  242MOL    C9243954   7.305   6.165   5.311 -0.5325 -0.7319 -0.4685
  242MOL    C9343955   7.369   6.296   5.364 -0.0511 -0.1906 -0.2349
  242MOL    C9443956   7.523   6.293   5.400 -0.0771 -0.1461 -0.4679
  242MOL    H9543957   7.199   6.187   5.299 -0.1769  0.1027 -2.3100
  242MOL    H9643958   7.314   6.093   5.392 -0.1581  0.2204  0.3460
  242MOL    H9743959   7.320   6.326   5.457 -2.0080 -2.8856 -0.3301
  242MOL    H9843960   7.567   6.377   5.454 -0.5020  1.5355 -2.6474
  242MOL    H9943961   7.527   6.208   5.468 -0.5651 -0.8813 -1.3425
  242MOL   H10043962   7.596   6.268   5.323 -0.5083  0.9824 -1.2595
  242MOL   C10143963   7.360   6.410   5.260  0.2198  0.0141 -0.4412
  242MOL   C10243964   7.215   6.451   5.207 -0.1865 -0.3637  0.3648
  242MOL   C10343965   7.110   6.487   5.327 -0.3402 -0.5817  0.0718
  242MOL   H10443966   7.406   6.502   5.297 -3.7715  3.1277 -2.7329
  242MOL   H10543967   7.410   6.382   5.168 -0.6072 -1.5257 -0.4229
  242MOL   H10643968   7.186   6.359   5.156  1.2945 -0.5475 -0.1720
  242MOL   H10743969   7.010   6.480   5.286 -0.0951 -0.7736 -0.4992
  242MOL   H10843970   7.115   6.416   5.409  0.7158 -0.1979  0.3589
  242MOL   H10943971   7.135   6.577   5.383  0.8399 -1.8195  1.5790
  242MOL   C11043972   7.225   6.556   5.093 -0.8650 -0.3487  0.5070
  242MOL   C11143973   7.091   6.636   5.063 -0.0221 -0.3224  0.3478
  242MOL   C11243974   7.084   6.766   5.153  0.7172  0.5352 -0.3339
  242MOL   H11343975   7.299   6.630   5.121 -0.2592 -0.6161 -0.3981
  242MOL   H11443976   7.281   6.507   5.014  0.6890  0.0192  1.3693
  242MOL   H11543977   7.003   6.575   5.085 -1.7647  1.5084 -1.3786
  242MOL   H11643978   6.999   6.828   5.124 -0.3391 -0.2138  1.1358
  242MOL   H11743979   7.082   6.750   5.260 -0.2347 -0.4665 -0.5036
  242MOL   H11843980   7.168   6.835   5.139 -0.3763  1.7422 -1.1147
  242MOL   C11943981   7.093   6.672   4.912 -0.0139 -0.3105  0.6041
  242MOL   C12043982   7.059   6.559   4.813 -0.0763 -0.4871  0.0829
  242MOL   C12143983   6.916   6.515   4.834  0.1268  0.3061  0.7155
  242MOL   H12243984   7.025   6.756   4.896 -0.2785 -0.8940 -1.4062
  242MOL   H12343985   7.190   6.720   4.894  0.6160 -1.4225  1.0149
  242MOL   H12443986   7.121   6.472   4.836 -1.0033 -0.8108  1.4222
  242MOL   H12543987   6.906   6.456   4.925  2.4300  1.8706  2.0465
  242MOL   H12643988   6.842   6.593   4.816  0.4863  0.7592  1.1743
  242MOL   H12743989   6.894   6.444   4.755  0.5974  1.1649 -0.1964
  242MOL   C12843990   7.088   6.600   4.666  0.0271 -0.8104  0.2019
  242MOL   C12943991   7.083   6.483   4.562  0.7842 -0.1390  0.3569
  242MOL   C13043992   7.006   6.535   4.436  0.0632  0.2960  0.4244
  242MOL   H13143993   7.005   6.663   4.633  0.6868 -0.3903 -0.6832
  242MOL   H13243994   7.182   6.653   4.656  1.3665 -3.0352  0.5663
  242MOL   H13343995   7.031   6.395   4.601  1.6499 -1.9081 -2.3332
  242MOL   H13443996   7.048   6.632   4.409 -0.2498  0.8354  1.8575
  242MOL   H13543997   7.002   6.469   4.349  2.1193  0.2674  0.3302
  242MOL   H13643998   6.903   6.562   4.460  0.0459 -0.4820  1.2386
  242MOL   C13743999   7.221   6.437   4.521  1.1288  0.5752 -0.0473
  242MOL   C13844000   7.303   6.369   4.634  0.7109  0.6639  0.8529
  242MOL   C13944001   7.246   6.231   4.683 -0.1407 -0.1016  0.0382
  242MOL   H14044002   7.194   6.368   4.441  1.4168  2.5756 -1.9087
  242MOL   H14144003   7.285   6.519   4.487  2.1599  1.1507  3.0713
  242MOL   H14244004   7.308   6.438   4.718 -3.0394  2.0345  0.0219
  242MOL   H14344005   7.148   6.238   4.731 -0.0667 -0.8405  0.2903
  242MOL   H14444006   7.231   6.160   4.602  1.3499 -0.4787  0.0856
  242MOL   H14544007   7.318   6.192   4.755  0.5391 -0.3976 -0.7912
  242MOL   C14644008   7.452   6.354   4.585  0.1466  0.0273 -0.2645
  242MOL   C14744009   7.548   6.474   4.636 -0.3316 -0.3352 -0.7919
  242MOL   C14844010   7.562   6.472   4.790 -0.2079 -0.2300  0.3765
  242MOL   H14944011   7.497   6.267   4.634 -2.1116 -0.5556  0.8441
  242MOL   H15044012   7.457   6.330   4.479 -1.1624 -0.7755 -0.1606
  242MOL   H15144013   7.503   6.566   4.599 -1.2077  0.2789  1.7098
  242MOL   H15244014   7.468   6.493   4.840 -0.8688 -1.2467 -0.4325
  242MOL   H15344015   7.600   6.384   4.841  1.4520 -0.4801 -1.2018
  242MOL   H15444016   7.625   6.554   4.826 -0.2000  0.3971 -1.0228
  242MOL   C15544017   7.695   6.446   4.587 -0.2100 -0.3760  0.0662
  242MOL   C15644018   0.030   6.463   4.433  0.5373  0.2202 -0.1527
  242MOL   C15744019   0.020   6.615   4.395 -0.5167  0.9645  0.3712
  242MOL   H15844020   0.060   6.516   4.644 -2.0398  1.8821 -0.6161
  242MOL   H15944021   0.029   6.347   4.620 -1.4140 -0.5802  0.6091
  242MOL   H16044022   7.650   6.409   4.379  1.8893 -1.0612 -0.8419
  242MOL   H16144023   0.075   6.684   4.459 -1.4134  2.3970 -0.3893
  242MOL   H16244024   0.056   6.644   4.297  2.2699 -1.7802  0.5054
  242MOL   H16344025   7.619   6.651   4.424 -1.3420  0.3071 -1.5373
  242MOL   C16444026   0.166   6.401   4.397 -0.4068 -0.0515  0.4440
  242MOL   C16544027   0.173   6.246   4.414 -0.1331 -0.0158 -0.8571
  242MOL   C16644028   0.054   6.156   4.362  0.2052 -0.1241 -0.4165
  242MOL   H16744029   0.183   6.424   4.292 -0.2974 -1.4292  0.1603
  242MOL   H16844030   0.238   6.464   4.451  0.2785 -0.8062  0.4207
  242MOL   H16944031   0.182   6.231   4.522  1.5536  1.9351 -0.6990
  242MOL   H17044032   0.058   6.051   4.388  1.8203 -0.0360 -0.2173
  242MOL   H17144033   7.661   6.193   4.409  1.1535 -1.0234  2.2384
  242MOL   H17244034   0.050   6.161   4.254  2.4158 -1.2509 -0.5878
  242MOL   C17344035   0.308   6.193   4.354  0.4351  0.4582  0.2564
  242MOL   C17444036   0.438   6.253   4.412 -0.3881 -0.4398 -0.4966
  242MOL   C17544037   0.554   6.188   4.334 -0.4356 -0.7853  0.0346
  242MOL   H17644038   0.316   6.086   4.376  0.0989  0.1321 -1.1432
  242MOL   H17744039   0.309   6.199   4.245  2.0487  1.2737  0.3127
  242MOL   H17844040   0.447   6.217   4.514  1.5212 -1.0097 -0.8589
  242MOL   H17944041   0.646   6.238   4.365  0.0464 -1.4491 -0.3172
  242MOL   H18044042   0.551   6.080   4.348 -0.5014 -1.2259 -3.1066
  242MOL   H18144043   0.558   6.211   4.228  1.0296  1.7340  0.5819
  242MOL   H18244044   0.442   6.362   4.414  0.3799 -0.4702  2.3051
  243MOL     C144045   7.095   0.990   5.605 -0.5851  0.0366  0.7480
  243MOL     C244046   7.022   0.852   5.607 -0.5150  0.2326 -0.7659
  243MOL     C344047   7.100   0.765   5.701 -0.0042 -0.1067  0.1643
  243MOL     H444048   7.176   0.995   5.533 -1.1952 -0.6949  0.0032
  243MOL     H544049   7.136   1.007   5.705  1.5117 -0.8734  0.0708
  243MOL     H644050   7.019   0.803   5.510  0.9231 -0.3075 -0.5441
  243MOL     H744051   7.054   0.667   5.691 -0.6725  0.3126 -1.0047
  243MOL     H844052   7.205   0.754   5.674 -0.0675 -0.6123  0.1239
  243MOL     H944053   7.098   0.798   5.805  1.0440 -1.2115  0.5386
  243MOL    H1044054   7.023   1.068   5.581 -1.3379 -1.4044 -1.7353
  243MOL    C1144055   6.870   0.871   5.652  0.6463  0.4502  0.0468
  243MOL    C1244056   6.758   0.854   5.549 -0.5659 -0.5417 -0.8909
  243MOL    C1344057   6.739   0.700   5.517  0.2287  0.6551 -0.3257
  243MOL    H1444058   6.850   0.829   5.751  2.8113 -2.0362 -0.5174
  243MOL    H1544059   6.856   0.975   5.681  0.5896  0.9166 -1.6443
  243MOL    H1644060   6.783   0.905   5.455  2.3299 -0.7296 -0.2678
  243MOL    H1744061   6.822   0.669   5.454  0.8119 -1.1060  1.2745
  243MOL    H1844062   6.732   0.641   5.608 -0.1603  0.2879 -0.5894
  243MOL    H1944063   6.646   0.683   5.463 -0.1051 -0.8113  0.6830
  243MOL    C2044064   6.626   0.923   5.603  0.1592  0.2515 -0.6532
  243MOL    C2144065   6.515   0.925   5.496 -0.3501 -0.0945 -0.1849
  243MOL    C2244066   6.372   0.963   5.569  0.3081 -0.2019  0.4920
  243MOL    H2344067   6.588   0.869   5.690  0.4314  0.1650 -0.5857
  243MOL    H2444068   6.653   1.026   5.629  1.6966 -0.2620 -0.1622
  243MOL    H2544069   6.510   0.824   5.455  1.4541 -0.1588 -0.2816
  243MOL    H2644070   6.335   0.891   5.643 -0.5656 -0.2538  0.0062
  243MOL    H2744071   6.385   1.067   5.600 -1.1335  0.2133 -0.2983
  243MOL    H2844072   6.292   0.984   5.499  0.9010  1.0737  0.1874
  243MOL    C2944073   6.551   1.005   5.368 -0.6240 -0.5126  0.4234
  243MOL    C3044074   6.447   1.025   5.250 -0.1238  0.1479  0.4469
  243MOL    C3144075   6.530   1.094   5.141 -0.4444  0.4731  0.5977
  243MOL    H3244076   6.584   1.102   5.405 -1.3438 -0.2204  0.3077
  243MOL    H3344077   6.639   0.957   5.324 -0.1172  0.6051  0.1990
  243MOL    H3444078   6.372   1.093   5.291  1.9356  1.8242  1.4804
  243MOL    H3544079   6.468   1.127   5.058 -2.5244  0.8196  2.2379
  243MOL    H3644080   6.587   1.179   5.180 -0.4951  0.2221  1.2310
  243MOL    H3744081   6.602   1.027   5.094  0.4503  1.0396  1.1409
  243MOL    C3844082   6.395   0.885   5.207 -0.5048 -0.3185 -0.7169
  243MOL    C3944083   6.285   0.875   5.109  0.8278 -0.2750  0.3098
  243MOL    C4044084   6.323   0.764   4.997 -0.4008  0.0324 -0.2988
  243MOL    H4144085   6.480   0.826   5.175 -2.1905 -2.4421 -1.3858
  243MOL    H4244086   6.360   0.835   5.298  1.8020  0.7218  0.7920
  243MOL    H4344087   6.282   0.975   5.066 -5.8538 -0.2124  0.4329
  243MOL    H4444088   6.412   0.780   4.936 -1.4045 -0.2523 -1.8564
  243MOL    H4544089   6.345   0.672   5.051  0.5005  1.0049  0.9985
  243MOL    H4644090   6.246   0.744   4.923  1.0352 -1.3024 -1.4521
  243MOL    C4744091   6.152   0.850   5.171  0.4706  0.6063  0.1631
  243MOL    C4844092   6.023   0.908   5.104 -0.4327  0.1172 -0.1114
  243MOL    C4944093   5.900   0.824   5.137 -0.5218 -0.5987 -0.1760
  243MOL    H5044094   6.146   0.742   5.186  2.8543  0.3357 -0.6435
  243MOL    H5144095   6.146   0.894   5.271 -1.5290 -0.8551  0.7491
  243MOL    H5244096   6.044   0.880   5.000 -0.5276 -0.0351 -0.0893
  243MOL    H5344097   5.913   0.723   5.098  1.7449 -0.1266 -0.6801
  243MOL    H5444098   5.906   0.799   5.242  0.1907 -2.4913 -0.6567
  243MOL    H5544099   5.797   0.858   5.125 -0.4942 -0.9259 -1.4679
  243MOL    C5644100   6.001   1.056   5.121 -0.5382  0.2413 -0.1792
  243MOL    C5744101   5.928   1.123   5.005 -0.3148  0.1897  0.5401
  243MOL    C5844102   5.785   1.159   5.047  0.2162  0.0894  0.5122
  243MOL    H5944103   5.938   1.074   5.208 -1.0540 -0.7248 -0.3459
  243MOL    H6044104   6.095   1.111   5.128 -0.5595  0.3663 -0.8824
  243MOL    H6144105   5.919   1.047   4.927 -0.1043 -0.0024  0.7073
  243MOL    H6244106   5.783   1.225   5.134 -1.0407  0.0957  0.4889
  243MOL    H6344107   5.721   1.206   4.972 -0.3449  0.6352  1.3172
  243MOL    H6444108   5.728   1.072   5.081  0.3746 -0.1351  0.1940
  243MOL    C6544109   5.982   1.260   4.950  0.2350 -0.9994 -0.1354
  243MOL    C6644110   6.130   1.254   4.902 -0.3859  0.1722 -0.2234
  243MOL    C6744111   6.151   1.137   4.800 -0.1628 -0.1388  0.4007
  243MOL    H6844112   5.915   1.285   4.868  0.0123  0.9156  0.6087
  243MOL    H6944113   5.956   1.339   5.020  1.3510 -0.4095 -0.3849
  243MOL    H7044114   6.201   1.239   4.983  0.2998 -1.0459 -1.0371
  243MOL    H7144115   6.080   1.144   4.718  0.3120 -3.3575 -0.3220
  243MOL    H7244116   6.254   1.131   4.766 -0.6297 -2.8597 -0.6392
  243MOL    H7344117   6.137   1.044   4.855  0.4270 -1.0843 -1.0156
  243MOL    C7444118   6.180   1.384   4.828 -0.1490 -0.0366  0.1268
  243MOL    C7544119   6.224   1.496   4.921 -0.0307 -0.0191 -0.3403
  243MOL    C7644120   6.346   1.444   5.006 -0.3818  0.2401  0.6277
  243MOL    H7744121   6.266   1.363   4.764 -1.3332  1.3009 -1.9732
  243MOL    H7844122   6.105   1.413   4.755 -1.4220  1.2424  1.8984
  243MOL    H7944123   6.146   1.518   4.994 -0.1780  1.3304 -0.8939
  243MOL    H8044124   6.412   1.397   4.933  1.5212  1.6673  1.3873
  243MOL    H8144125   6.393   1.533   5.047 -1.6763  1.4372 -0.4417
  243MOL    H8244126   6.301   1.392   5.090 -1.3298  0.8761  0.5195
  243MOL    C8344127   6.260   1.628   4.848  0.2189 -0.3264 -0.0344
  243MOL    C8444128   6.144   1.699   4.786  0.8293 -0.2407 -0.0705
  243MOL    C8544129   6.047   1.755   4.898 -0.0606  1.1414  0.0947
  243MOL    H8644130   6.297   1.694   4.926 -0.0599 -0.7400  0.4576
  243MOL    H8744131   6.332   1.609   4.768 -1.4130 -0.9520 -1.3840
  243MOL    H8844132   6.098   1.618   4.729  2.2353 -0.8115 -0.3910
  243MOL    H8944133   6.028   1.691   4.984 -0.4814 -1.2177 -1.7127
  243MOL    H9044134   6.067   1.854   4.940 -0.0459  2.1236 -2.1314
  243MOL    H9144135   5.955   1.782   4.846  2.0566  1.4664 -3.6221
  243MOL    C9244136   6.190   1.807   4.685  0.5368  0.4769 -0.1748
  243MOL    C9344137   6.108   1.830   4.560  0.2622 -0.4379 -0.3131
  243MOL    C9444138   6.156   1.951   4.491  0.3219 -0.7005 -0.1858
  243MOL    H9544139   6.208   1.900   4.738  0.6758  0.2975  0.0913
  243MOL    H9644140   6.285   1.783   4.638  0.2215 -2.2602  0.4977
  243MOL    H9744141   6.003   1.841   4.588 -0.1815 -1.8609 -1.3502
  243MOL    H9844142   6.116   1.971   4.392 -1.9693  1.6798  1.1928
  243MOL    H9944143   6.131   2.035   4.556  0.2232  0.0482 -1.1807
  243MOL   H10044144   6.264   1.938   4.476  0.2897  0.0130 -1.0912
  243MOL   C10144145   6.133   1.702   4.466 -0.2891 -0.6414 -0.2483
  243MOL   C10244146   6.006   1.679   4.382  0.1444  0.1309 -0.3830
  243MOL   C10344147   6.046   1.653   4.233  0.1202  0.5836  0.2545
  243MOL   H10444148   6.212   1.727   4.395 -2.1048 -1.0314 -2.4614
  243MOL   H10544149   6.160   1.613   4.523 -1.5394 -1.0090 -0.2208
  243MOL   H10644150   5.948   1.770   4.388 -0.0964 -0.2309  4.4699
  243MOL   H10744151   6.105   1.562   4.225 -0.8501 -0.0836  0.5895
  243MOL   H10844152   5.962   1.641   4.165 -1.5396  0.9901  2.1944
  243MOL   H10944153   6.092   1.742   4.189 -0.1803  0.0346 -1.2034
  243MOL   C11044154   5.920   1.556   4.426 -0.2659  1.1499  0.2520
  243MOL   C11144155   5.769   1.569   4.422  0.9921 -0.1300  0.0413
  243MOL   C11244156   5.712   1.605   4.277  0.3205 -0.0377 -0.6730
  243MOL   H11344157   5.953   1.474   4.361 -1.0050  1.5917 -0.6909
  243MOL   H11444158   5.955   1.541   4.528  0.7315 -0.7511 -0.3463
  243MOL   H11544159   5.755   1.660   4.481 -0.5352  2.0436 -3.4438
  243MOL   H11644160   5.715   1.527   4.201 -0.6918  0.6076 -1.3948
  243MOL   H11744161   5.609   1.636   4.295  0.2942 -1.0287  1.0145
  243MOL   H11844162   5.767   1.694   4.246  0.8393  0.3148  1.1920
  243MOL   C11944163   5.684   1.454   4.482 -0.0411  0.6049 -0.0120
  243MOL   C12044164   5.737   1.391   4.617 -0.1491  0.1099 -0.7329
  243MOL   C12144165   5.747   1.505   4.720  0.6844 -0.3612  0.0800
  243MOL   H12244166   5.585   1.493   4.506 -0.6209 -1.1532  0.5620
  243MOL   H12344167   5.672   1.379   4.403  2.7815 -0.6797  0.7194
  243MOL   H12444168   5.837   1.351   4.600 -0.9706 -2.0899 -0.5070
  243MOL   H12544169   5.716   1.478   4.821 -1.6547  3.3445  0.4538
  243MOL   H12644170   5.850   1.538   4.735  0.8563 -0.7691 -0.1942
  243MOL   H12744171   5.686   1.594   4.707  2.3159  0.7297 -0.2294
  243MOL   C12844172   5.650   1.272   4.661  0.2443 -0.0050 -0.5399
  243MOL   C12944173   5.678   1.146   4.577 -0.3614  0.1991 -0.4526
  243MOL   C13044174   5.801   1.065   4.634  1.0368 -0.5691 -0.0527
  243MOL   H13144175   5.677   1.250   4.764  1.3058  0.0947 -0.7945
  243MOL   H13244176   5.546   1.307   4.662 -0.1951 -1.2998  0.6831
  243MOL   H13344177   5.694   1.177   4.474 -0.4557  0.9349 -0.2479
  243MOL   H13444178   5.808   0.986   4.559  1.1446  0.9311 -1.6209
  243MOL   H13544179   5.894   1.120   4.623 -0.8012  2.7484  0.3000
  243MOL   H13644180   5.765   1.032   4.732 -1.3758 -0.7393 -0.9463
  243MOL   C13744181   5.552   1.061   4.585  0.2615 -0.0352  0.5135
  243MOL   C13844182   5.461   1.068   4.464  0.3795 -0.2110  0.4428
  243MOL   C13944183   5.369   0.945   4.442 -0.2250  0.4904 -0.4642
  243MOL   H14044184   5.582   0.956   4.593 -1.9967 -0.9220 -2.0702
  243MOL   H14144185   5.492   1.087   4.671 -1.2259  0.5506 -0.6844
  243MOL   H14244186   5.525   1.075   4.376 -1.1392  0.1499 -0.6605
  243MOL   H14344187   5.315   0.900   4.525 -4.6684  0.7453 -3.0368
  243MOL   H14444188   5.305   0.952   4.354  2.6461  1.4727 -2.5462
  243MOL   H14544189   5.451   0.877   4.418 -0.2243 -0.6213  2.5375
  243MOL   C14644190   5.377   1.192   4.466 -0.2037  0.7055 -0.8788
  243MOL   C14744191   5.289   1.231   4.343  0.7176 -0.1464 -0.2253
  243MOL   C14844192   5.171   1.330   4.374  0.3053 -0.0839  0.0219
  243MOL   H14944193   5.320   1.181   4.558  1.2880  1.7166  0.1839
  243MOL   H15044194   5.436   1.277   4.501 -0.2283 -0.0860  1.1352
  243MOL   H15144195   5.240   1.142   4.304 -0.8425 -0.3716  2.1344
  243MOL   H15244196   5.102   1.348   4.292  1.1979 -1.4207 -1.0386
  243MOL   H15344197   5.119   1.302   4.466  1.8532  1.3354  1.3511
  243MOL   H15444198   5.205   1.430   4.401 -1.4142 -0.3012  3.3534
  243MOL   C15544199   5.379   1.282   4.234 -0.2902  0.5212  0.2180
  243MOL   C15644200   5.317   1.292   4.094 -0.5768 -0.1807 -0.2936
  243MOL   C15744201   5.392   1.393   4.010  0.8519  0.2879  0.6781
  243MOL   H15844202   5.405   1.381   4.270  0.0447  1.5547 -2.7514
  243MOL   H15944203   5.470   1.224   4.219 -0.5613 -0.0178  0.6413
  243MOL   H16044204   5.218   1.338   4.096 -0.3389  0.5063 -2.4899
  243MOL   H16144205   5.336   1.417   3.919  1.9037  0.0417 -0.0390
  243MOL   H16244206   5.425   1.482   4.064  0.1412  1.7905 -1.3141
  243MOL   H16344207   5.488   1.361   3.971  0.4916  3.0135 -2.7716
  243MOL   C16444208   5.316   1.155   4.027  0.0383  0.2056  0.8331
  243MOL   C16544209   5.208   1.145   3.909 -0.2460  0.0750  0.2731
  243MOL   C16644210   5.249   1.031   3.807 -0.1510  0.1787  0.2203
  243MOL   H16744211   5.416   1.128   3.995  0.7875  1.5868  1.9310
  243MOL   H16844212   5.291   1.080   4.102 -2.7366 -0.2691 -0.5041
  243MOL   H16944213   5.225   1.236   3.850  1.0461 -1.9958 -2.6433
  243MOL   H17044214   5.357   1.028   3.791 -0.1587  1.8589 -0.2611
  243MOL   H17144215   5.227   0.935   3.853  0.5478  1.1610  2.7330
  243MOL   H17244216   5.192   1.037   3.715  0.0265 -0.9172  0.0333
  243MOL   C17344217   5.056   1.134   3.945  0.2709 -0.0778  0.1885
  243MOL   C17444218   5.031   1.030   4.064 -0.7504 -0.1075  0.1250
  243MOL   C17544219   4.892   0.973   4.062 -0.4809 -0.0528  0.7222
  243MOL   H17644220   5.018   1.229   3.981 -0.2402  0.0171 -0.6029
  243MOL   H17744221   4.997   1.116   3.855  0.2661  1.4461 -0.1367
  243MOL   H17844222   5.077   1.055   4.160 -0.7026 -2.9015  0.8703
  243MOL   H17944223   4.885   0.891   4.135 -0.6087 -0.4809  0.2335
  243MOL   H18044224   4.818   1.050   4.084  0.4995  0.9523  0.5514
  243MOL   H18144225   4.847   0.928   3.973 -0.8077 -0.1629  0.9411
  243MOL   H18244226   5.092   0.945   4.033  1.3795  0.9203  1.3826
  244MOL     C144227   3.144   4.277   5.671  0.2456  0.1599  0.4101
  244MOL     C244228   3.221   4.377   5.576 -0.7444  0.0012 -0.4167
  244MOL     C344229   3.369   4.405   5.634  0.0963 -0.7183 -0.2981
  244MOL     H444230   3.205   4.192   5.702  0.4000  1.0797  2.7832
  244MOL     H544231   3.050   4.243   5.627  1.2734 -1.7734 -0.3335
  244MOL     H644232   3.170   4.470   5.599 -1.2875 -0.4067  0.0560
  244MOL     H744233   3.362   4.429   5.740  1.8854  2.0924 -0.7634
  244MOL     H844234   3.428   4.314   5.624 -0.3533 -1.0363 -0.0874
  244MOL     H944235   3.418   4.486   5.580 -0.4522 -0.5595 -0.5603
  244MOL    H1044236   3.106   4.339   5.753 -2.8254  0.1122 -0.9262
  244MOL    C1144237   3.218   4.325   5.431  0.3234  0.0414  0.3944
  244MOL    C1244238   3.143   4.419   5.328 -1.0175 -0.3807 -0.4657
  244MOL    C1344239   2.994   4.442   5.377 -0.5903 -0.4685 -0.0721
  244MOL    H1444240   3.323   4.311   5.402  0.7384  1.8978  0.9357
  244MOL    H1544241   3.170   4.227   5.427 -2.1020  1.0954  2.3708
  244MOL    H1644242   3.142   4.358   5.238  1.4055 -2.2870  0.7498
  244MOL    H1744243   2.981   4.502   5.466  1.9609  0.0778 -0.0211
  244MOL    H1844244   2.936   4.493   5.300 -0.6365 -0.3598  0.0364
  244MOL    H1944245   2.948   4.350   5.414 -1.4240 -0.3204 -0.7127
  244MOL    C2044246   3.221   4.551   5.298  0.5062  0.5956 -0.0985
  244MOL    C2144247   3.184   4.619   5.163  0.2837  0.1404 -0.0801
  244MOL    C2244248   3.240   4.768   5.175 -0.0915 -0.1497 -0.1129
  244MOL    H2344249   3.198   4.614   5.384 -2.4787 -0.1965 -0.2808
  244MOL    H2444250   3.328   4.537   5.313 -0.2050 -2.5927  2.4797
  244MOL    H2544251   3.075   4.631   5.166  0.1871 -1.0157  1.2568
  244MOL    H2644252   3.217   4.832   5.090  0.9782 -1.5017 -1.4503
  244MOL    H2744253   3.192   4.808   5.264 -1.7579 -0.8735 -0.6493
  244MOL    H2844254   3.347   4.776   5.192  0.2756 -2.3835 -1.2014
  244MOL    C2944255   3.243   4.551   5.036  0.0261  0.5720 -0.4784
  244MOL    C3044256   3.147   4.534   4.915 -0.3429  0.0593  0.4773
  244MOL    C3144257   3.232   4.485   4.799  0.1932  0.2431 -0.2350
  244MOL    H3244258   3.330   4.607   5.000 -0.8638  2.5085  0.3271
  244MOL    H3344259   3.287   4.458   5.071  3.2682  1.7957 -1.0801
  244MOL    H3444260   3.105   4.629   4.880 -0.3922 -0.2972 -0.4561
  244MOL    H3544261   3.271   4.385   4.814  0.6821  0.6010  0.8804
  244MOL    H3644262   3.168   4.487   4.710  0.1186 -0.5950 -0.1971
  244MOL    H3744263   3.315   4.556   4.794  0.3539  0.1954  1.4460
  244MOL    C3844264   3.032   4.436   4.946  0.8149  0.0751  0.2230
  244MOL    C3944265   2.916   4.415   4.837 -0.1650  0.5494  0.0920
  244MOL    C4044266   2.816   4.316   4.881  0.2395 -0.3772  0.7307
  244MOL    H4144267   3.074   4.339   4.969 -2.3161 -2.3257 -3.4378
  244MOL    H4244268   2.992   4.479   5.038 -0.0132  0.6985 -0.4186
  244MOL    H4344269   2.969   4.371   4.752  0.3793  1.8285 -0.2563
  244MOL    H4444270   2.778   4.342   4.979  1.6912  1.7909  0.7705
  244MOL    H4544271   2.736   4.304   4.808  0.5247 -2.5238  0.7427
  244MOL    H4644272   2.858   4.217   4.897  0.0298 -0.7229 -0.7495
  244MOL    C4744273   2.847   4.545   4.794 -0.0604  0.0749 -0.8624
  244MOL    C4844274   2.774   4.541   4.659 -0.5045  0.7897 -0.4372
  244MOL    C4944275   2.628   4.585   4.689  0.3478  0.3968 -0.0683
  244MOL    H5044276   2.793   4.584   4.880  0.7253 -0.9828  0.1186
  244MOL    H5144277   2.928   4.619   4.792  0.9329 -0.9606  0.1665
  244MOL    H5244278   2.776   4.444   4.610 -2.3475 -0.6279  2.1839
  244MOL    H5344279   2.580   4.560   4.595  2.3572  1.3080 -1.3718
  244MOL    H5444280   2.583   4.514   4.759 -0.0830 -1.4842 -2.1810
  244MOL    H5544281   2.628   4.692   4.710  0.9728  0.2621  0.6662
  244MOL    C5644282   2.856   4.626   4.560 -0.6370  0.1248  0.3042
  244MOL    C5744283   2.799   4.633   4.414  0.0536 -0.3895 -0.2006
  244MOL    C5844284   2.688   4.744   4.385  0.5150  0.0809  0.0108
  244MOL    H5944285   2.861   4.729   4.596 -0.0978  0.6647 -1.2812
  244MOL    H6044286   2.962   4.612   4.575 -0.6040 -0.4124 -0.4170
  244MOL    H6144287   2.750   4.538   4.392  0.1414 -1.2012  2.8955
  244MOL    H6244288   2.600   4.719   4.444  1.9522 -1.7702  1.3836
  244MOL    H6344289   2.719   4.844   4.415  0.8005 -0.8842  3.0228
  244MOL    H6444290   2.659   4.741   4.280  0.9327  0.2096 -0.1066
  244MOL    C6544291   2.903   4.624   4.303  0.1255  0.0017 -0.3236
  244MOL    C6644292   2.987   4.497   4.289  0.3950 -0.4611 -0.6593
  244MOL    C6744293   2.909   4.366   4.261  0.0839  0.9069 -0.4058
  244MOL    H6844294   2.868   4.640   4.201 -0.3989 -0.9306 -0.2853
  244MOL    H6944295   2.970   4.706   4.330  0.1429  0.1839 -0.9027
  244MOL    H7044296   3.038   4.486   4.384 -0.9788  0.4202  0.2131
  244MOL    H7144297   2.873   4.366   4.157 -2.2688  0.7760  0.3663
  244MOL    H7244298   2.975   4.280   4.274 -0.8440 -0.0963 -2.0898
  244MOL    H7344299   2.820   4.350   4.322  0.2791  2.7807  0.4184
  244MOL    C7444300   3.094   4.527   4.178  0.0246 -0.0985 -0.2325
  244MOL    C7544301   3.203   4.424   4.147  0.8578  0.5276  0.5479
  244MOL    C7644302   3.270   4.474   4.017 -0.4964  0.8802  0.3560
  244MOL    H7744303   3.049   4.560   4.084 -0.3517 -0.5426 -0.2160
  244MOL    H7844304   3.133   4.623   4.209 -0.1801  0.1020 -0.5912
  244MOL    H7944305   3.156   4.326   4.142 -0.8864  1.3576  0.0101
  244MOL    H8044306   3.376   4.452   4.004 -0.6705 -1.1228  2.0108
  244MOL    H8144307   3.198   4.449   3.939 -1.0323 -0.4589  1.2567
  244MOL    H8244308   3.285   4.582   4.017 -0.2634  0.8488  0.4126
  244MOL    C8344309   3.315   4.420   4.259 -0.2665 -0.2325  0.3354
  244MOL    C8444310   3.420   4.310   4.235 -0.3224  0.5973 -0.1726
  244MOL    C8544311   3.561   4.376   4.235  0.1583  0.8252 -0.4404
  244MOL    H8644312   3.363   4.518   4.266 -1.1113  0.3226 -1.4210
  244MOL    H8744313   3.258   4.408   4.351 -0.3028 -2.0379  0.0892
  244MOL    H8844314   3.401   4.254   4.144 -2.1264  0.3850  0.3171
  244MOL    H8944315   3.591   4.439   4.151 -2.2391  1.0637 -1.1596
  244MOL    H9044316   3.566   4.424   4.332 -0.0740  0.8616 -0.4450
  244MOL    H9144317   3.629   4.291   4.228  1.6778  1.5407  4.3748
  244MOL    C9244318   3.409   4.191   4.344  0.4998 -0.2143 -0.1597
  244MOL    C9344319   3.289   4.100   4.331  0.2671  0.2953 -0.1921
  244MOL    C9444320   3.291   4.008   4.208 -0.1280  1.0752  1.4178
  244MOL    H9544321   3.495   4.124   4.340 -1.0621 -2.4294  1.9794
  244MOL    H9644322   3.404   4.224   4.448 -0.0352 -1.5409  0.2396
  244MOL    H9744323   3.194   4.154   4.334  0.1776  0.1197  0.1905
  244MOL    H9844324   3.213   3.933   4.222 -0.9996  1.5298 -0.8214
  244MOL    H9944325   3.261   4.054   4.114 -2.5898 -0.4217  1.4243
  244MOL   H10044326   3.385   3.952   4.205 -0.4756  0.5263 -0.4515
  244MOL   C10144327   3.277   4.003   4.455  0.3085  0.5223 -0.4802
  244MOL   C10244328   3.234   4.064   4.593  0.1232 -0.2415 -0.2490
  244MOL   C10344329   3.082   4.074   4.591  0.1037  0.2160  0.4633
  244MOL   H10444330   3.204   3.928   4.424  2.6446 -1.8097 -0.5163
  244MOL   H10544331   3.369   3.945   4.464 -0.0187  0.0164 -0.3369
  244MOL   H10644332   3.280   4.163   4.600  0.9550 -0.7920  2.5274
  244MOL   H10744333   3.039   3.975   4.574 -2.9272  1.3097  1.3653
  244MOL   H10844334   3.051   4.121   4.685  0.5900 -0.1842  0.8291
  244MOL   H10944335   3.054   4.139   4.508  0.9643  1.0882  0.8580
  244MOL   C11044336   3.289   3.993   4.712  0.0209  0.3127 -0.3426
  244MOL   C11144337   3.449   4.016   4.729  0.5448  0.1765  0.5136
  244MOL   C11244338   3.493   4.152   4.780 -0.3994 -0.7244  0.7088
  244MOL   H11344339   3.229   4.031   4.794  0.4241  0.2351 -0.0083
  244MOL   H11444340   3.271   3.888   4.693 -0.2418  0.6220 -1.9191
  244MOL   H11544341   3.497   3.996   4.633 -0.0693 -1.4057  0.5258
  244MOL   H11644342   3.493   4.229   4.704  1.0391  0.0789  1.4933
  244MOL   H11744343   3.427   4.191   4.858 -0.0265 -2.5409  1.9805
  244MOL   H11844344   3.588   4.145   4.833  0.1458  0.2685 -0.1306
  244MOL   C11944345   3.516   3.917   4.826  0.7252 -1.0012  0.4166
  244MOL   C12044346   3.502   3.766   4.794  0.3556 -0.1488 -0.0598
  244MOL   C12144347   3.549   3.712   4.657 -0.1267 -0.0762 -0.4803
  244MOL   H12244348   3.624   3.932   4.824  0.4690  0.7771 -1.9542
  244MOL   H12344349   3.477   3.929   4.927 -0.9926 -0.5528 -0.2891
  244MOL   H12444350   3.395   3.747   4.803  0.5210 -0.3182  1.7234
  244MOL   H12544351   3.637   3.770   4.629  0.0020  0.3809  0.8558
  244MOL   H12644352   3.571   3.605   4.652 -1.7398 -0.4614  0.4497
  244MOL   H12744353   3.486   3.745   4.575  0.1904  2.1703  0.1590
  244MOL   C12844354   3.567   3.686   4.908 -1.4046  0.1743 -0.0380
  244MOL   C12944355   3.542   3.528   4.910  0.0135 -0.3905  0.7541
  244MOL   C13044356   3.614   3.469   5.030 -0.1667  0.5921 -0.0550
  244MOL   H13144357   3.674   3.705   4.901 -0.8703 -2.7527 -0.2555
  244MOL   H13244358   3.528   3.724   5.003  0.2775  0.2323  0.6388
  244MOL   H13344359   3.588   3.484   4.821  2.0462  0.4773  1.3362
  244MOL   H13444360   3.618   3.361   5.011  0.8896  0.6836 -0.3953
  244MOL   H13544361   3.712   3.514   5.047  0.2441 -0.1620 -0.3961
  244MOL   H13644362   3.551   3.484   5.117  1.8730 -2.1521  1.9851
  244MOL   C13744363   3.398   3.492   4.916  0.4059  0.0095 -0.0341
  244MOL   C13844364   3.347   3.352   4.906 -0.4356  0.9816  0.3364
  244MOL   C13944365   3.201   3.338   4.959 -0.0795 -0.3299 -0.1622
  244MOL   H14044366   3.351   3.538   5.002  1.3055 -0.5005  0.7423
  244MOL   H14144367   3.346   3.525   4.826 -1.4822 -0.4616  0.8643
  244MOL   H14244368   3.402   3.296   4.981  0.0287  0.5421 -0.3307
  244MOL   H14344369   3.155   3.414   4.895  3.7100  1.1129 -1.3107
  244MOL   H14444370   3.154   3.243   4.935 -1.0512 -0.0731  0.6887
  244MOL   H14544371   3.186   3.357   5.066  0.7225  0.9721 -0.2577
  244MOL   C14644372   3.343   3.300   4.759 -0.5144  0.4402 -0.5146
  244MOL   C14744373   3.344   3.146   4.740  0.5465 -0.4258  1.4125
  244MOL   C14844374   3.330   3.105   4.596 -0.8272  0.4203  0.9766
  244MOL   H14944375   3.267   3.342   4.694  1.2512  2.4558 -1.3293
  244MOL   H15044376   3.429   3.342   4.707 -1.1557  1.1840 -0.9806
  244MOL   H15144377   3.249   3.101   4.772  1.6200 -5.5959 -2.1112
  244MOL   H15244378   3.245   3.154   4.548  0.2946 -0.2408 -1.8162
  244MOL   H15344379   3.427   3.134   4.554 -1.6876 -0.3457 -1.6399
  244MOL   H15444380   3.315   2.998   4.583 -0.6210  0.3751  1.1014
  244MOL   C15544381   3.462   3.064   4.806  0.3277 -0.2148  0.2247
  244MOL   C15644382   3.431   2.911   4.817 -0.2670 -0.2500  0.2320
  244MOL   C15744383   3.537   2.842   4.740 -0.1928  0.1202  0.3709
  244MOL   H15844384   3.560   3.080   4.761  0.8767 -2.1467  0.6926
  244MOL   H15944385   3.485   3.114   4.900  0.5347 -1.1372  0.6624
  244MOL   H16044386   3.331   2.890   4.779 -0.0881 -1.1978  0.2748
  244MOL   H16144387   3.530   2.869   4.635  4.7846 -1.1487 -0.4162
  244MOL   H16244388   3.640   2.860   4.767 -0.8472 -1.0463  3.9312
  244MOL   H16344389   3.524   2.734   4.749  2.1550 -0.1939  0.2657
  244MOL   C16444390   3.435   2.868   4.969 -0.6671  0.7377 -0.2572
  244MOL   C16544391   3.320   2.924   5.048 -1.3674 -0.5189 -0.1190
  244MOL   C16644392   3.200   2.840   5.036  0.2675 -0.3700 -0.1531
  244MOL   H16744393   3.445   2.759   4.973  0.3312  0.8311  0.1250
  244MOL   H16844394   3.522   2.903   5.025  0.3638 -0.5098 -1.0150
  244MOL   H16944395   3.289   3.022   5.013 -1.8321 -0.5873  0.1028
  244MOL   H17044396   3.152   2.826   4.939  0.3918 -0.3547 -0.2163
  244MOL   H17144397   3.224   2.738   5.065 -1.1738  0.1034  3.0131
  244MOL   H17244398   3.120   2.887   5.095  0.7212 -0.5465  0.6076
  244MOL   C17344399   3.353   2.939   5.195 -0.4362  0.4212 -0.5044
  244MOL   C17444400   3.412   3.076   5.225 -0.1203  0.2922 -0.6448
  244MOL   C17544401   3.437   3.084   5.374 -0.1112 -0.1283  0.9232
  244MOL   H17644402   3.263   2.932   5.257  0.0925 -1.3320  0.1191
  244MOL   H17744403   3.418   2.860   5.234  0.1092  0.5054 -1.2360
  244MOL   H17844404   3.342   3.151   5.189 -2.2969 -2.0372 -1.4147
  244MOL   H17944405   3.346   3.094   5.434  0.7756  1.1458  2.0876
  244MOL   H18044406   3.493   3.001   5.417  1.0324 -1.1912 -2.5113
  244MOL   H18144407   3.492   3.176   5.393  0.4230 -0.5472  1.4214
  244MOL   H18244408   3.510   3.078   5.176 -1.2457 -1.0455 -3.0482
  245MOL     C144409   6.501   4.489   4.162  0.4406  0.2536 -0.0516
  245MOL     C244410   6.614   4.558   4.245 -0.1674 -0.3975 -0.7564
  245MOL     C344411   6.741   4.553   4.170 -0.7891  0.4713  0.3128
  245MOL     H444412   6.425   4.447   4.228  0.9389 -1.1606 -0.3571
  245MOL     H544413   6.526   4.392   4.119 -0.5727 -1.5202  3.1914
  245MOL     H644414   6.630   4.506   4.339  0.2407  2.0636  0.5705
  245MOL     H744415   6.738   4.610   4.077  0.4236 -1.6796 -1.0930
  245MOL     H844416   6.832   4.586   4.220 -1.1141  1.5293  0.2289
  245MOL     H944417   6.774   4.453   4.144 -0.3592  0.8317 -0.5454
  245MOL    H1044418   6.451   4.559   4.095 -0.3750  1.7065  2.0165
  245MOL    C1144419   6.579   4.698   4.289 -0.4050  0.5640 -0.0496
  245MOL    C1244420   6.462   4.712   4.385 -0.8757 -0.1316  0.6205
  245MOL    C1344421   6.483   4.624   4.513  0.1227 -0.4122 -1.0491
  245MOL    H1444422   6.667   4.753   4.323  0.7078 -1.1856 -0.0596
  245MOL    H1544423   6.538   4.747   4.201  0.8418  1.1774 -0.3047
  245MOL    H1644424   6.374   4.675   4.334 -1.0871  1.5061 -0.2311
  245MOL    H1744425   6.578   4.632   4.566 -0.8321  2.2404  0.3532
  245MOL    H1844426   6.414   4.654   4.592  1.7435  0.8626 -0.0609
  245MOL    H1944427   6.461   4.518   4.505  0.9544 -0.8362  1.6139
  245MOL    C2044428   6.456   4.855   4.429  0.3907 -0.1027 -0.2830
  245MOL    C2144429   6.314   4.894   4.470 -0.1564 -0.6428 -0.0977
  245MOL    C2244430   6.302   5.031   4.548  0.8858 -0.3532  0.5079
  245MOL    H2344431   6.526   4.874   4.509  0.7396 -0.0434 -0.6016
  245MOL    H2444432   6.488   4.930   4.357 -2.9937  0.4434 -1.3470
  245MOL    H2544433   6.283   4.820   4.543  0.6455 -0.0016  0.9100
  245MOL    H2644434   6.203   5.071   4.571  2.2531  3.3534  0.3152
  245MOL    H2744435   6.346   5.011   4.646  2.0857 -0.2988 -0.0131
  245MOL    H2844436   6.363   5.114   4.513  0.4674 -0.5052 -0.6101
  245MOL    C2944437   6.223   4.901   4.346  0.6957 -0.0246 -0.0985
  245MOL    C3044438   6.105   4.797   4.335  0.3009  1.1094 -0.3756
  245MOL    C3144439   5.989   4.826   4.436 -0.4402 -0.4912  0.2569
  245MOL    H3244440   6.177   5.000   4.347  1.3038  0.2512  1.1182
  245MOL    H3344441   6.278   4.907   4.252  0.3537  0.2171 -0.2877
  245MOL    H3444442   6.152   4.699   4.347 -2.0065 -0.1169 -1.0762
  245MOL    H3544443   5.962   4.929   4.416  3.0206  1.2427  3.8381
  245MOL    H3644444   5.902   4.762   4.422 -0.4987 -0.4625  0.4870
  245MOL    H3744445   6.012   4.805   4.541  0.1962  0.7430  0.3710
  245MOL    C3844446   6.039   4.791   4.191  0.1061  0.7576  0.5003
  245MOL    C3944447   6.131   4.753   4.071  0.2757 -0.8202  0.2735
  245MOL    C4044448   6.156   4.600   4.071 -0.2304  0.5962 -0.1481
  245MOL    H4144449   5.950   4.729   4.194  0.2991  0.5185  2.0274
  245MOL    H4244450   6.012   4.894   4.168  1.5060  1.4047  1.6285
  245MOL    H4344451   6.226   4.803   4.093  0.5026 -0.6788 -1.0160
  245MOL    H4444452   6.189   4.556   4.165 -0.0509  0.1561 -0.4117
  245MOL    H4544453   6.063   4.548   4.049  0.5237 -0.6917 -0.3161
  245MOL    H4644454   6.236   4.576   4.000 -1.9348 -0.3486 -1.7750
  245MOL    C4744455   6.087   4.800   3.928 -0.5786  0.2924  0.8597
  245MOL    C4844456   6.179   4.759   3.802 -0.9820  0.0158 -0.1024
  245MOL    C4944457   6.126   4.817   3.668  0.2082  0.4346  1.2263
  245MOL    H5044458   5.981   4.776   3.919 -0.3373 -0.4607 -0.0455
  245MOL    H5144459   6.090   4.909   3.934  0.6956  0.3470 -0.5494
  245MOL    H5244460   6.160   4.652   3.800 -0.9433  0.0226 -1.0541
  245MOL    H5344461   6.141   4.922   3.641 -2.9973  0.9350  1.1516
  245MOL    H5444462   6.169   4.761   3.585 -0.0190  0.6922  0.9327
  245MOL    H5544463   6.018   4.803   3.662  0.2830  0.6331 -0.8237
  245MOL    C5644464   6.330   4.776   3.821  0.2350 -1.0087 -0.7957
  245MOL    C5744465   6.435   4.715   3.722  0.0570 -0.3547  0.2430
  245MOL    C5844466   6.577   4.777   3.726 -0.0380  0.6601 -0.4749
  245MOL    H5944467   6.342   4.884   3.825 -1.7536 -0.7883  0.0784
  245MOL    H6044468   6.359   4.739   3.919  2.2730 -3.7651 -2.3894
  245MOL    H6144469   6.390   4.728   3.623  2.4383  1.4224 -0.6481
  245MOL    H6244470   6.631   4.762   3.820 -1.7361 -0.8421  0.2764
  245MOL    H6344471   6.634   4.749   3.637  0.4095 -0.3151  0.1124
  245MOL    H6444472   6.559   4.883   3.703  0.7937  0.4731 -2.0441
  245MOL    C6544473   6.453   4.559   3.737  0.2768  0.4326 -0.3050
  245MOL    C6644474   6.524   4.480   3.618  0.5978  0.4626  0.0802
  245MOL    C6744475   6.550   4.335   3.665  0.0913  0.1620  0.1576
  245MOL    H6844476   6.516   4.544   3.824 -0.9986  3.9162  1.3113
  245MOL    H6944477   6.358   4.506   3.744 -1.3370  2.8080 -2.9834
  245MOL    H7044478   6.625   4.522   3.618  1.0899 -0.6914 -0.8884
  245MOL    H7144479   6.615   4.318   3.750 -3.0479  2.1621  3.0639
  245MOL    H7244480   6.457   4.281   3.685  1.4461 -2.1059  0.5518
  245MOL    H7344481   6.612   4.286   3.590  2.4346 -0.3343  2.3403
  245MOL    C7444482   6.427   4.487   3.490  0.0186 -0.2600 -0.1422
  245MOL    C7544483   6.498   4.456   3.353  0.8052 -0.6464 -0.2592
  245MOL    C7644484   6.387   4.398   3.262 -0.2268  0.1771  0.4741
  245MOL    H7744485   6.346   4.419   3.516  0.4664  0.0523  2.2517
  245MOL    H7844486   6.378   4.584   3.484  0.2518 -0.1317  0.0025
  245MOL    H7944487   6.565   4.371   3.368  1.8216  0.0677 -0.6788
  245MOL    H8044488   6.328   4.314   3.297 -1.7891  0.9889 -0.1700
  245MOL    H8144489   6.327   4.475   3.214 -0.0412 -0.9437 -1.6127
  245MOL    H8244490   6.428   4.356   3.170 -2.2974 -2.2093  0.5933
  245MOL    C8344491   6.572   4.574   3.286  0.1998 -0.5250 -0.5499
  245MOL    C8444492   6.622   4.553   3.139  0.3936  0.0220  0.3591
  245MOL    C8544493   6.681   4.684   3.085 -0.4647 -0.8360 -0.3025
  245MOL    H8644494   6.515   4.666   3.295 -0.7614 -1.2313  0.8110
  245MOL    H8744495   6.662   4.577   3.346  0.7022 -1.5663 -1.2317
  245MOL    H8844496   6.536   4.537   3.074  0.2532 -0.1034  0.5704
  245MOL    H8944497   6.771   4.719   3.136  0.0625 -1.4978 -0.7736
  245MOL    H9044498   6.706   4.677   2.979  1.5875  1.6818 -0.0335
  245MOL    H9144499   6.606   4.763   3.090  1.2130  0.8495 -1.2758
  245MOL    C9244500   6.710   4.431   3.121 -0.3848 -0.1739  0.5427
  245MOL    C9344501   6.847   4.444   3.196 -0.6732 -0.6451 -0.8880
  245MOL    C9444502   6.869   4.323   3.291  0.1935  0.0685 -0.1319
  245MOL    H9544503   6.660   4.339   3.150  0.8826 -1.9195 -2.5535
  245MOL    H9644504   6.732   4.416   3.015 -0.6385  0.4337  0.4061
  245MOL    H9744505   6.855   4.529   3.264 -1.1320 -2.3099  1.2770
  245MOL    H9844506   6.970   4.324   3.332  0.5265 -1.8402 -0.8248
  245MOL    H9944507   6.798   4.321   3.373  0.8533 -0.1284  0.4437
  245MOL   H10044508   6.854   4.224   3.248  0.9162 -0.4302  0.7313
  245MOL   C10144509   6.955   4.463   3.093  0.3590 -0.5937 -0.1966
  245MOL   C10244510   7.103   4.471   3.131  0.1413 -0.1007 -0.7278
  245MOL   C10344511   7.195   4.451   3.005 -0.4376  0.0152  0.1234
  245MOL   H10444512   6.942   4.377   3.028 -0.2940 -1.1652  0.6742
  245MOL   H10544513   6.930   4.549   3.031 -2.6553 -2.2777 -1.4030
  245MOL   H10644514   7.122   4.384   3.194  0.5829  0.3005 -0.3047
  245MOL   H10744515   7.178   4.531   2.932 -2.5538  1.4789  2.1668
  245MOL   H10844516   7.301   4.450   3.031  0.3288 -1.0416 -2.7724
  245MOL   H10944517   7.178   4.360   2.947 -0.4889  1.5093 -2.2707
  245MOL   C11044518   7.127   4.605   3.211 -0.4931  0.8061 -0.0550
  245MOL   C11144519   7.270   4.632   3.270  0.1181 -0.2212 -0.6012
  245MOL   C11244520   7.303   4.782   3.288 -0.3769 -0.0338 -0.2520
  245MOL   H11344521   7.093   4.687   3.148  1.0920  1.7557  0.2798
  245MOL   H11444522   7.063   4.607   3.298 -1.3454  0.8078 -0.6748
  245MOL   H11544523   7.342   4.606   3.192 -0.8022 -1.7872 -0.9603
  245MOL   H11644524   7.282   4.832   3.194 -1.7877  0.0897  0.1125
  245MOL   H11744525   7.245   4.823   3.372 -0.8918  3.2043 -2.0875
  245MOL   H11844526   7.406   4.811   3.305 -0.0630  0.2037 -2.4603
  245MOL   C11944527   7.302   4.536   3.392  0.0671  0.0047  0.0531
  245MOL   C12044528   7.451   4.524   3.442 -0.1840  0.0439  1.4811
  245MOL   C12144529   7.437   4.450   3.577 -0.2123  0.9612  0.1773
  245MOL   H12244530   7.261   4.580   3.483  0.6619  1.8608 -0.5635
  245MOL   H12344531   7.242   4.445   3.380 -2.2316  1.4373  0.3809
  245MOL   H12444532   7.503   4.620   3.437 -1.1623  0.5753  1.4126
  245MOL   H12544533   7.429   4.341   3.576  0.0132  0.9413  0.3312
  245MOL   H12644534   7.513   4.478   3.649 -0.6143 -0.7044  1.2787
  245MOL   H12744535   7.346   4.478   3.630 -1.3857 -0.2852 -1.1378
  245MOL   C12844536   7.529   4.426   3.352 -0.9691 -0.2677 -0.3286
  245MOL   C12944537   7.674   4.391   3.397  0.2849 -0.0709  0.1256
  245MOL   C13044538   0.033   4.267   3.312  0.2834 -0.0942  0.4366
  245MOL   H13144539   7.482   4.327   3.345 -0.8187 -0.3738  0.1402
  245MOL   H13244540   7.541   4.459   3.249  4.7920 -0.4745  0.1207
  245MOL   H13344541   7.669   4.355   3.500  0.9404  1.3078  0.6482
  245MOL   H13444542   0.050   4.297   3.208 -3.1563 -2.4126 -0.8734
  245MOL   H13544543   0.133   4.239   3.343  0.9315 -0.1495 -1.6235
  245MOL   H13644544   7.676   4.173   3.316  0.5236 -0.2235  0.6546
  245MOL   C13744545   0.068   4.512   3.386 -0.6579  0.6304  0.3430
  245MOL   C13844546   0.079   4.603   3.509  0.1026  0.4104  0.6960
  245MOL   C13944547   0.154   4.528   3.619 -0.2277 -0.5613 -0.5585
  245MOL   H14044548   0.167   4.486   3.350 -0.4713  2.0800 -0.2132
  245MOL   H14144549   0.024   4.569   3.304 -2.1760 -1.5609 -0.4285
  245MOL   H14244550   7.681   4.622   3.557  0.0583  0.0563  0.7538
  245MOL   H14344551   0.223   4.588   3.678 -0.6795 -0.2969 -0.2973
  245MOL   H14444552   0.085   4.482   3.689 -2.7725  2.2564 -1.0856
  245MOL   H14544553   0.228   4.462   3.576  0.5909 -0.7527  1.1003
  245MOL   C14644554   0.154   4.738   3.482 -0.4119  0.5646  0.0048
  245MOL   C14744555   0.080   4.841   3.397  0.0331 -0.4451  0.3995
  245MOL   C14844556   7.655   4.879   3.477 -0.1428 -0.0353  1.2592
  245MOL   H14944557   0.161   4.795   3.575  0.8311  2.0942 -0.9928
  245MOL   H15044558   0.259   4.725   3.454  0.2003  2.4835  1.2983
  245MOL   H15144559   0.057   4.790   3.303  2.6311 -1.4027  0.2331
  245MOL   H15244560   7.594   4.952   3.423 -1.3135 -1.3838  0.7246
  245MOL   H15344561   7.584   4.801   3.503 -0.8399  0.2368  0.1907
  245MOL   H15444562   7.679   4.927   3.572  2.2901  0.9046  0.2063
  245MOL   C15544563   0.176   4.953   3.353  0.0267 -0.1988  0.1988
  245MOL   C15644564   0.108   5.072   3.280 -0.3392  0.2318  0.3395
  245MOL   C15744565   0.222   5.174   3.253 -0.2977 -0.8063 -0.1804
  245MOL   H15844566   0.227   4.991   3.441  1.0114 -0.3953 -0.2881
  245MOL   H15944567   0.255   4.905   3.296 -0.6922 -2.8671  1.3623
  245MOL   H16044568   0.037   5.111   3.353 -0.4018  0.0748  0.3616
  245MOL   H16144569   0.184   5.274   3.232  0.4255 -0.3332  0.7624
  245MOL   H16244570   0.278   5.178   3.346 -2.3903  0.5700  1.0533
  245MOL   H16344571   0.296   5.142   3.179 -1.3862  1.9335 -2.5580
  245MOL   C16444572   0.040   5.024   3.147 -0.0729 -0.3643  0.1737
  245MOL   C16544573   7.672   5.134   3.062 -0.1005 -0.2154 -0.6427
  245MOL   C16644574   7.671   5.096   2.916  0.9302  0.1280  0.6623
  245MOL   H16744575   0.121   4.979   3.089  0.8998  0.1909  1.0781
  245MOL   H16844576   7.672   4.938   3.159 -1.8257  1.0553  0.9443
  245MOL   H16944577   0.034   5.224   3.077 -1.4606  0.8042 -1.2869
  245MOL   H17044578   0.070   5.092   2.865  1.0018 -0.5668  0.8512
  245MOL   H17144579   7.638   4.994   2.898  0.2444  0.8151 -2.3540
  245MOL   H17244580   7.611   5.163   2.855 -0.2550  0.0894  1.7696
  245MOL   C17344581   7.532   5.180   3.123  0.0517 -0.1228  0.3984
  245MOL   C17444582   7.476   5.305   3.055 -0.0742 -0.0346  0.5659
  245MOL   C17544583   7.335   5.332   3.112 -0.4630  0.2192  0.0895
  245MOL   H17644584   7.458   5.100   3.127  0.0522 -0.0408  2.4592
  245MOL   H17744585   7.547   5.217   3.225 -0.9936 -1.6156  1.1160
  245MOL   H17844586   7.474   5.285   2.948 -3.1043  0.4404  0.4952
  245MOL   H17944587   7.280   5.383   3.033 -3.1881 -1.1483  1.0175
  245MOL   H18044588   7.274   5.244   3.132  1.3324 -0.9545  0.5096
  245MOL   H18144589   7.325   5.398   3.199 -2.6548  0.3515 -0.2301
  245MOL   H18244590   7.548   5.386   3.072  2.1056 -1.7392 -0.3323
  246MOL     C144591   4.399   1.909   2.735 -0.1073 -0.0749  0.2583
  246MOL     C244592   4.389   2.019   2.628 -0.3002 -0.9076  0.6100
  246MOL     C344593   4.478   2.137   2.675 -0.1123 -0.6298 -0.0306
  246MOL     H444594   4.504   1.882   2.749  0.4420  1.1213 -1.4097
  246MOL     H544595   4.337   1.826   2.704  1.9056 -1.5042 -0.0127
  246MOL     H644596   4.286   2.055   2.633 -0.1815 -0.5282  0.3695
  246MOL     H744597   4.579   2.100   2.695  1.2549  2.0641 -1.6495
  246MOL     H844598   4.494   2.199   2.587  2.7869 -0.9065  0.2470
  246MOL     H944599   4.440   2.197   2.757  2.2158  0.3488  0.3764
  246MOL    H1044600   4.369   1.945   2.834  1.4169 -0.8458  1.0272
  246MOL    C1144601   4.444   1.966   2.494 -0.1098  0.4857  0.0192
  246MOL    C1244602   4.392   1.830   2.444 -0.2989  0.1621  1.0670
  246MOL    C1344603   4.235   1.821   2.446  0.0326 -0.4706 -0.1553
  246MOL    H1444604   4.434   2.043   2.418  0.6879 -0.1995 -0.7791
  246MOL    H1544605   4.552   1.964   2.510 -0.0890 -0.9171 -0.2752
  246MOL    H1644606   4.431   1.757   2.515  1.0544  2.4400  2.6941
  246MOL    H1744607   4.208   1.720   2.476 -1.3986  0.5783  2.2069
  246MOL    H1844608   4.176   1.894   2.500 -0.6573  1.2876 -3.1686
  246MOL    H1944609   4.199   1.845   2.346  2.1550  0.2846 -0.7783
  246MOL    C2044610   4.462   1.803   2.308 -0.1146  0.5445 -0.1494
  246MOL    C2144611   4.456   1.651   2.254  0.1573  0.2371  0.7658
  246MOL    C2244612   4.411   1.636   2.097 -0.0551 -0.3061 -0.2370
  246MOL    H2344613   4.407   1.865   2.237  0.9083  0.4651 -1.0162
  246MOL    H2444614   4.558   1.853   2.299  0.4926 -0.6791 -0.5012
  246MOL    H2544615   4.378   1.596   2.306  0.0570  0.4592  0.8512
  246MOL    H2644616   4.312   1.674   2.072  0.7490  2.5259  0.6191
  246MOL    H2744617   4.483   1.682   2.029  0.4969  2.7137  2.2711
  246MOL    H2844618   4.416   1.530   2.075  3.5625 -0.5663  1.4089
  246MOL    C2944619   4.583   1.571   2.273 -0.0311 -0.6287 -0.8243
  246MOL    C3044620   4.625   1.542   2.414  0.2467 -0.1429  0.4390
  246MOL    C3144621   4.533   1.446   2.480 -0.0517 -0.7822  0.0494
  246MOL    H3244622   4.578   1.475   2.221  0.0450 -1.6300  0.9939
  246MOL    H3344623   4.671   1.612   2.222  0.3392  0.8672  0.9897
  246MOL    H3444624   4.614   1.637   2.466  4.3796  1.0457 -0.6798
  246MOL    H3544625   4.433   1.488   2.482  0.1412 -0.2493 -1.1943
  246MOL    H3644626   4.519   1.354   2.424 -0.4888 -0.4821 -0.3403
  246MOL    H3744627   4.561   1.418   2.582 -0.1241 -1.6969 -0.1812
  246MOL    C3844628   4.778   1.497   2.429 -0.9235  0.2778  0.7962
  246MOL    C3944629   4.832   1.509   2.577  0.9869 -0.1526 -0.0414
  246MOL    C4044630   4.893   1.380   2.617  0.2140 -0.0198  0.1687
  246MOL    H4144631   4.796   1.400   2.385  2.2540  0.2265  2.1222
  246MOL    H4244632   4.829   1.559   2.355  0.5700 -2.0806 -0.1718
  246MOL    H4344633   4.750   1.532   2.645  0.4367 -2.3207  0.0815
  246MOL    H4444634   4.971   1.348   2.547  0.0131 -2.1058  0.8929
  246MOL    H4544635   4.927   1.386   2.720  0.8787  3.2353 -0.1616
  246MOL    H4644636   4.821   1.300   2.600  0.2204 -0.0900  0.4842
  246MOL    C4744637   4.932   1.630   2.582  0.2637 -0.2336  0.3611
  246MOL    C4844638   4.875   1.769   2.552 -0.1811  0.0528  0.4433
  246MOL    C4944639   4.816   1.823   2.680  0.1910 -0.2297  0.4691
  246MOL    H5044640   4.966   1.630   2.685  4.0606 -2.0466 -0.7990
  246MOL    H5144641   5.017   1.600   2.520 -1.0953 -0.3745 -1.4710
  246MOL    H5244642   4.791   1.766   2.484 -0.0024 -2.1796  0.3052
  246MOL    H5344643   4.873   1.844   2.770 -1.8715  0.1814  1.6955
  246MOL    H5444644   4.763   1.916   2.659  2.2492  1.1460  1.2457
  246MOL    H5544645   4.736   1.756   2.710  0.4505 -0.3254  0.9565
  246MOL    C5644646   4.985   1.857   2.476 -0.2459  0.2779  0.0403
  246MOL    C5744647   5.011   1.811   2.329  0.4698  0.2193  0.4566
  246MOL    C5844648   4.892   1.863   2.239 -0.1792 -1.2141 -0.5302
  246MOL    H5944649   4.943   1.958   2.467 -0.4055  0.1910 -0.2012
  246MOL    H6044650   5.072   1.857   2.541  0.9541 -1.4936 -1.5250
  246MOL    H6144651   5.009   1.702   2.330  0.8982  0.1696 -2.0592
  246MOL    H6244652   4.895   1.827   2.136 -0.7544 -0.8019 -0.6937
  246MOL    H6344653   4.792   1.853   2.281 -0.4336  1.7590 -0.3751
  246MOL    H6444654   4.903   1.971   2.239 -2.5622 -0.9475 -0.7210
  246MOL    C6544655   5.153   1.856   2.275  0.0593 -0.1927 -0.2285
  246MOL    C6644656   5.193   1.839   2.118 -0.7641 -0.4461 -0.7773
  246MOL    C6744657   5.331   1.918   2.082 -0.0119  0.5710 -0.2201
  246MOL    H6844658   5.143   1.964   2.283 -1.0334 -0.3725  1.1042
  246MOL    H6944659   5.230   1.828   2.346  1.9063 -0.4375 -2.2856
  246MOL    H7044660   5.122   1.901   2.063 -1.2568 -0.9096 -0.6572
  246MOL    H7144661   5.414   1.867   2.131  1.0390  0.4209 -2.1050
  246MOL    H7244662   5.361   1.917   1.977 -2.6942 -2.1383 -1.0203
  246MOL    H7344663   5.333   2.023   2.110 -1.3108  0.5786 -0.1409
  246MOL    C7444664   5.190   1.689   2.071  0.1888  0.1495  0.0045
  246MOL    C7544665   5.220   1.657   1.920 -0.4408 -0.5251  0.6037
  246MOL    C7644666   5.195   1.512   1.891  0.7369 -0.0484 -0.0340
  246MOL    H7744667   5.267   1.633   2.126 -0.1801  0.3998  0.7929
  246MOL    H7844668   5.098   1.646   2.110 -0.5378 -0.0435 -1.9199
  246MOL    H7944669   5.327   1.676   1.911 -0.8610  0.3816 -3.2636
  246MOL    H8044670   5.254   1.443   1.951 -0.8640 -1.9980 -0.6492
  246MOL    H8144671   5.092   1.479   1.907  1.1664 -1.0925  0.6156
  246MOL    H8244672   5.202   1.487   1.785 -0.2301 -2.6584  0.4809
  246MOL    C8344673   5.169   1.757   1.812  0.2070  0.7010  0.3419
  246MOL    C8444674   5.031   1.746   1.756  0.3927  0.6541  0.6777
  246MOL    C8544675   4.923   1.772   1.860  0.1499 -0.2459 -0.1812
  246MOL    H8644676   5.184   1.861   1.842 -2.7805  1.9629 -2.2311
  246MOL    H8744677   5.246   1.756   1.735  1.3291  2.1886  1.4172
  246MOL    H8844678   5.012   1.645   1.719 -1.3023  0.8372  0.9948
  246MOL    H8944679   4.911   1.694   1.935  1.9870  0.9641  1.4100
  246MOL    H9044680   4.935   1.871   1.905  0.3445 -0.4138  0.1300
  246MOL    H9144681   4.828   1.771   1.805  1.0972 -2.3154 -1.8335
  246MOL    C9244682   5.014   1.842   1.645 -0.6643 -0.3905  0.1361
  246MOL    C9344683   5.098   1.814   1.516 -0.1221 -0.3450 -0.5050
  246MOL    C9444684   5.061   1.690   1.438  0.4557 -0.1254 -0.3247
  246MOL    H9544685   4.910   1.860   1.620 -0.3948  2.3567  0.9096
  246MOL    H9644686   5.034   1.943   1.679 -0.9815  0.3646 -1.8283
  246MOL    H9744687   5.204   1.794   1.530 -0.1651 -0.1691  0.0664
  246MOL    H9844688   5.146   1.663   1.375  0.8245 -1.7401  0.8187
  246MOL    H9944689   5.039   1.609   1.508 -0.3742  1.5827  1.4143
  246MOL   H10044690   4.973   1.694   1.375 -0.8653  1.0923  1.5448
  246MOL   C10144691   5.071   1.931   1.420 -0.3737  0.6604 -0.3240
  246MOL   C10244692   5.148   2.063   1.450 -0.6155 -0.3115 -0.3442
  246MOL   C10344693   5.304   2.043   1.419 -0.3629  0.3760 -0.3438
  246MOL   H10444694   5.116   1.889   1.330 -0.1051 -1.6495  0.8418
  246MOL   H10544695   4.966   1.946   1.399 -0.0758  1.9800 -0.9007
  246MOL   H10644696   5.141   2.084   1.557  0.6438  3.5943 -0.9558
  246MOL   H10744697   5.356   2.138   1.425 -0.1750  0.2203  0.5647
  246MOL   H10844698   5.344   1.986   1.503 -0.8241  0.2965 -0.1715
  246MOL   H10944699   5.314   1.984   1.327  2.0471 -0.4163  0.4057
  246MOL   C11044700   5.097   2.191   1.385  0.1050 -0.6859  0.3057
  246MOL   C11144701   4.947   2.216   1.419 -0.3822  0.2042  0.2708
  246MOL   C11244702   4.929   2.344   1.502 -0.2543  0.3300 -0.1105
  246MOL   H11344703   5.150   2.282   1.412 -1.0799  0.3548 -0.8073
  246MOL   H11444704   5.118   2.172   1.280 -5.2561  0.0404 -1.0595
  246MOL   H11544705   4.912   2.141   1.490 -2.1751 -0.7582 -1.5731
  246MOL   H11644706   4.925   2.430   1.436 -0.6961  0.7412  0.4366
  246MOL   H11744707   4.839   2.341   1.565  1.0040  0.6969  1.7576
  246MOL   H11844708   5.013   2.361   1.570 -0.9956  1.2949  0.5999
  246MOL   C11944709   4.856   2.201   1.301 -0.2702  0.0662  0.3495
  246MOL   C12044710   4.708   2.200   1.324 -0.6102  0.0532  0.3784
  246MOL   C12144711   4.633   2.226   1.193  0.7912  0.5232  0.0354
  246MOL   H12244712   4.875   2.285   1.234  1.5504  0.0983  0.8850
  246MOL   H12344713   4.889   2.116   1.241  0.1410  1.3631 -1.2904
  246MOL   H12444714   4.678   2.280   1.393  1.3064  0.3668  0.8687
  246MOL   H12544715   4.660   2.152   1.118 -1.7568  0.6221 -1.0335
  246MOL   H12644716   4.524   2.233   1.203  0.8171 -0.6664  1.4161
  246MOL   H12744717   4.650   2.325   1.152  0.6937  0.6028  0.1839
  246MOL   C12844718   4.674   2.065   1.386  0.1053  1.0870  0.0292
  246MOL   C12944719   4.591   2.077   1.513 -0.5762  0.6296  0.0260
  246MOL   C13044720   4.461   2.154   1.498  0.0063  0.3444 -0.5264
  246MOL   H13144721   4.629   2.006   1.306 -4.4828  2.1993  1.6817
  246MOL   H13244722   4.762   2.007   1.415 -1.3459 -0.0573  2.2441
  246MOL   H13344723   4.653   2.142   1.575 -0.7264  0.6661  0.1386
  246MOL   H13444724   4.458   2.246   1.440 -1.2880  0.9915  0.5416
  246MOL   H13544725   4.375   2.093   1.471  0.3313 -0.4618  0.1984
  246MOL   H13644726   4.430   2.192   1.596 -1.3717  0.1816 -0.8986
  246MOL   C13744727   4.562   1.943   1.577 -0.6793  0.1564  0.4162
  246MOL   C13844728   4.524   1.950   1.721 -0.3519  0.1515  0.2155
  246MOL   C13944729   4.456   1.820   1.762  0.1224 -0.2375  0.7427
  246MOL   H14044730   4.493   1.895   1.507  1.5905 -1.1900 -0.9869
  246MOL   H14144731   4.652   1.881   1.578 -1.0938 -0.4459  0.5177
  246MOL   H14244732   4.446   2.026   1.725  0.2241  0.7980 -0.5238
  246MOL   H14344733   4.423   1.828   1.865  0.6978 -0.9742  0.9870
  246MOL   H14444734   4.373   1.794   1.696  0.0404  3.9120 -0.9753
  246MOL   H14544735   4.532   1.742   1.763 -1.0588 -1.4038  1.5979
  246MOL   C14644736   4.642   1.994   1.812  0.0055 -0.3846  0.2809
  246MOL   C14744737   4.618   2.126   1.890 -0.9646  0.0028 -0.2107
  246MOL   C14844738   4.501   2.104   1.986 -0.3300 -0.2874  0.1683
  246MOL   H14944739   4.667   1.916   1.884 -0.1358  0.3383  1.1254
  246MOL   H15044740   4.738   2.010   1.763 -0.0156 -0.2336  0.2870
  246MOL   H15144741   4.595   2.202   1.815  2.4133  1.4466  0.1304
  246MOL   H15244742   4.405   2.100   1.935 -0.4756 -0.7666  0.4778
  246MOL   H15344743   4.525   2.014   2.042  0.4721  2.3433  4.2405
  246MOL   H15444744   4.486   2.187   2.055  2.5132  0.4450 -0.0467
  246MOL   C15544745   4.749   2.168   1.972 -1.0968 -0.2594  0.0284
  246MOL   C15644746   4.858   2.235   1.892  0.3167 -0.0834 -0.2034
  246MOL   C15744747   4.816   2.368   1.836 -0.6911 -0.1822 -0.0863
  246MOL   H15844748   4.711   2.228   2.054  0.3331  2.0622 -0.9472
  246MOL   H15944749   4.788   2.079   2.021  0.2936  1.0353  1.2963
  246MOL   H16044750   4.881   2.162   1.814  0.0188  1.1679 -1.4878
  246MOL   H16144751   4.722   2.359   1.781 -0.2424 -1.1530 -0.6971
  246MOL   H16244752   4.798   2.442   1.915  0.3096 -0.6261  0.5651
  246MOL   H16344753   4.887   2.415   1.768 -1.6838 -2.4752 -2.7767
  246MOL   C16444754   4.977   2.256   1.980 -0.8335 -0.2835  0.5568
  246MOL   C16544755   5.112   2.315   1.929  1.1111 -0.2664 -0.2932
  246MOL   C16644756   5.207   2.364   2.041  0.0811  0.0912 -0.9639
  246MOL   H16744757   4.955   2.321   2.065 -0.4731  2.1217 -1.1215
  246MOL   H16844758   4.999   2.166   2.037  1.3681  0.1282  0.4241
  246MOL   H16944759   5.085   2.400   1.866  0.2897 -1.0896 -1.0608
  246MOL   H17044760   5.301   2.393   1.995  0.3947  2.1935  0.9285
  246MOL   H17144761   5.171   2.456   2.087  0.3798  0.6649 -1.8622
  246MOL   H17244762   5.234   2.285   2.110 -1.2933  0.1463 -0.3309
  246MOL   C17344763   5.177   2.204   1.835  0.2275 -0.7884  0.4559
  246MOL   C17444764   5.323   2.228   1.795  0.0132 -0.0967  0.5245
  246MOL   C17544765   5.337   2.347   1.696 -0.4109 -1.1334 -0.4944
  246MOL   H17644766   5.182   2.108   1.885  0.5601 -0.7158  0.5638
  246MOL   H17744767   5.111   2.180   1.751 -0.8058  1.0893  0.6901
  246MOL   H17844768   5.335   2.144   1.727 -3.6649  1.5876 -2.3977
  246MOL   H17944769   5.433   2.343   1.645 -0.7639 -2.4642 -1.0925
  246MOL   H18044770   5.267   2.344   1.613  1.0440 -2.1975 -1.7037
  246MOL   H18144771   5.316   2.441   1.746 -3.9126 -1.4640 -1.2374
  246MOL   H18244772   5.396   2.225   1.876  2.0604 -2.4967 -1.3471
  247MOL     C144773   2.759   5.270   3.767  0.4390  0.2694  0.5540
  247MOL     C244774   2.873   5.216   3.854  0.5830 -0.2589 -0.3794
  247MOL     C344775   3.010   5.280   3.817 -0.1854 -0.1688  1.0321
  247MOL     H444776   2.664   5.236   3.809  0.2039  0.0088 -0.1733
  247MOL     H544777   2.747   5.222   3.670  1.8491 -1.0448  1.0140
  247MOL     H644778   2.881   5.108   3.841 -0.0092 -0.2733 -0.6042
  247MOL     H744779   3.007   5.388   3.827 -0.2955 -0.2478  1.8901
  247MOL     H844780   3.089   5.227   3.870  1.3325  1.2153  0.1859
  247MOL     H944781   3.040   5.276   3.712  2.1355  1.0100  1.6192
  247MOL    H1044782   2.760   5.379   3.765 -1.4565  0.3279  1.4330
  247MOL    C1144783   2.851   5.262   3.996  0.2887 -0.0897  0.5745
  247MOL    C1244784   2.721   5.210   4.060  0.3939 -0.0123 -0.5557
  247MOL    C1344785   2.687   5.059   4.036  0.6724 -0.5774  0.4467
  247MOL    H1444786   2.944   5.240   4.049 -1.4348 -4.1680  2.1289
  247MOL    H1544787   2.848   5.371   3.994  0.2214 -0.1068 -0.7363
  247MOL    H1644788   2.631   5.247   4.011 -1.5137 -3.1063  0.4806
  247MOL    H1744789   2.659   5.048   3.931  1.7369  0.4696  0.0452
  247MOL    H1844790   2.770   4.996   4.069 -0.1510 -1.6436  0.5307
  247MOL    H1944791   2.593   5.042   4.088  1.1876 -2.1427  0.9050
  247MOL    C2044792   2.720   5.238   4.211 -0.0907 -0.3179 -0.5431
  247MOL    C2144793   2.743   5.386   4.261  0.4132  0.5358  0.5151
  247MOL    C2244794   2.611   5.463   4.275  0.8990 -0.7991  0.0307
  247MOL    H2344795   2.617   5.215   4.238 -0.3467  0.5469 -0.7624
  247MOL    H2444796   2.760   5.157   4.271  1.2744  1.3634  0.8431
  247MOL    H2544797   2.812   5.427   4.187 -0.9980 -1.5436 -2.0133
  247MOL    H2644798   2.551   5.468   4.184  1.8881  0.3207 -0.5804
  247MOL    H2744799   2.551   5.408   4.347 -0.8416  1.5893  0.4747
  247MOL    H2844800   2.619   5.569   4.302 -0.1506 -0.1729 -2.0065
  247MOL    C2944801   2.810   5.370   4.397 -0.0150  0.2116 -0.2113
  247MOL    C3044802   2.860   5.506   4.455 -0.2692 -0.9238 -0.0131
  247MOL    C3144803   2.935   5.492   4.588  0.4479  0.0136 -0.1060
  247MOL    H3244804   2.750   5.333   4.480 -0.5920  0.3184 -0.5843
  247MOL    H3344805   2.897   5.305   4.399  0.2797  0.5347 -1.9671
  247MOL    H3444806   2.775   5.570   4.479 -0.2632 -0.9489  0.0756
  247MOL    H3544807   2.883   5.423   4.655  0.0578  3.2963  3.1410
  247MOL    H3644808   3.029   5.445   4.558  0.3735 -0.8708  1.0149
  247MOL    H3744809   2.959   5.575   4.654 -1.2014  0.4050  0.0147
  247MOL    C3844810   2.946   5.585   4.348  0.7914 -0.2736  0.4394
  247MOL    C3944811   2.988   5.726   4.399 -0.3634 -0.0182  0.2959
  247MOL    C4044812   3.069   5.787   4.287  0.0383  0.8954 -0.5127
  247MOL    H4144813   3.033   5.526   4.320  0.8735  0.3794 -0.7163
  247MOL    H4244814   2.883   5.591   4.259  1.4068 -0.2969 -0.0007
  247MOL    H4344815   3.038   5.709   4.494 -3.4643 -0.8564  1.8637
  247MOL    H4444816   3.125   5.713   4.231  2.0753  1.4085  0.7849
  247MOL    H4544817   3.002   5.845   4.223 -0.6486  2.0810  1.2272
  247MOL    H4644818   3.134   5.856   4.342  0.6163  0.1540 -0.2483
  247MOL    C4744819   2.863   5.818   4.440 -0.5671  0.4535  0.3377
  247MOL    C4844820   2.903   5.955   4.497 -0.2206  0.6563 -0.2638
  247MOL    C4944821   2.792   6.055   4.472 -0.0515  0.2159  0.2644
  247MOL    H5044822   2.809   5.835   4.346 -0.4559 -1.1694 -0.0256
  247MOL    H5144823   2.789   5.772   4.505 -0.0228  0.0370  0.6649
  247MOL    H5244824   2.992   5.985   4.442 -1.3269  2.9789 -0.8224
  247MOL    H5344825   2.817   6.159   4.494 -0.8453 -0.0226  2.3779
  247MOL    H5444826   2.765   6.043   4.367  2.1262 -0.2187 -0.2761
  247MOL    H5544827   2.698   6.041   4.524  1.0389 -0.8238  1.9988
  247MOL    C5644828   2.934   5.964   4.649  0.1191  0.1202 -0.3537
  247MOL    C5744829   3.024   6.082   4.680 -0.4632 -0.6701  0.2263
  247MOL    C5844830   2.968   6.178   4.777  0.0170  0.2364 -0.1433
  247MOL    H5944831   2.842   5.974   4.707  0.2887  0.8948 -0.2131
  247MOL    H6044832   2.985   5.876   4.688 -0.9347  0.0152  0.8648
  247MOL    H6144833   3.055   6.136   4.590  1.5380 -3.1826 -0.6555
  247MOL    H6244834   3.030   6.262   4.809 -0.4785  0.5944 -0.1204
  247MOL    H6344835   2.877   6.214   4.730 -0.3129 -0.0054  0.3013
  247MOL    H6444836   2.938   6.127   4.869 -0.7565  0.8613 -0.0476
  247MOL    C6544837   3.157   6.036   4.739  0.9081 -0.1521 -0.0729
  247MOL    C6644838   3.249   5.953   4.641 -1.1444 -0.6359 -0.4890
  247MOL    C6744839   3.299   6.038   4.520  0.1349 -0.2990  0.0429
  247MOL    H6844840   3.208   6.121   4.784 -0.3120 -0.0709  1.1657
  247MOL    H6944841   3.126   5.973   4.822 -0.9190  0.7163 -0.0892
  247MOL    H7044842   3.187   5.878   4.592 -1.8155  0.3378 -1.1492
  247MOL    H7144843   3.220   6.055   4.447  0.4199  0.6209 -0.0579
  247MOL    H7244844   3.331   6.138   4.549 -1.2225  0.2937 -0.4721
  247MOL    H7344845   3.375   5.990   4.458 -0.3917 -2.6580  1.1738
  247MOL    C7444846   3.359   5.863   4.710 -0.3925  0.1371 -0.0079
  247MOL    C7544847   3.304   5.734   4.781 -0.5642 -0.2079  0.2928
  247MOL    C7644848   3.306   5.624   4.679  0.7100 -0.9272 -0.1265
  247MOL    H7744849   3.434   5.823   4.643  0.4575  0.7934  0.5307
  247MOL    H7844850   3.425   5.927   4.769  0.3219 -1.8196  1.3375
  247MOL    H7944851   3.202   5.752   4.814 -0.7984  1.2051 -1.1132
  247MOL    H8044852   3.405   5.585   4.658  1.3181  0.5957 -0.1144
  247MOL    H8144853   3.243   5.539   4.706 -1.2357 -0.5361 -3.1976
  247MOL    H8244854   3.263   5.654   4.584 -0.8640 -1.4644  0.3861
  247MOL    C8344855   3.388   5.689   4.907 -0.6079 -0.0571  0.7342
  247MOL    C8444856   3.307   5.606   5.011 -0.9100 -0.3829  0.0002
  247MOL    C8544857   3.394   5.504   5.075 -0.3309 -0.2073 -0.3479
  247MOL    H8644858   3.480   5.642   4.873 -0.6805  0.5126 -0.2433
  247MOL    H8744859   3.423   5.785   4.945 -3.0555  0.7446  1.0827
  247MOL    H8844860   3.242   5.551   4.942  0.6022  0.3187 -2.0461
  247MOL    H8944861   3.354   5.436   5.150  1.0659  0.6097  1.1590
  247MOL    H9044862   3.448   5.444   5.002 -2.9545 -0.0463 -2.5331
  247MOL    H9144863   3.470   5.556   5.133  0.6048 -0.8762 -0.9676
  247MOL    C9244864   3.226   5.686   5.118  0.2600  0.2048 -0.1043
  247MOL    C9344865   3.121   5.607   5.195  0.0457 -0.4043 -0.6676
  247MOL    C9444866   3.068   5.694   5.307 -0.2266 -0.7855 -0.4833
  247MOL    H9544867   3.301   5.737   5.178 -0.0444 -1.9969  2.2150
  247MOL    H9644868   3.167   5.760   5.064  0.9655  0.9620  0.1568
  247MOL    H9744869   3.173   5.526   5.247 -1.1626 -0.2685  0.7630
  247MOL    H9844870   3.153   5.715   5.373 -1.3570 -1.2877  1.1538
  247MOL    H9944871   3.032   5.793   5.277 -0.1166 -0.3505  0.7611
  247MOL   H10044872   2.991   5.642   5.364  1.2836 -1.1803  1.2681
  247MOL   C10144873   3.008   5.550   5.106  0.1001 -0.6408 -0.2902
  247MOL   C10244874   3.033   5.395   5.081 -0.3793 -0.3435  0.2974
  247MOL   C10344875   2.953   5.315   5.184  0.6591  1.0547 -0.3571
  247MOL   H10444876   2.913   5.574   5.153  2.1956  2.2755  2.6404
  247MOL   H10544877   2.992   5.611   5.017  0.8939 -1.7935 -1.2333
  247MOL   H10644878   3.140   5.375   5.091 -0.2019  1.3144  1.9577
  247MOL   H10744879   2.965   5.208   5.168 -3.0211  0.3976  0.8251
  247MOL   H10844880   2.983   5.333   5.287  1.2769 -0.6680 -0.2330
  247MOL   H10944881   2.848   5.345   5.190 -0.5126 -2.8628  0.0318
  247MOL   C11044882   2.982   5.349   4.938  0.4846 -0.1531  0.2145
  247MOL   C11144883   3.057   5.234   4.869 -0.0800 -0.0751  0.7548
  247MOL   C11244884   3.216   5.251   4.873  0.7729 -0.6061 -0.6308
  247MOL   H11344885   2.874   5.329   4.937 -0.3471  3.9424 -0.1364
  247MOL   H11444886   2.994   5.432   4.868  1.6055 -0.7751 -0.3314
  247MOL   H11544887   3.031   5.234   4.764 -2.3711  0.8303  1.2944
  247MOL   H11644888   3.248   5.212   4.970  0.9834 -0.1240 -0.5079
  247MOL   H11744889   3.262   5.194   4.792  1.8273 -0.3105 -0.2489
  247MOL   H11844890   3.250   5.352   4.853 -0.3393 -0.0133  0.4727
  247MOL   C11944891   3.013   5.091   4.913 -0.2935  0.7301  0.0794
  247MOL   C12044892   2.863   5.058   4.879 -0.0424 -0.6545 -0.3629
  247MOL   C12144893   2.841   5.033   4.727  0.7351  0.8589  0.0792
  247MOL   H12244894   3.081   5.027   4.858 -0.4691 -0.5818  1.3737
  247MOL   H12344895   3.026   5.083   5.021  1.1172 -0.8946 -0.2076
  247MOL   H12444896   2.796   5.137   4.912  1.0013  0.7141 -1.4546
  247MOL   H12544897   2.738   5.049   4.695  0.3658 -1.4799 -0.0461
  247MOL   H12644898   2.911   5.097   4.673  1.4657  1.3631  1.5913
  247MOL   H12744899   2.857   4.931   4.691  0.4098  0.0128  2.2599
  247MOL   C12844900   2.830   4.927   4.956 -0.0321  0.2137  0.0172
  247MOL   C12944901   2.756   4.955   5.095 -0.6252 -0.2695  0.6531
  247MOL   C13044902   2.611   5.008   5.072  0.0533  0.7974 -0.2369
  247MOL   H13144903   2.765   4.863   4.898  1.0193 -1.4718  0.6477
  247MOL   H13244904   2.921   4.868   4.968  1.1615  2.2074  1.0973
  247MOL   H13344905   2.800   5.039   5.149  1.1840  0.0133 -1.1638
  247MOL   H13444906   2.550   4.920   5.052 -1.2321  1.2378  1.6365
  247MOL   H13544907   2.575   5.062   5.159  1.0596  0.7836  0.1963
  247MOL   H13644908   2.611   5.071   4.983 -2.1359 -0.3929 -1.1215
  247MOL   C13744909   2.753   4.829   5.180 -0.4614  1.0306  0.1047
  247MOL   C13844910   2.733   4.866   5.329 -0.2784 -0.2646  0.0027
  247MOL   C13944911   2.692   4.737   5.399  0.3849 -0.6024  0.0713
  247MOL   H14044912   2.682   4.759   5.134 -0.0381  0.3316  0.5112
  247MOL   H14144913   2.850   4.781   5.167 -1.0526 -0.6541  1.7401
  247MOL   H14244914   2.650   4.935   5.337  0.7387  0.7471  2.6313
  247MOL   H14344915   2.775   4.671   5.424 -1.0504 -1.9345  1.4922
  247MOL   H14444916   2.649   4.774   5.492  1.7387  0.6330  0.2293
  247MOL   H14544917   2.617   4.677   5.348 -2.8148  2.1458  1.3650
  247MOL   C14644918   2.851   4.934   5.401  0.2152 -0.1246 -0.5031
  247MOL   C14744919   2.830   4.996   5.537  0.1341 -0.1862 -0.2437
  247MOL   C14844920   2.965   5.012   5.612 -0.3988  0.3403  0.0815
  247MOL   H14944921   2.936   4.866   5.411 -0.1075 -0.6750 -1.4251
  247MOL   H15044922   2.888   5.019   5.343 -2.0140  1.6044  0.5502
  247MOL   H15144923   2.774   4.932   5.605 -0.6824 -1.0458 -1.7070
  247MOL   H15244924   2.939   5.039   5.715 -0.8567 -0.1455  0.0989
  247MOL   H15344925   3.020   4.918   5.616 -1.4300 -0.2994 -0.5581
  247MOL   H15444926   3.021   5.098   5.576 -0.0996 -0.4613 -1.3919
  247MOL   C15544927   2.760   5.133   5.524  0.0115 -0.3504  0.4556
  247MOL   C15644928   2.688   5.180   5.648 -0.3070  0.7643 -0.6234
  247MOL   C15744929   2.605   5.309   5.620 -0.0087  0.7119 -0.3638
  247MOL   H15844930   2.828   5.209   5.485  0.6262 -0.4313  1.3723
  247MOL   H15944931   2.671   5.127   5.460  0.2509  1.1081 -0.0452
  247MOL   H16044932   2.770   5.209   5.714 -0.8245 -2.0840  1.3773
  247MOL   H16144933   2.656   5.385   5.560  2.3850 -0.9769 -0.5284
  247MOL   H16244934   2.512   5.285   5.568 -0.3234 -4.0566  2.1890
  247MOL   H16344935   2.579   5.361   5.712 -1.4241 -0.5086 -0.0698
  247MOL   C16444936   2.598   5.075   5.726 -0.1274 -0.1973  0.4535
  247MOL   C16544937   2.664   5.017   5.859 -0.7053  0.5796  0.5615
  247MOL   C16644938   2.643   5.110   5.981 -0.0867 -0.2611  0.3625
  247MOL   H16744939   2.506   5.126   5.752 -0.2748 -1.0828  1.7531
  247MOL   H16844940   2.561   4.999   5.657 -1.6704 -0.6926  1.7911
  247MOL   H16944941   2.772   5.006   5.842 -0.5930  1.1498  0.8697
  247MOL   H17044942   2.671   5.214   5.963 -0.4691 -0.1932  0.1677
  247MOL   H17144943   2.537   5.109   6.006 -0.4274 -0.6999 -1.0667
  247MOL   H17244944   2.705   5.067   6.060 -1.2853  1.2431  2.1875
  247MOL   C17344945   2.607   4.879   5.887 -0.3318 -0.5817  0.1033
  247MOL   C17444946   2.459   4.869   5.932  0.5079 -0.7921  0.5877
  247MOL   C17544947   2.402   4.728   5.927 -0.1918  0.3586 -0.3010
  247MOL   H17644948   2.620   4.818   5.798  1.0895 -0.3505  0.1515
  247MOL   H17744949   2.671   4.834   5.963  1.2475  0.6459 -0.4827
  247MOL   H17844950   2.392   4.925   5.866 -2.2968 -3.5062  1.0320
  247MOL   H17944951   2.436   4.663   5.847 -1.3251  0.2144 -0.6753
  247MOL   H18044952   2.410   4.674   6.021  2.2886 -0.3613 -0.8927
  247MOL   H18144953   2.295   4.729   5.909 -0.1655 -1.0080 -0.5574
  247MOL   H18244954   2.439   4.912   6.030 -2.3891  0.3140 -0.4285
  248MOL     C144955   2.843   4.365   1.563 -0.8052  0.4547  0.2396
  248MOL     C244956   2.699   4.354   1.619 -0.1338 -0.2057  0.0286
  248MOL     C344957   2.695   4.453   1.738  0.7287 -0.3170 -0.3453
  248MOL     H444958   2.875   4.467   1.539 -1.7108  0.8195  0.5505
  248MOL     H544959   2.858   4.299   1.478 -1.9358  0.9732 -0.3750
  248MOL     H644960   2.666   4.259   1.659 -0.9614 -0.2615 -0.7744
  248MOL     H744961   2.768   4.414   1.808  0.8436 -2.9717 -1.8807
  248MOL     H844962   2.706   4.561   1.722 -1.2540 -0.4881 -3.2354
  248MOL     H944963   2.602   4.451   1.794  1.8718  1.5615  1.7097
  248MOL    H1044964   2.912   4.331   1.640 -1.7554  0.8868  1.2878
  248MOL    C1144965   2.592   4.405   1.522  0.0665  0.2759  0.5050
  248MOL    C1244966   2.565   4.311   1.400 -0.7979  0.5602 -0.3317
  248MOL    C1344967   2.517   4.174   1.444  0.9353 -0.3436  0.2061
  248MOL    H1444968   2.493   4.431   1.560 -1.8654 -1.2966 -3.1480
  248MOL    H1544969   2.626   4.503   1.490 -2.4586  0.5301 -1.6431
  248MOL    H1644970   2.663   4.295   1.355 -0.3966 -1.9354  1.3027
  248MOL    H1744971   2.599   4.118   1.488  1.5952  0.2760 -0.2239
  248MOL    H1844972   2.428   4.173   1.508  0.3210 -2.5051 -0.6538
  248MOL    H1944973   2.485   4.118   1.357 -0.9737  0.3990  0.3998
  248MOL    C2044974   2.467   4.368   1.296  0.5279 -0.4798  0.5462
  248MOL    C2144975   2.506   4.509   1.250 -0.2199 -0.3461 -0.3416
  248MOL    C2244976   2.654   4.526   1.203  0.3997  0.2507 -0.8197
  248MOL    H2344977   2.469   4.294   1.216 -0.9346 -0.5492  0.5546
  248MOL    H2444978   2.367   4.370   1.341 -0.1318  0.1910 -0.8864
  248MOL    H2544979   2.492   4.560   1.345 -1.0436  1.1338 -1.2485
  248MOL    H2644980   2.662   4.628   1.165  0.9722  0.9545  1.1161
  248MOL    H2744981   2.731   4.523   1.280 -0.4009 -2.5591 -0.0656
  248MOL    H2844982   2.682   4.460   1.121 -1.5743 -0.6129 -0.8537
  248MOL    C2944983   2.407   4.568   1.149  0.6643  0.2805 -0.2531
  248MOL    C3044984   2.412   4.717   1.115  0.8663  0.1705 -0.2191
  248MOL    C3144985   2.418   4.743   0.966 -0.0866  0.2209  0.4451
  248MOL    H3244986   2.403   4.502   1.063  0.5168  1.3037 -1.0440
  248MOL    H3344987   2.308   4.545   1.187 -0.2520  0.1605 -2.6322
  248MOL    H3444988   2.504   4.753   1.161  0.7570  1.3661 -0.9320
  248MOL    H3544989   2.451   4.844   0.943  0.1335  0.4881  1.8645
  248MOL    H3644990   2.486   4.675   0.916  1.7053  1.3244  1.3301
  248MOL    H3744991   2.318   4.746   0.921  0.1226  3.6300  0.0635
  248MOL    C3844992   2.298   4.799   1.186 -0.2535  0.2854  0.7327
  248MOL    C3944993   2.325   4.832   1.335 -0.5815 -0.2835  0.1007
  248MOL    C4044994   2.442   4.924   1.354 -0.4336 -0.0952 -0.4511
  248MOL    H4144995   2.282   4.893   1.133 -0.1824 -0.6452 -0.9662
  248MOL    H4244996   2.197   4.759   1.172 -0.6005  0.4771  2.5160
  248MOL    H4344997   2.347   4.741   1.391  0.9576 -0.9584 -1.5617
  248MOL    H4444998   2.432   5.020   1.304  1.2167 -0.3908 -1.3716
  248MOL    H4544999   2.450   4.950   1.460  2.5282  3.1669 -1.3842
  248MOL    H4645000   2.535   4.870   1.335 -0.9048 -0.4751 -1.7408
  248MOL    C4745001   2.187   4.888   1.395 -0.1011  0.2695 -0.0871
  248MOL    C4845002   2.116   4.797   1.493  0.2812 -0.1573 -0.2141
  248MOL    C4945003   1.994   4.866   1.567 -0.0987  0.5490 -0.5241
  248MOL    H5045004   2.212   4.978   1.452 -0.1607 -0.6344  1.3886
  248MOL    H5145005   2.113   4.921   1.321 -2.6018  0.9663  2.6166
  248MOL    H5245006   2.189   4.792   1.574  0.1174  2.0521  0.1140
  248MOL    H5345007   1.933   4.901   1.484  1.4699  1.1551 -1.4570
  248MOL    H5445008   1.946   4.794   1.633  0.0813  0.9741  0.0763
  248MOL    H5545009   2.015   4.951   1.632 -0.3651 -0.8775  1.4702
  248MOL    C5645010   2.074   4.666   1.427  0.2312  0.2411 -0.1810
  248MOL    C5745011   2.037   4.540   1.522  0.2101 -0.5974 -0.0953
  248MOL    C5845012   1.931   4.441   1.458 -0.0437  0.0028 -0.4726
  248MOL    H5945013   2.000   4.690   1.351  0.2933 -0.5499 -0.4913
  248MOL    H6045014   2.163   4.633   1.374  0.2911 -1.3420  0.8596
  248MOL    H6145015   1.989   4.590   1.606 -0.6395 -1.2763 -0.1655
  248MOL    H6245016   1.867   4.407   1.539 -1.0183  1.0189 -0.8011
  248MOL    H6345017   1.861   4.478   1.382 -1.8067 -1.4821  0.3794
  248MOL    H6445018   1.983   4.353   1.422  1.7919  0.2329  1.5732
  248MOL    C6545019   2.158   4.465   1.583  0.0377  0.4877 -0.8466
  248MOL    C6645020   2.128   4.400   1.723  0.3054  1.2764  0.4831
  248MOL    C6745021   2.074   4.257   1.697 -0.4885  0.3779  0.2352
  248MOL    H6845022   2.194   4.396   1.507 -0.5417  0.0528 -0.7260
  248MOL    H6945023   2.239   4.539   1.585 -0.3485  0.8905  2.4151
  248MOL    H7045024   2.051   4.460   1.772 -0.3952 -1.0735  2.3630
  248MOL    H7145025   2.026   4.221   1.788 -0.1862  2.4242  1.2438
  248MOL    H7245026   1.996   4.254   1.621  1.8986 -0.2567 -2.2276
  248MOL    H7345027   2.158   4.196   1.664 -1.2479 -0.2286 -0.5862
  248MOL    C7445028   2.264   4.394   1.791  0.0540  0.1665 -0.1911
  248MOL    C7545029   2.268   4.336   1.935 -0.1166 -0.3818  0.4543
  248MOL    C7645030   2.405   4.302   1.984  0.2016  0.9437 -0.4159
  248MOL    H7745031   2.340   4.345   1.730  2.9738  1.0527  2.6103
  248MOL    H7845032   2.304   4.494   1.802 -0.8590  0.5437 -0.2619
  248MOL    H7945033   2.222   4.237   1.935 -1.0571  0.0578  0.0016
  248MOL    H8045034   2.464   4.235   1.922  0.6414  0.8704  0.0737
  248MOL    H8145035   2.472   4.387   1.987 -0.0548  1.1343  0.1170
  248MOL    H8245036   2.410   4.268   2.088  0.5388  1.3192 -0.3102
  248MOL    C8345037   2.197   4.411   2.051 -0.1834 -0.2467  0.8888
  248MOL    C8445038   2.043   4.408   2.052 -0.4490  0.4682 -0.2411
  248MOL    C8545039   1.994   4.275   2.103 -0.4111  0.3328 -0.6614
  248MOL    H8645040   2.227   4.377   2.150  2.2866  1.4249  0.7547
  248MOL    H8745041   2.237   4.512   2.049  1.6077 -0.8916  2.7207
  248MOL    H8845042   1.987   4.421   1.960 -1.4245 -0.3202  0.2329
  248MOL    H8945043   1.886   4.291   2.094 -0.5573  0.8657  1.6861
  248MOL    H9045044   2.028   4.186   2.051 -0.9067 -0.7531  0.8375
  248MOL    H9145045   2.018   4.248   2.206 -3.5267  0.0373  0.0473
  248MOL    C9245046   1.994   4.507   2.156  0.3936 -0.5525 -0.3963
  248MOL    C9345047   1.990   4.658   2.107  0.7371  0.6638 -0.3933
  248MOL    C9445048   1.908   4.668   1.975  0.3291  0.3083  0.3185
  248MOL    H9545049   1.887   4.494   2.171  0.3319  1.2451  0.8632
  248MOL    H9645050   2.031   4.500   2.258 -2.8672  1.5965  1.0460
  248MOL    H9745051   2.093   4.689   2.088  0.1063  2.6306 -0.7214
  248MOL    H9845052   1.889   4.765   1.929  0.3941  0.3524  0.3850
  248MOL    H9945053   1.958   4.612   1.896  0.3435  0.2076  0.3991
  248MOL   H10045054   1.812   4.618   1.983  0.2784  0.6407  2.1478
  248MOL   C10145055   1.931   4.750   2.215  0.8018  0.4217  0.1503
  248MOL   C10245056   2.012   4.766   2.346  0.1769  0.4031 -0.3953
  248MOL   C10345057   2.138   4.848   2.315 -0.6485  0.1831  0.3549
  248MOL   H10445058   1.900   4.844   2.170  1.2995 -0.3659 -1.9144
  248MOL   H10545059   1.833   4.711   2.242 -1.5671  3.3080 -3.7279
  248MOL   H10645060   2.048   4.674   2.393 -2.0910 -0.6195 -0.5790
  248MOL   H10745061   2.194   4.804   2.233 -0.9396 -1.6333  1.1198
  248MOL   H10845062   2.112   4.946   2.275  0.3724 -0.4828 -2.0259
  248MOL   H10945063   2.202   4.865   2.401 -0.8738  0.9241  0.3808
  248MOL   C11045064   1.926   4.838   2.452 -0.5077 -0.2547 -0.3325
  248MOL   C11145065   1.791   4.773   2.496  0.4380 -0.1715  0.2130
  248MOL   C11245066   1.796   4.617   2.533 -0.2786  0.0614 -0.0733
  248MOL   H11345067   1.992   4.845   2.539 -0.9246 -3.0836  0.2826
  248MOL   H11445068   1.901   4.936   2.414  2.4996 -1.0355 -4.8259
  248MOL   H11545069   1.718   4.773   2.415 -0.3673 -0.3904  0.9319
  248MOL   H11645070   1.823   4.563   2.442  2.1465  2.2606 -0.7169
  248MOL   H11745071   1.871   4.600   2.611 -0.4441 -0.4274 -0.0179
  248MOL   H11845072   1.695   4.583   2.554  0.6726 -0.1541  4.7449
  248MOL   C11945073   1.728   4.861   2.609  0.3282  0.0910 -0.2085
  248MOL   C12045074   1.601   4.809   2.679 -0.3992 -0.3357 -0.1209
  248MOL   C12145075   1.559   4.910   2.785 -0.0719 -0.2366 -0.2748
  248MOL   H12245076   1.806   4.887   2.680  0.1562  0.5587 -0.1910
  248MOL   H12345077   1.698   4.951   2.556 -1.9881  0.1584  1.1538
  248MOL   H12445078   1.623   4.716   2.731 -1.4660 -0.3375  0.3382
  248MOL   H12545079   1.645   4.902   2.852  0.8804  0.6358 -1.3669
  248MOL   H12645080   1.556   5.011   2.744 -1.8552 -0.2849 -0.2630
  248MOL   H12745081   1.468   4.903   2.843  1.2406 -0.5078  1.8152
  248MOL   C12845082   1.487   4.776   2.577  0.0494 -0.2374 -0.5588
  248MOL   C12945083   1.356   4.714   2.631  0.1394  0.3696 -0.6624
  248MOL   C13045084   1.252   4.743   2.517  0.0016  0.4979 -0.0604
  248MOL   H13145085   1.464   4.876   2.540 -1.4921 -0.6288 -0.7124
  248MOL   H13245086   1.524   4.727   2.487  2.2819 -0.2070  0.3235
  248MOL   H13345087   1.327   4.771   2.720 -0.7124  0.1839 -0.8083
  248MOL   H13445088   1.287   4.707   2.420  1.7866  0.1552  0.6896
  248MOL   H13545089   1.166   4.680   2.538  0.5270 -0.6580 -1.2663
  248MOL   H13645090   1.228   4.848   2.503  0.1413  0.4819 -0.4303
  248MOL   C13745091   1.373   4.565   2.671  0.2899 -0.0489 -0.1757
  248MOL   C13845092   1.264   4.512   2.765  0.4459  0.4949  0.0671
  248MOL   C13945093   1.265   4.361   2.756  0.1746 -0.2010 -0.5988
  248MOL   H14045094   1.364   4.511   2.577 -3.4413  1.0553 -0.5497
  248MOL   H14145095   1.466   4.533   2.718 -0.2525  0.2108  1.1082
  248MOL   H14245096   1.164   4.538   2.730  1.4432  2.1277 -1.6394
  248MOL   H14345097   1.363   4.313   2.762  0.1728 -0.3784 -1.8123
  248MOL   H14445098   1.210   4.311   2.836 -1.7278  0.0916 -1.6821
  248MOL   H14545099   1.212   4.319   2.670 -1.6583 -0.1913  0.4897
  248MOL   C14645100   1.293   4.556   2.920 -0.0710  0.0838 -0.0522
  248MOL   C14745101   1.156   4.578   2.999 -0.5557  0.5551 -0.2376
  248MOL   C14845102   1.160   4.541   3.148  0.2111  0.0502 -0.7441
  248MOL   H14945103   1.354   4.480   2.970  2.1702  2.3948  0.8603
  248MOL   H15045104   1.349   4.649   2.926  0.8489 -0.1837 -3.5076
  248MOL   H15145105   1.084   4.511   2.952 -0.5762  0.3084  0.1450
  248MOL   H15245106   1.197   4.438   3.148  2.4404  0.8301  0.0973
  248MOL   H15345107   1.206   4.602   3.225 -2.3602  0.1356  0.7563
  248MOL   H15445108   1.057   4.547   3.182  0.3137  0.7419 -0.5426
  248MOL   C15545109   1.101   4.718   2.963 -0.6417 -0.2090  0.3412
  248MOL   C15645110   0.945   4.733   2.950 -0.0417 -0.1485  0.2662
  248MOL   C15745111   0.919   4.883   2.942 -0.4986 -0.6297 -0.0762
  248MOL   H15845112   1.139   4.784   3.042 -4.1111  1.7500  0.4893
  248MOL   H15945113   1.141   4.751   2.868 -1.2023  0.6106  0.3868
  248MOL   H16045114   0.902   4.696   3.043 -1.9059 -0.0781 -0.5397
  248MOL   H16145115   0.968   4.936   2.860  2.5090  0.5281  2.3726
  248MOL   H16245116   0.813   4.901   2.924 -0.5427 -0.7844  0.0294
  248MOL   H16345117   0.949   4.934   3.034  0.6956  0.5929 -1.1232
  248MOL   C16445118   0.885   4.660   2.826 -0.2964 -0.2526  0.6914
  248MOL   C16545119   0.755   4.570   2.839 -0.1378 -0.0440  0.2534
  248MOL   C16645120   0.638   4.632   2.910  0.5532 -0.0044 -0.2688
  248MOL   H16745121   0.876   4.742   2.754  0.3458  0.5957  1.5621
  248MOL   H16845122   0.959   4.598   2.775 -0.6180  0.8478 -1.1928
  248MOL   H16945123   0.777   4.487   2.906 -2.2563  0.0461  1.1009
  248MOL   H17045124   0.557   4.560   2.921 -0.8284  1.5765  0.1259
  248MOL   H17145125   0.670   4.650   3.013  0.3642 -2.1155  0.1763
  248MOL   H17245126   0.613   4.722   2.855 -1.8289  0.3242  1.2688
  248MOL   C17345127   0.722   4.506   2.703  0.6521 -0.8973  0.5127
  248MOL   C17445128   0.820   4.404   2.644 -0.3263  0.2508 -0.4336
  248MOL   C17545129   0.896   4.455   2.523 -0.1713 -0.2558  0.1746
  248MOL   H17645130   0.620   4.468   2.706  0.1176  0.5809  1.0706
  248MOL   H17745131   0.702   4.589   2.636 -0.6953 -2.0054 -0.4998
  248MOL   H17845132   0.763   4.316   2.613  0.4928 -0.9966  1.5217
  248MOL   H17945133   0.947   4.549   2.543 -0.6323  0.4894 -2.0806
  248MOL   H18045134   0.975   4.391   2.485  0.2659  1.0049 -1.0500
  248MOL   H18145135   0.828   4.485   2.444  1.9313  1.5226 -0.9937
  248MOL   H18245136   0.876   4.361   2.727  0.0630 -0.2462 -0.9491
  249MOL     C145137   4.151   2.161   5.943  0.6644  0.4305 -0.0482
  249MOL     C245138   4.060   2.152   6.066 -0.3612  0.0305 -0.2609
  249MOL     C345139   4.039   2.006   6.102 -0.1063 -0.1971 -0.1961
  249MOL     H445140   4.254   2.143   5.974  1.1630  1.5905 -1.0157
  249MOL     H545141   4.143   2.262   5.905  0.2357  1.2897  2.2291
  249MOL     H645142   3.959   2.176   6.032 -0.8596 -0.3525  0.9138
  249MOL     H745143   4.011   1.948   6.014 -3.1203 -0.7284  1.0767
  249MOL     H845144   4.130   1.957   6.137  0.7321  1.7945  0.4922
  249MOL     H945145   3.966   2.001   6.183  0.4002 -0.2579  0.2601
  249MOL    H1045146   4.124   2.088   5.866  0.0832 -0.8217  1.2979
  249MOL    C1145147   4.098   2.244   6.188 -0.1483  0.0562  0.3621
  249MOL    C1245148   4.090   2.391   6.160 -0.8699 -0.3665 -0.4928
  249MOL    C1345149   3.959   2.456   6.217  0.4852 -0.1623  0.5233
  249MOL    H1445150   4.039   2.218   6.276  0.8388 -2.5571  0.2877
  249MOL    H1545151   4.201   2.225   6.218 -0.5604 -1.5673  0.8011
  249MOL    H1645152   4.083   2.412   6.053 -0.8768 -0.2439 -0.4685
  249MOL    H1745153   3.881   2.426   6.148  1.8638 -2.7340  0.0250
  249MOL    H1845154   3.930   2.407   6.310  1.5533  0.2078  1.0613
  249MOL    H1945155   3.967   2.563   6.237  1.2057 -0.6196  2.8649
  249MOL    C2045156   4.211   2.473   6.220  0.0510 -0.2837  0.5819
  249MOL    C2145157   4.347   2.440   6.158 -0.3949  0.4994 -0.0753
  249MOL    C2245158   4.349   2.478   6.007  0.5777  0.8575 -0.3202
  249MOL    H2345159   4.200   2.578   6.191 -0.2794 -0.3425  0.4870
  249MOL    H2445160   4.207   2.479   6.328  1.3648 -1.2350  0.6990
  249MOL    H2545161   4.366   2.333   6.162  4.0659  1.0461 -2.3864
  249MOL    H2645162   4.284   2.422   5.940  2.3330 -0.3039 -1.1003
  249MOL    H2745163   4.339   2.584   5.984 -0.6625  0.2338 -2.8197
  249MOL    H2845164   4.452   2.475   5.971  0.7431 -0.1252  0.2019
  249MOL    C2945165   4.473   2.511   6.222 -0.0305 -0.4086 -0.3808
  249MOL    C3045166   4.506   2.479   6.370  1.0904 -0.2788  0.5349
  249MOL    C3145167   4.500   2.327   6.401  0.6657 -0.4098  0.2452
  249MOL    H3245168   4.560   2.485   6.162  1.2685  0.7722  0.9377
  249MOL    H3345169   4.462   2.618   6.204  1.6420  0.2993  2.4534
  249MOL    H3445170   4.433   2.530   6.433 -0.3042 -3.0601  1.2661
  249MOL    H3545171   4.396   2.293   6.396  0.2716  0.9721 -1.3404
  249MOL    H3645172   4.568   2.293   6.323 -1.5209  0.1616 -1.9930
  249MOL    H3745173   4.545   2.309   6.498 -0.9028 -0.4288  0.9918
  249MOL    C3845174   4.649   2.541   6.398  0.0685  0.0375 -0.7417
  249MOL    C3945175   4.683   2.567   6.546  0.2557 -0.3823 -0.6836
  249MOL    C4045176   4.817   2.505   6.591 -0.6352 -0.2822 -0.1734
  249MOL    H4145177   4.723   2.474   6.354  1.9071 -0.7812  3.3727
  249MOL    H4245178   4.660   2.643   6.363  0.0349  1.3019  2.7726
  249MOL    H4345179   4.604   2.511   6.595  1.7499 -1.1514  0.8932
  249MOL    H4445180   4.837   2.509   6.698 -0.8200 -0.0407 -0.1474
  249MOL    H4545181   4.825   2.398   6.572  3.8976  0.1277 -1.1157
  249MOL    H4645182   4.904   2.543   6.538 -3.3774  1.8187 -3.3587
  249MOL    C4745183   4.656   2.715   6.596  0.0310  0.1022  0.1052
  249MOL    C4845184   4.659   2.748   6.750 -0.1515  0.4536 -0.1919
  249MOL    C4945185   4.675   2.899   6.779 -0.6307 -0.1129  0.6932
  249MOL    H5045186   4.719   2.779   6.534  1.6550  0.0393  1.6586
  249MOL    H5145187   4.557   2.746   6.564 -0.5272  1.2163  2.7389
  249MOL    H5245188   4.750   2.703   6.788 -0.4941 -0.2559 -0.2064
  249MOL    H5345189   4.784   2.899   6.772 -0.6936  0.2609 -0.4349
  249MOL    H5445190   4.643   2.967   6.701 -1.2471  0.0473  1.0844
  249MOL    H5545191   4.650   2.943   6.875 -0.1184  2.1071 -0.1612
  249MOL    C5645192   4.533   2.690   6.822 -0.6935  0.1679  0.1477
  249MOL    C5745193   4.571   2.595   6.941  0.2723 -0.5868  0.0701
  249MOL    C5845194   4.612   2.687   7.062  0.4325  0.9919  0.7784
  249MOL    H5945195   4.466   2.768   6.857 -0.4892  0.3044  0.2381
  249MOL    H6045196   4.477   2.634   6.747  0.7459 -2.7146  1.1641
  249MOL    H6145197   4.652   2.530   6.909 -0.2068 -1.0039 -0.2994
  249MOL    H6245198   4.696   2.750   7.034 -0.6419  2.0865 -0.0272
  249MOL    H6345199   4.534   2.756   7.095  1.1195  1.5935  1.1336
  249MOL    H6445200   4.638   2.639   7.156 -0.4677 -1.3643 -0.1291
  249MOL    C6545201   4.439   2.511   6.977 -0.0181  1.0585  0.2750
  249MOL    C6645202   4.433   2.385   6.893  0.6477  0.3321 -0.0452
  249MOL    C6745203   4.540   2.289   6.967 -0.6095  0.5286 -1.1655
  249MOL    H6845204   4.427   2.490   7.084  0.4243  0.6042  0.2379
  249MOL    H6945205   4.355   2.579   6.964 -0.2293  0.3623 -2.2966
  249MOL    H7045206   4.454   2.396   6.786 -0.7703  0.6386 -0.2997
  249MOL    H7145207   4.536   2.191   6.920 -1.3402  0.3248 -0.6951
  249MOL    H7245208   4.644   2.319   6.977 -0.5640  0.1234 -0.3754
  249MOL    H7345209   4.506   2.285   7.070 -0.3407 -0.1122 -1.0982
  249MOL    C7445210   4.286   2.322   6.884  0.2114  0.0712 -0.0554
  249MOL    C7545211   4.180   2.389   6.791 -0.7293  0.2371 -0.3571
  249MOL    C7645212   4.218   2.387   6.640 -0.1102 -0.2577  0.3364
  249MOL    H7745213   4.296   2.219   6.849 -0.2574  0.5091 -1.5052
  249MOL    H7845214   4.245   2.329   6.984 -0.6536  1.2354 -0.4800
  249MOL    H7945215   4.187   2.493   6.823  3.5835 -0.8035  2.5451
  249MOL    H8045216   4.314   2.434   6.619  0.0168 -0.8525 -0.4397
  249MOL    H8145217   4.219   2.284   6.604 -0.2976 -0.0678 -0.2118
  249MOL    H8245218   4.145   2.440   6.579 -0.1593  0.5852  1.1141
  249MOL    C8345219   4.036   2.344   6.821  0.0359  0.4853  0.1943
  249MOL    C8445220   3.929   2.423   6.740  0.1799 -0.2872 -0.0666
  249MOL    C8545221   3.875   2.327   6.621 -0.1267  0.0977 -0.0501
  249MOL    H8645222   4.021   2.236   6.811 -2.1401  0.7595  0.0968
  249MOL    H8745223   4.014   2.359   6.927 -0.9525  1.4158 -0.1370
  249MOL    H8845224   3.967   2.513   6.691  0.6315 -0.1993  0.4362
  249MOL    H8945225   3.842   2.234   6.669  1.2370  0.6628  2.0563
  249MOL    H9045226   3.786   2.377   6.583 -0.5681  0.7340  1.7468
  249MOL    H9145227   3.939   2.302   6.537 -2.1918 -0.6358 -1.4344
  249MOL    C9245228   3.818   2.490   6.833 -0.2960 -0.1577  0.6383
  249MOL    C9345229   3.842   2.632   6.895  0.4699  0.0538  0.3128
  249MOL    C9445230   3.710   2.696   6.938 -0.5759 -0.1375 -0.5188
  249MOL    H9545231   3.731   2.499   6.767  0.9291 -0.7954 -1.0874
  249MOL    H9645232   3.781   2.425   6.912 -1.4342  0.3109  0.5022
  249MOL    H9745233   3.881   2.689   6.811 -0.8441  1.1375  0.4105
  249MOL    H9845234   3.619   2.673   6.882  0.0917  1.6849 -2.3999
  249MOL    H9945235   3.678   2.678   7.041  2.6598 -1.0354  0.3841
  249MOL   H10045236   3.713   2.805   6.934  3.2669 -0.1650 -0.2132
  249MOL   C10145237   3.937   2.640   7.005 -0.5379 -0.4113 -0.3788
  249MOL   C10245238   4.015   2.774   7.038 -0.1858  0.1600  0.6247
  249MOL   C10345239   4.060   2.770   7.185  0.2218 -0.1683 -0.1295
  249MOL   H10445240   3.900   2.603   7.101  0.3282 -1.1285 -0.3131
  249MOL   H10545241   4.012   2.564   6.981  0.8537  1.0729 -0.8216
  249MOL   H10645242   3.945   2.857   7.024  0.0753  0.3152  0.2405
  249MOL   H10745243   4.110   2.863   7.212 -2.1020  0.4550  2.1186
  249MOL   H10845244   3.971   2.768   7.247 -0.1922 -0.2203 -0.7129
  249MOL   H10945245   4.111   2.677   7.213  0.3450  0.9556  3.6550
  249MOL   C11045246   4.126   2.793   6.931  0.0974 -0.5855 -0.1262
  249MOL   C11145247   4.158   2.945   6.902 -0.4412 -0.3420  0.5324
  249MOL   C11245248   4.267   2.991   7.008 -0.1473  0.2409 -0.2413
  249MOL   H11345249   4.217   2.746   6.967  2.5675  1.5633 -3.2206
  249MOL   H11445250   4.108   2.740   6.837 -0.7264  1.3728 -1.1080
  249MOL   H11545251   4.074   3.013   6.918  1.6855  2.5801 -0.1514
  249MOL   H11645252   4.254   2.980   7.116  1.9709  0.1648  0.0296
  249MOL   H11745253   4.363   2.943   6.992 -0.3148  0.7796 -3.0043
  249MOL   H11845254   4.275   3.100   7.004 -0.0722  0.2926  0.9210
  249MOL   C11945255   4.201   2.968   6.755 -0.1258  0.4282 -0.0245
  249MOL   C12045256   4.090   2.983   6.649 -0.1857 -0.2189  0.0651
  249MOL   C12145257   4.002   3.106   6.675 -0.6188 -0.3979 -0.3276
  249MOL   H12245258   4.260   3.059   6.753 -0.3861  0.5784 -1.4828
  249MOL   H12345259   4.267   2.887   6.725  0.3096  0.4050  0.9826
  249MOL   H12445260   4.022   2.897   6.652 -1.6264  0.9551  3.4440
  249MOL   H12545261   3.954   3.125   6.579 -1.6757 -0.8174  0.1170
  249MOL   H12645262   3.938   3.087   6.761  2.0295 -2.7036  1.1993
  249MOL   H12745263   4.052   3.200   6.699  0.3760 -0.7519 -0.9846
  249MOL   C12845264   4.142   2.981   6.505  0.2266  0.0323 -0.1047
  249MOL   C12945265   4.235   2.873   6.460  0.6256  0.4027 -0.1384
  249MOL   C13045266   4.159   2.737   6.485  0.7515 -0.2960  0.2629
  249MOL   H13145267   4.050   2.981   6.446 -0.4513 -1.9317  0.9027
  249MOL   H13245268   4.186   3.079   6.486 -1.4628  0.9387  0.4705
  249MOL   H13345269   4.327   2.873   6.519  0.4822  1.4929  0.0966
  249MOL   H13445270   4.057   2.718   6.452 -0.5921  2.7392  2.4255
  249MOL   H13545271   4.223   2.660   6.440  2.6841  1.8332 -0.7351
  249MOL   H13645272   4.165   2.720   6.592  1.3447 -1.6307  0.0295
  249MOL   C13745273   4.275   2.876   6.313 -0.4378  1.3026  0.2550
  249MOL   C13845274   4.376   2.987   6.279  0.1101 -0.0204  0.0915
  249MOL   C13945275   4.519   2.944   6.312 -0.3459  0.1835 -0.1889
  249MOL   H14045276   4.302   2.780   6.269  2.2651  2.1683 -0.0517
  249MOL   H14145277   4.177   2.893   6.270 -0.2592  1.6088 -0.0284
  249MOL   H14245278   4.348   3.070   6.343 -0.5663 -1.0681  1.1680
  249MOL   H14345279   4.588   3.028   6.300 -1.0133  0.9110  1.0181
  249MOL   H14445280   4.514   2.911   6.415 -1.9588  1.4150  0.1543
  249MOL   H14545281   4.550   2.864   6.245  1.2999  1.0019 -0.4419
  249MOL   C14645282   4.379   3.031   6.131 -0.5145  0.2288  0.1522
  249MOL   C14745283   4.485   3.141   6.079 -0.5745  0.5038  0.6426
  249MOL   C14845284   4.461   3.159   5.929  0.3629  0.8428 -1.1737
  249MOL   H14945285   4.400   2.943   6.071  0.9815  0.5094  0.2430
  249MOL   H15045286   4.285   3.079   6.105  0.1003  1.8363  0.8007
  249MOL   H15145287   4.581   3.092   6.095 -0.8019  0.2281  1.1892
  249MOL   H15245288   4.538   3.207   5.867  1.4766 -1.5817 -1.7182
  249MOL   H15345289   4.436   3.058   5.896 -0.4982  0.1790  1.4474
  249MOL   H15445290   4.364   3.207   5.916 -0.4274 -0.0262  1.3568
  249MOL   C15545291   4.492   3.280   6.147 -0.3387 -1.0938  0.5823
  249MOL   C15645292   4.611   3.373   6.109  0.4128  0.0114 -0.1951
  249MOL   C15745293   4.578   3.522   6.158  0.2644 -0.2308 -0.2808
  249MOL   H15845294   4.400   3.337   6.132  1.2911  1.3046 -0.5890
  249MOL   H15945295   4.487   3.265   6.254  0.3674  0.3652  0.8416
  249MOL   H16045296   4.605   3.388   6.001  0.8192  0.0549 -0.2117
  249MOL   H16145297   4.485   3.553   6.109  1.3167  3.6262 -0.0055
  249MOL   H16245298   4.587   3.539   6.265  0.4917 -1.1059 -0.1562
  249MOL   H16345299   4.653   3.586   6.111  1.3354 -2.7635 -2.1131
  249MOL   C16445300   4.755   3.326   6.146  0.0561  0.6200 -1.0636
  249MOL   C16545301   4.862   3.384   6.044  0.9950 -0.0389  0.4073
  249MOL   C16645302   5.004   3.379   6.101 -0.2007  0.8684 -0.1143
  249MOL   H16745303   4.790   3.356   6.244 -0.2405 -1.1149 -0.4055
  249MOL   H16845304   4.776   3.219   6.145  0.1950  0.6419 -0.2090
  249MOL   H16945305   4.831   3.488   6.038 -0.1550 -0.3243  1.1485
  249MOL   H17045306   5.015   3.437   6.193  0.2180  0.0356  0.3700
  249MOL   H17145307   5.036   3.278   6.126  1.1255  1.4964  0.8179
  249MOL   H17245308   5.081   3.414   6.032 -0.8252  4.4205  0.8907
  249MOL   C17345309   4.845   3.320   5.901 -0.0854  0.1581  0.2140
  249MOL   C17445310   4.953   3.380   5.808  0.2258  0.4471  0.4098
  249MOL   C17545311   4.926   3.360   5.656  0.2309  0.0277 -0.5692
  249MOL   H17645312   4.845   3.211   5.908 -0.6428  0.0341 -1.3703
  249MOL   H17745313   4.749   3.350   5.858 -0.4383  2.3383  2.4772
  249MOL   H17845314   5.049   3.340   5.841 -1.0514 -2.0441  1.2372
  249MOL   H17945315   4.841   3.423   5.629  2.0228  2.0517 -1.6550
  249MOL   H18045316   5.018   3.384   5.604  1.8128 -1.3452  1.5289
  249MOL   H18145317   4.908   3.254   5.636 -0.4119 -0.3435  1.8504
  249MOL   H18245318   4.961   3.488   5.824 -0.6237  0.2926  2.0243
  250MOL     C145319   6.277   6.143   5.152 -0.4118  0.1339  0.1873
  250MOL     C245320   6.328   6.273   5.078  0.5072  0.3108  0.2177
  250MOL     C345321   6.207   6.332   5.003  0.1574  0.1136  0.1350
  250MOL     H445322   6.219   6.079   5.086  0.6830 -0.2258 -0.4558
  250MOL     H545323   6.213   6.173   5.234 -0.1332 -1.4480  1.0145
  250MOL     H645324   6.395   6.230   5.004 -0.6103  0.3407 -0.8192
  250MOL     H745325   6.149   6.250   4.962 -0.5980  0.8341 -0.2372
  250MOL     H845326   6.147   6.383   5.078  1.0977  0.0356  0.9540
  250MOL     H945327   6.223   6.408   4.927 -0.3134 -1.0377 -1.1206
  250MOL    H1045328   6.364   6.092   5.194 -0.1054 -1.1341 -1.9453
  250MOL    C1145329   6.400   6.376   5.167  0.0937  0.1076 -0.0370
  250MOL    C1245330   6.537   6.322   5.223 -0.5725 -1.4876  0.6450
  250MOL    C1345331   6.653   6.340   5.120  0.1364  0.4500  0.3262
  250MOL    H1445332   6.413   6.470   5.114 -2.9947  1.7250  1.9169
  250MOL    H1545333   6.339   6.398   5.255  1.0694  0.0017  0.6771
  250MOL    H1645334   6.522   6.217   5.247 -1.0367 -1.8397 -1.0767
  250MOL    H1745335   6.750   6.307   5.158 -1.0986 -1.4418  1.9323
  250MOL    H1845336   6.629   6.283   5.030 -0.6382 -0.6106  1.1818
  250MOL    H1945337   6.673   6.440   5.081  1.9584 -1.1897 -3.1684
  250MOL    C2045338   6.578   6.395   5.352  0.0477 -0.3762 -0.4812
  250MOL    C2145339   6.487   6.379   5.479  0.6191 -0.3414  0.0484
  250MOL    C2245340   6.461   6.231   5.523 -0.0151 -0.2333 -0.1374
  250MOL    H2345341   6.679   6.364   5.376  0.8388  3.0199  0.9284
  250MOL    H2445342   6.580   6.500   5.321  1.5352 -0.1819  0.2313
  250MOL    H2545343   6.395   6.435   5.463  0.3561 -0.2927  1.6565
  250MOL    H2645344   6.553   6.196   5.570 -0.7805  0.3344  1.8426
  250MOL    H2745345   6.380   6.241   5.596  1.3130  2.8816  0.9789
  250MOL    H2845346   6.425   6.170   5.440 -1.4260  0.0455  0.2636
  250MOL    C2945347   6.557   6.451   5.596  0.0732  0.0187 -0.8542
  250MOL    C3045348   6.572   6.602   5.583  0.2780  0.3806 -0.0422
  250MOL    C3145349   6.440   6.675   5.625  0.6107 -0.3830  0.2204
  250MOL    H3245350   6.503   6.434   5.689 -0.0650 -0.2933 -0.9894
  250MOL    H3345351   6.655   6.408   5.616 -0.6856 -0.8255  1.1219
  250MOL    H3445352   6.593   6.632   5.481 -0.9111 -0.0012 -0.4171
  250MOL    H3545353   6.358   6.657   5.555  0.3177  1.3636  0.1026
  250MOL    H3645354   6.410   6.638   5.723  1.3852  0.0547  0.6242
  250MOL    H3745355   6.454   6.782   5.638 -1.0321 -0.4190  2.5883
  250MOL    C3845356   6.698   6.648   5.659  0.5775  0.7642  0.4188
  250MOL    C3945357   6.746   6.799   5.637  0.1228 -0.2504  0.4660
  250MOL    C4045358   6.874   6.833   5.723  0.1243 -0.0441 -0.2638
  250MOL    H4145359   6.698   6.624   5.766  2.1311  0.4967  0.3665
  250MOL    H4245360   6.772   6.579   5.621 -0.8357 -0.6774  0.2249
  250MOL    H4345361   6.658   6.859   5.660  0.6280  0.0864  1.5570
  250MOL    H4445362   6.857   6.824   5.830 -2.3550  1.2834 -0.4980
  250MOL    H4545363   6.968   6.783   5.701 -0.3608 -0.0317 -2.5187
  250MOL    H4645364   6.903   6.938   5.717 -2.5590  0.8944  2.2097
  250MOL    C4745365   6.791   6.828   5.484  0.1921 -0.3399 -0.5117
  250MOL    C4845366   6.802   6.984   5.446  0.1142  0.1848 -0.1008
  250MOL    C4945367   6.948   7.019   5.437 -0.3098  0.4974 -0.5207
  250MOL    H5045368   6.875   6.770   5.446  1.2738  1.3221 -0.7077
  250MOL    H5145369   6.713   6.789   5.419 -1.6390  1.9838  0.1986
  250MOL    H5245370   6.744   7.045   5.515  1.3265  1.3698 -0.1186
  250MOL    H5345371   6.958   7.127   5.447  0.9734  0.3763 -0.3631
  250MOL    H5445372   7.001   6.969   5.518 -1.8641  1.5729  1.1936
  250MOL    H5545373   7.006   6.984   5.352  0.0858 -2.2176  0.8325
  250MOL    C5645374   6.728   7.014   5.309  0.1175  0.2669 -0.1850
  250MOL    C5745375   6.576   7.016   5.305 -0.1202  0.5394 -0.8183
  250MOL    C5845376   6.517   7.126   5.396  0.6774  0.5617  0.3440
  250MOL    H5945377   6.761   7.106   5.262 -0.3921  0.3140 -0.4537
  250MOL    H6045378   6.771   6.942   5.240 -0.9222  0.4603 -1.0526
  250MOL    H6145379   6.540   6.926   5.354  1.5830  1.2802  1.8822
  250MOL    H6245380   6.553   7.129   5.499  2.2226 -1.5784 -0.0834
  250MOL    H6345381   6.540   7.214   5.336  0.4267  0.6223  0.3323
  250MOL    H6445382   6.410   7.111   5.412  0.8122 -1.0119 -0.1286
  250MOL    C6545383   6.523   7.028   5.158 -0.6086 -0.3379  0.1064
  250MOL    C6645384   6.537   6.895   5.077  0.2510 -0.4331  0.0105
  250MOL    C6745385   6.453   6.776   5.130 -0.4096 -0.3505  0.4660
  250MOL    H6845386   6.421   7.067   5.156 -0.5105  0.0818  2.0128
  250MOL    H6945387   6.589   7.103   5.114  1.9451 -1.1611  2.4037
  250MOL    H7045388   6.639   6.856   5.082  0.5133  0.3957  1.6353
  250MOL    H7145389   6.430   6.695   5.061 -1.7690 -0.6070  1.1854
  250MOL    H7245390   6.495   6.741   5.224  0.9787 -0.3123 -0.1361
  250MOL    H7345391   6.352   6.816   5.141 -0.2600 -0.3796  2.1505
  250MOL    C7445392   6.495   6.917   4.935  0.5571  0.0705  0.3288
  250MOL    C7545393   6.595   7.013   4.861 -0.0472  0.0622  0.4498
  250MOL    C7645394   6.732   6.949   4.832  0.2298 -0.0901  0.2450
  250MOL    H7745395   6.496   6.821   4.883  1.3146  1.3027 -2.0018
  250MOL    H7845396   6.393   6.956   4.933  0.3810 -0.3577  0.8726
  250MOL    H7945397   6.604   7.112   4.907 -2.4665  0.7068 -0.3734
  250MOL    H8045398   6.719   6.885   4.744  0.5868 -1.5438  1.2276
  250MOL    H8145399   6.818   7.012   4.810  0.9146 -0.3930  2.0378
  250MOL    H8245400   6.762   6.881   4.911 -0.9425  0.6251  1.3222
  250MOL    C8345401   6.535   7.074   4.724 -0.3789 -0.6363 -0.1254
  250MOL    C8445402   6.402   7.152   4.723 -0.7122  0.9409 -0.0377
  250MOL    C8545403   6.406   7.280   4.810  0.2845  0.7467  0.1209
  250MOL    H8645404   6.609   7.139   4.677  0.5657 -1.3769  0.3169
  250MOL    H8745405   6.537   6.988   4.658 -0.5895 -3.2584  3.1039
  250MOL    H8845406   6.322   7.088   4.761  1.1778 -0.8981  0.9807
  250MOL    H8945407   6.323   7.347   4.791  0.2930  0.3517 -1.4012
  250MOL    H9045408   6.404   7.257   4.917  0.7730 -1.3732 -0.3012
  250MOL    H9145409   6.489   7.344   4.780 -0.2553  1.1689 -0.4695
  250MOL    C9245410   6.342   7.181   4.579 -0.1618  0.4445  0.3053
  250MOL    C9345411   6.334   7.069   4.486  0.3761  0.4229  1.2020
  250MOL    C9445412   6.250   6.952   4.544  0.4014  0.0160  0.2546
  250MOL    H9545413   6.244   7.224   4.602  0.4850  1.9085  0.3767
  250MOL    H9645414   6.394   7.261   4.527 -1.3712  0.7253 -0.4977
  250MOL    H9745415   6.430   7.020   4.471 -0.3739 -0.5212 -0.6698
  250MOL    H9845416   6.151   6.983   4.577 -0.8744 -1.6747 -1.7673
  250MOL    H9945417   6.237   6.882   4.461 -0.0864  0.6672 -0.2298
  250MOL   H10045418   6.308   6.901   4.621 -0.9609 -1.8583  0.0873
  250MOL   C10145419   6.283   7.111   4.343 -0.9110 -0.1963 -0.1324
  250MOL   C10245420   6.377   7.091   4.225 -0.0008  0.2869 -1.0384
  250MOL   C10345421   6.305   7.111   4.092 -0.2223  0.3601 -0.2980
  250MOL   H10445422   6.202   7.044   4.315 -1.3478 -0.6129  2.0790
  250MOL   H10545423   6.248   7.215   4.350 -0.0628  0.0868 -0.0136
  250MOL   H10645424   6.407   6.986   4.229 -1.6299 -0.2064 -1.1745
  250MOL   H10745425   6.214   7.051   4.092  0.5123 -0.7929  0.9011
  250MOL   H10845426   6.267   7.213   4.093 -3.1670 -0.6894 -0.1255
  250MOL   H10945427   6.371   7.085   4.009  0.0926  1.4678 -0.3937
  250MOL   C11045428   6.509   7.169   4.241 -0.3471  0.8009  0.8997
  250MOL   C11145429   6.633   7.117   4.163 -0.1254  0.4512 -0.7284
  250MOL   C11245430   6.645   7.183   4.024  0.6019  0.3151  0.0559
  250MOL   H11345431   6.484   7.261   4.188 -0.9808 -0.1770 -0.5605
  250MOL   H11445432   6.535   7.192   4.344 -0.2118 -1.9078  1.5140
  250MOL   H11545433   6.623   7.011   4.140  3.1163  0.3090 -1.6999
  250MOL   H11645434   6.721   7.127   3.969 -1.2262 -0.4318 -1.7767
  250MOL   H11745435   6.553   7.180   3.966  1.6909 -0.2838 -1.7010
  250MOL   H11845436   6.675   7.288   4.027  0.4932  0.3189  0.9532
  250MOL   C11945437   6.773   7.129   4.236  0.8765 -0.4023  1.2342
  250MOL   C12045438   6.780   7.046   4.368 -0.1043  0.1146  0.1430
  250MOL   C12145439   6.768   6.888   4.352 -0.4311 -0.1124 -0.3615
  250MOL   H12245440   6.844   7.088   4.165 -1.4275 -3.5220  0.5987
  250MOL   H12345441   6.809   7.231   4.246  0.2112 -0.0823  0.4570
  250MOL   H12445442   6.695   7.078   4.428 -0.5228  0.3282 -0.5649
  250MOL   H12545443   6.665   6.860   4.334 -0.5231  0.7830 -1.2982
  250MOL   H12645444   6.848   6.842   4.294 -1.5568 -0.4831 -1.6290
  250MOL   H12745445   6.778   6.837   4.447  0.3455  1.1519  0.2554
  250MOL   C12845446   6.897   7.087   4.459  0.0059 -0.1731 -0.2909
  250MOL   C12945447   7.043   7.093   4.397  0.1429  0.0042 -0.5491
  250MOL   C13045448   7.121   7.215   4.452 -0.2836 -0.4847  0.0910
  250MOL   H13145449   6.868   7.181   4.505  0.7771 -0.8716  1.6964
  250MOL   H13245450   6.908   7.024   4.547 -2.1412 -2.1568 -1.3708
  250MOL   H13345451   7.044   7.095   4.289 -2.0983 -4.2695 -0.7780
  250MOL   H13445452   7.216   7.231   4.401  0.8125 -1.0435  1.9101
  250MOL   H13545453   7.065   7.304   4.422  0.1052 -0.5615 -0.8700
  250MOL   H13645454   7.141   7.211   4.559  0.0739  1.0941  0.0973
  250MOL   C13745455   7.120   6.962   4.434  0.5995  0.1798 -0.5386
  250MOL   C13845456   7.252   6.949   4.357 -0.5331 -0.2204 -0.2011
  250MOL   C13945457   7.356   6.862   4.434 -0.2597 -0.1186  0.4640
  250MOL   H14045458   7.127   6.951   4.542 -0.6635  1.1840 -0.3357
  250MOL   H14145459   7.057   6.878   4.405  2.2196 -1.0888 -0.4637
  250MOL   H14245460   7.297   7.048   4.361 -0.4501 -0.2840  0.4552
  250MOL   H14345461   7.457   6.852   4.394  0.0808  1.8375  0.8055
  250MOL   H14445462   7.357   6.905   4.534  1.2843 -1.3162  1.0018
  250MOL   H14545463   7.308   6.766   4.454 -0.0370 -0.3496 -0.0854
  250MOL   C14645464   7.225   6.892   4.221 -0.1682 -0.0099 -0.1288
  250MOL   C14745465   7.347   6.887   4.118  0.2219  0.0717  0.3505
  250MOL   C14845466   7.295   6.811   3.993 -0.6253 -0.0581  0.6606
  250MOL   H14945467   7.186   6.791   4.235 -0.2784  0.0022 -0.3379
  250MOL   H15045468   7.150   6.953   4.170 -0.4759 -0.5328 -0.3008
  250MOL   H15145469   7.418   6.815   4.157 -1.9072 -1.5481  1.3381
  250MOL   H15245470   7.210   6.865   3.952  0.7370  0.8746 -0.9626
  250MOL   H15345471   7.361   6.815   3.907  0.9080  2.6542  1.9094
  250MOL   H15445472   7.281   6.705   4.019 -0.7525  0.0702  1.1307
  250MOL   C15545473   7.404   7.024   4.084  0.4452  0.1960  0.0824
  250MOL   C15645474   7.554   7.013   4.051  0.5706 -0.0899  0.1484
  250MOL   C15745475   7.615   7.137   3.982  0.5617  0.2403  0.5131
  250MOL   H15845476   7.340   7.076   4.012  2.5596  0.5409 -1.6349
  250MOL   H15945477   7.400   7.086   4.173  0.9506  2.6715 -1.5556
  250MOL   H16045478   7.574   6.921   3.995  0.3986  0.3856 -0.7121
  250MOL   H16145479   0.011   7.106   3.935  0.6021 -0.8810  1.3126
  250MOL   H16245480   7.553   7.178   3.903  0.9951  0.8886  0.5076
  250MOL   H16345481   7.631   7.219   4.052 -2.9303  0.5608  1.0260
  250MOL   C16445482   7.633   6.976   4.180 -0.5660 -0.0073 -0.3697
  250MOL   C16545483   0.086   7.001   4.188 -0.2929  0.4254  0.3898
  250MOL   C16645484   0.139   6.992   4.327  0.3529 -0.5476 -0.1892
  250MOL   H16745485   7.592   7.018   4.271 -0.8238 -3.3116  1.1072
  250MOL   H16845486   7.631   6.868   4.194 -0.1726  0.0316 -0.0220
  250MOL   H16945487   0.118   7.097   4.149 -0.3177  0.4748  0.4903
  250MOL   H17045488   0.112   6.893   4.363 -0.1574  0.6473  2.8083
  250MOL   H17145489   0.247   7.006   4.335  0.5176 -0.6593 -1.9010
  250MOL   H17245490   0.093   7.062   4.396 -0.2136 -1.2213  0.1263
  250MOL   C17345491   0.147   6.902   4.092 -0.0968  0.6180 -0.3646
  250MOL   C17445492   0.294   6.939   4.066  0.0769 -0.0973 -0.6190
  250MOL   C17545493   0.352   6.860   3.947 -0.3588  0.4475  0.3047
  250MOL   H17645494   0.124   6.802   4.127  4.1035 -0.7095 -1.0466
  250MOL   H17745495   0.099   6.913   3.995 -2.4801  0.0754  0.7172
  250MOL   H17845496   0.358   6.918   4.152  2.0356  0.6569 -1.8527
  250MOL   H17945497   0.335   6.753   3.953 -1.7923  0.6631  0.4102
  250MOL   H18045498   0.306   6.890   3.853  1.0592 -0.3499 -0.6477
  250MOL   H18145499   0.458   6.883   3.942 -0.1021 -0.7944 -0.1834
  250MOL   H18245500   0.304   7.045   4.046 -0.6426  0.0601 -0.1781
  251MOL     C145501   5.001   1.082   4.638 -0.3293  0.0172 -0.2691
  251MOL     C245502   4.921   0.975   4.725  0.2294 -0.6227 -0.2116
  251MOL     C345503   4.838   1.061   4.823 -0.2757 -0.4200  0.4831
  251MOL     H445504   5.061   1.038   4.559 -0.4964  1.3371 -1.1437
  251MOL     H545505   5.066   1.141   4.702  1.2805 -2.8833  0.8642
  251MOL     H645506   4.988   0.916   4.786  0.6356 -0.5811 -0.6129
  251MOL     H745507   4.776   1.132   4.769 -0.8950 -0.1683  1.5147
  251MOL     H845508   4.757   1.005   4.870 -0.9623 -0.9957 -1.3369
  251MOL     H945509   4.886   1.114   4.905  0.6935  0.7912 -0.8443
  251MOL    H1045510   4.937   1.155   4.589 -1.9153  0.4454  2.3429
  251MOL    C1145511   4.835   0.880   4.638 -0.0436 -0.0749  1.0770
  251MOL    C1245512   4.771   0.757   4.700  0.5174  0.1593  0.5238
  251MOL    C1345513   4.648   0.708   4.629 -0.2595 -0.0106  0.2620
  251MOL    H1445514   4.757   0.931   4.582  1.6515  0.9176 -0.4646
  251MOL    H1545515   4.896   0.844   4.555  0.4571 -0.7811  1.7465
  251MOL    H1645516   4.742   0.793   4.799  1.8363  1.2456  0.5315
  251MOL    H1745517   4.573   0.787   4.628 -0.1982  0.0291 -2.2800
  251MOL    H1845518   4.663   0.689   4.523  2.5118  2.7617  0.0923
  251MOL    H1945519   4.601   0.618   4.670  0.1630 -0.4889 -0.2957
  251MOL    C2045520   4.873   0.641   4.734 -0.1550 -0.0435  0.3648
  251MOL    C2145521   4.848   0.583   4.879 -0.7127  0.4264  0.7555
  251MOL    C2245522   4.711   0.516   4.890 -1.5670 -0.1415  0.1592
  251MOL    H2345523   4.878   0.569   4.652  1.4768 -0.4920  0.8347
  251MOL    H2445524   4.975   0.679   4.747  0.0957 -1.1875  2.0759
  251MOL    H2545525   4.838   0.658   4.957  1.6229 -0.7086  2.2194
  251MOL    H2645526   4.638   0.596   4.900  0.0745  1.3923 -0.0283
  251MOL    H2745527   4.695   0.440   4.813  1.3655 -1.6151  0.9142
  251MOL    H2845528   4.717   0.460   4.984 -0.4880 -1.0276 -0.4188
  251MOL    C2945529   4.959   0.481   4.909  0.1579  0.2001 -0.3254
  251MOL    C3045530   4.982   0.436   5.057  0.2662 -0.1231 -0.5467
  251MOL    C3145531   5.096   0.324   5.054  0.0268  0.4758 -0.1463
  251MOL    H3245532   4.921   0.392   4.860 -0.5848 -0.6417  1.7599
  251MOL    H3345533   5.051   0.520   4.864 -0.2388  0.0745 -1.2630
  251MOL    H3445534   4.887   0.398   5.093 -0.4975  1.2774 -1.0326
  251MOL    H3545535   5.125   0.267   5.142  1.4285  0.7066 -0.4484
  251MOL    H3645536   5.050   0.256   4.983 -0.8296  3.4970 -2.5915
  251MOL    H3745537   5.185   0.371   5.012 -0.0726  1.8773  1.1445
  251MOL    C3845538   5.035   0.549   5.150  0.1839 -0.0954 -1.2515
  251MOL    C3945539   4.936   0.637   5.236 -0.1780 -0.1034 -0.0675
  251MOL    C4045540   4.868   0.548   5.342 -0.2469 -0.5104 -0.7418
  251MOL    H4145541   5.109   0.511   5.221 -1.6595 -1.1569  0.1602
  251MOL    H4245542   5.094   0.620   5.092  1.3573  0.4465  0.5579
  251MOL    H4345543   4.851   0.679   5.181  0.5674  0.5085 -0.7680
  251MOL    H4445544   4.800   0.600   5.408  0.7278 -0.7224  0.4557
  251MOL    H4545545   4.816   0.462   5.300 -3.2704  2.3036 -3.0308
  251MOL    H4645546   4.947   0.504   5.404  0.1563  0.1135 -0.8041
  251MOL    C4745547   4.999   0.747   5.326 -0.3361  0.9190  0.2450
  251MOL    C4845548   5.068   0.862   5.240  0.2500 -0.3389 -0.0310
  251MOL    C4945549   4.960   0.951   5.178  0.1632  0.6002  0.5037
  251MOL    H5045550   4.931   0.794   5.397 -1.6622  0.4546 -0.6996
  251MOL    H5145551   5.077   0.690   5.376 -0.2827 -0.0596 -0.9279
  251MOL    H5245552   5.120   0.823   5.153  2.5477 -0.0828  1.1895
  251MOL    H5345553   4.866   0.902   5.151  1.2576 -0.7893 -0.8143
  251MOL    H5445554   4.919   1.012   5.258 -0.2066  2.2154 -0.8840
  251MOL    H5545555   4.989   1.010   5.091 -1.0152 -1.1907 -1.1571
  251MOL    C5645556   5.165   0.953   5.320  0.1082 -0.7718 -0.2010
  251MOL    C5745557   5.261   1.048   5.251 -0.4743 -0.7080 -0.1898
  251MOL    C5845558   5.334   1.129   5.350 -0.2249  0.4563 -0.6307
  251MOL    H5945559   5.102   1.003   5.394  1.3439  1.1804 -0.4331
  251MOL    H6045560   5.226   0.882   5.376 -1.7272 -0.7867  1.8470
  251MOL    H6145561   5.200   1.107   5.183  0.4019 -1.3303 -1.5526
  251MOL    H6245562   5.270   1.204   5.397 -2.7327 -3.0616  1.7814
  251MOL    H6345563   5.378   1.081   5.437 -1.7786  0.6531  0.2843
  251MOL    H6445564   5.423   1.181   5.314  0.0184 -0.6442 -1.6279
  251MOL    C6545565   5.363   0.963   5.161  0.3831 -0.2803 -0.3855
  251MOL    C6645566   5.362   1.010   5.014  0.5230  0.5090  0.5141
  251MOL    C6745567   5.405   1.154   4.980  1.0971 -0.2045  0.0594
  251MOL    H6845568   5.460   0.980   5.208 -0.0552  1.2680 -0.0110
  251MOL    H6945569   5.326   0.862   5.176 -3.2346  0.8610 -1.1588
  251MOL    H7045570   5.260   1.003   4.977  1.2232 -2.0386 -1.0713
  251MOL    H7145571   5.316   1.216   4.981  0.5912 -0.9195  1.8121
  251MOL    H7245572   5.474   1.195   5.055 -2.6487  3.0198  1.9506
  251MOL    H7345573   5.446   1.166   4.880  0.9248  1.8042  0.2135
  251MOL    C7445574   5.449   0.914   4.935 -0.0097  0.0174 -0.8661
  251MOL    C7545575   5.418   0.763   4.926  0.1932  0.2600 -0.8605
  251MOL    C7645576   5.280   0.758   4.852 -0.6599  0.1472  0.7666
  251MOL    H7745577   5.462   0.955   4.835  1.0163  0.1369 -0.6864
  251MOL    H7845578   5.542   0.917   4.991 -1.4210 -2.2660  1.7610
  251MOL    H7945579   5.416   0.718   5.025  2.1351 -0.2925 -1.0629
  251MOL    H8045580   5.238   0.658   4.859  2.0457 -1.0256  0.6513
  251MOL    H8145581   5.211   0.820   4.909  0.0544  1.1397  0.5761
  251MOL    H8245582   5.281   0.790   4.747 -2.2366 -0.4655  0.5471
  251MOL    C8345583   5.529   0.685   4.850 -0.3371 -0.0985  0.0261
  251MOL    C8445584   5.670   0.650   4.915 -0.2300  0.2057  0.3317
  251MOL    C8545585   5.654   0.572   5.053  0.1401 -0.0413  0.4727
  251MOL    H8645586   5.474   0.593   4.832 -0.6120 -0.3908  2.1985
  251MOL    H8745587   5.536   0.714   4.746  0.9613  1.1825  0.4606
  251MOL    H8845588   5.718   0.744   4.944  0.6103 -0.3604  0.8189
  251MOL    H8945589   5.748   0.552   5.104  0.1600 -2.4391 -0.4344
  251MOL    H9045590   5.581   0.618   5.119 -0.0623 -0.6305  0.6667
  251MOL    H9145591   5.614   0.472   5.037  1.1996 -0.5000  0.6392
  251MOL    C9245592   5.759   0.577   4.813 -0.8651 -1.0913 -0.0187
  251MOL    C9345593   5.820   0.669   4.700  0.1120  0.5635  0.1481
  251MOL    C9445594   5.929   0.769   4.757  0.4451 -0.4097 -0.0165
  251MOL    H9545595   5.835   0.515   4.861  1.0893 -0.7860 -2.5636
  251MOL    H9645596   5.705   0.497   4.761 -1.5306 -0.7295  0.1131
  251MOL    H9745597   5.741   0.732   4.658  0.3243  1.2699  0.7884
  251MOL    H9845598   5.876   0.843   4.818 -0.8535 -1.0515 -0.3661
  251MOL    H9945599   6.006   0.714   4.811  0.1398 -0.0016  0.8456
  251MOL   H10045600   5.974   0.839   4.687  1.0645  0.8471  1.5916
  251MOL   C10145601   5.887   0.592   4.587 -0.6878 -0.1027 -0.0843
  251MOL   C10245602   5.915   0.669   4.456 -0.1482  0.2768 -0.3015
  251MOL   C10345603   6.022   0.597   4.368 -0.5813 -0.6935 -0.4414
  251MOL   H10445604   5.977   0.539   4.621 -0.4006 -0.3671 -1.2371
  251MOL   H10545605   5.824   0.508   4.558 -0.6088 -0.0036 -0.5487
  251MOL   H10645606   5.945   0.773   4.470 -0.4291  0.3626 -0.3407
  251MOL   H10745607   5.986   0.511   4.312 -2.2479 -0.1686 -0.2200
  251MOL   H10845608   6.057   0.664   4.290 -2.8781  0.3681 -0.6079
  251MOL   H10945609   6.107   0.562   4.427 -1.6105 -2.2570  0.1714
  251MOL   C11045610   5.782   0.706   4.378 -0.1837  0.5247  0.1813
  251MOL   C11145611   5.681   0.593   4.342  0.3711 -0.0108 -0.5893
  251MOL   C11245612   5.584   0.550   4.455 -0.4057  0.4265  0.3574
  251MOL   H11345613   5.726   0.775   4.441  0.7279  2.0530 -0.6642
  251MOL   H11445614   5.818   0.755   4.288 -3.2626 -1.1763 -2.0684
  251MOL   H11545615   5.743   0.507   4.317  0.7173  0.5732 -1.7626
  251MOL   H11645616   5.538   0.636   4.505 -0.1957  1.0333 -0.4850
  251MOL   H11745617   5.507   0.486   4.413  1.2751 -1.7350  0.4790
  251MOL   H11845618   5.626   0.491   4.537 -0.9701 -2.4400 -1.3673
  251MOL   C11945619   5.605   0.608   4.207  0.1533 -0.2180  0.0268
  251MOL   C12045620   5.651   0.517   4.089  0.5189 -0.3534 -0.1558
  251MOL   C12145621   5.608   0.374   4.107  0.8981  0.8811 -0.8782
  251MOL   H12245622   5.498   0.591   4.218 -0.1761  0.6843 -1.6608
  251MOL   H12345623   5.632   0.709   4.179  2.4786 -0.3421  1.7023
  251MOL   H12445624   5.760   0.519   4.095  0.4051  0.2941  2.4598
  251MOL   H12545625   5.660   0.324   4.189 -1.0091 -1.1973 -0.8945
  251MOL   H12645626   5.501   0.364   4.127  1.1856 -0.4631  0.0638
  251MOL   H12745627   5.625   0.311   4.020  0.6721  0.0014 -0.2981
  251MOL   C12845628   5.606   0.576   3.953 -0.3808 -0.2435  0.7188
  251MOL   C12945629   5.632   0.494   3.819  0.6887  0.2350 -0.4481
  251MOL   C13045630   5.582   0.582   3.703 -0.0034  0.3674  0.2871
  251MOL   H13145631   5.497   0.585   3.959 -0.1780  2.5863  1.1050
  251MOL   H13245632   5.662   0.670   3.953 -0.4159 -0.2226  0.7310
  251MOL   H13345633   5.577   0.400   3.815 -0.9881  0.9945  3.0448
  251MOL   H13445634   5.629   0.679   3.690  0.7032  0.1381  1.0815
  251MOL   H13545635   5.605   0.519   3.617 -0.7885 -0.5305  0.7303
  251MOL   H13645636   5.475   0.596   3.717 -0.1254  1.0738 -1.2872
  251MOL   C13745637   5.784   0.463   3.799 -0.3033 -0.3492  0.6313
  251MOL   C13845638   5.823   0.363   3.680 -0.4061  0.7167  0.3678
  251MOL   C13945639   5.971   0.326   3.702  0.3338  0.1241  0.2122
  251MOL   H14045640   5.849   0.550   3.787 -1.4033  0.4669  0.5003
  251MOL   H14145641   5.820   0.415   3.890 -1.8490 -1.2925  0.7687
  251MOL   H14245642   5.820   0.420   3.587  0.1998 -1.2950 -0.9216
  251MOL   H14345643   6.002   0.285   3.605  1.7911 -1.1757  1.2060
  251MOL   H14445644   6.036   0.407   3.737  0.6417  0.0262 -0.1275
  251MOL   H14545645   5.971   0.249   3.778 -1.7806 -0.0910  0.0181
  251MOL   C14645646   5.734   0.230   3.675  1.3054  0.1090  0.3141
  251MOL   C14745647   5.605   0.235   3.590  0.1322  0.2279 -0.1097
  251MOL   C14845648   5.650   0.202   3.439 -0.4140  0.2564 -0.5639
  251MOL   H14945649   5.799   0.147   3.650  5.9741  2.7292  2.9082
  251MOL   H15045650   5.719   0.196   3.777  1.4679  1.0252  0.6528
  251MOL   H15145651   5.555   0.331   3.594  0.0021  0.0857  4.7260
  251MOL   H15245652   5.566   0.189   3.371  1.1877 -0.9470 -2.3862
  251MOL   H15345653   5.721   0.273   3.397 -0.3744 -0.7980 -2.3200
  251MOL   H15445654   5.706   0.109   3.439  1.4286  1.3503 -0.6915
  251MOL   C15545655   5.491   0.138   3.646  0.0336 -1.2927  0.0938
  251MOL   C15645656   5.369   0.122   3.555  0.0443  0.6242  0.6895
  251MOL   C15745657   5.300   7.690   3.597 -0.2992  0.5303 -0.0832
  251MOL   H15845658   5.539   0.043   3.669  0.6840 -1.2841 -1.1437
  251MOL   H15945659   5.446   0.176   3.737  0.0668  0.2354 -0.5126
  251MOL   H16045660   5.404   0.097   3.455  0.2943  3.0829  0.1103
  251MOL   H16145661   5.367   7.606   3.581 -1.3670 -0.6859  1.5343
  251MOL   H16245662   5.259   7.682   3.698  0.9664 -0.3790  0.3724
  251MOL   H16345663   5.217   7.667   3.529 -1.9724  1.2217  1.6649
  251MOL   C16445664   5.278   0.252   3.551  0.4116 -0.7942 -0.2193
  251MOL   C16545665   5.174   0.264   3.439  0.0355  0.1803 -0.5585
  251MOL   C16645666   5.031   0.209   3.476  1.3020 -0.7272 -0.2250
  251MOL   H16745667   5.230   0.264   3.648  0.5827 -2.2457  0.0670
  251MOL   H16845668   5.350   0.332   3.534  0.8539 -1.4291 -1.4332
  251MOL   H16945669   5.202   0.194   3.360  0.1554  1.7222 -1.9016
  251MOL   H17045670   4.970   0.192   3.387 -0.6880  1.5731  0.6555
  251MOL   H17145671   5.039   0.118   3.535  1.8182  0.1336  1.0639
  251MOL   H17245672   4.968   0.276   3.534 -0.2338  0.2397 -2.9313
  251MOL   C17345673   5.173   0.405   3.382 -0.0992 -0.8414  0.1576
  251MOL   C17445674   5.116   0.511   3.464  0.2378 -0.2139  0.3819
  251MOL   C17545675   5.174   0.656   3.439 -0.2667  0.1913  0.4391
  251MOL   H17645676   5.275   0.440   3.364 -0.4540 -0.4332 -1.1049
  251MOL   H17745677   5.135   0.415   3.281  1.7806 -0.2944 -0.5280
  251MOL   H17845678   5.117   0.482   3.569  0.9233 -0.8136  0.2128
  251MOL   H17945679   5.195   0.679   3.335  0.6821  2.4614  1.1179
  251MOL   H18045680   5.117   0.733   3.490  1.1360  2.1026 -0.7982
  251MOL   H18145681   5.275   0.659   3.481 -0.1667  0.1535  0.2031
  251MOL   H18245682   5.008   0.524   3.451  0.3999  1.5771  0.7426
  252MOL     C145683   1.820   6.210   5.350  0.0322  0.0534  0.5883
  252MOL     C245684   1.944   6.155   5.410 -0.7613 -0.3917 -0.1023
  252MOL     C345685   2.028   6.077   5.312 -0.2542  0.1861  0.5570
  252MOL     H445686   1.773   6.127   5.298  0.6668  0.7008 -1.0567
  252MOL     H545687   1.859   6.277   5.273  1.9801  0.9637  2.3082
  252MOL     H645688   1.905   6.082   5.481 -0.7950 -0.1505  0.1285
  252MOL     H745689   2.060   6.142   5.231 -1.8977  2.0148  1.3637
  252MOL     H845690   2.111   6.021   5.356 -0.0520 -0.4718 -0.6534
  252MOL     H945691   1.957   6.006   5.270  2.9202 -2.3637 -0.7764
  252MOL    H1045692   1.755   6.260   5.422 -1.6192  1.5146 -1.8476
  252MOL    C1145693   2.028   6.268   5.479 -0.4775 -0.5056 -0.0007
  252MOL    C1245694   2.127   6.206   5.581 -0.9793  0.9159 -0.2883
  252MOL    C1345695   2.260   6.283   5.578  0.4266 -0.2355  0.4222
  252MOL    H1445696   2.082   6.313   5.396 -2.7645  1.7045 -0.3748
  252MOL    H1545697   1.971   6.350   5.523 -0.7703  0.1605 -1.5750
  252MOL    H1645698   2.152   6.107   5.544 -1.7071  0.9218 -0.8123
  252MOL    H1745699   2.319   6.272   5.487 -0.7372 -0.8432 -0.2712
  252MOL    H1845700   2.249   6.388   5.607  0.4096 -0.3686  0.8992
  252MOL    H1945701   2.319   6.241   5.660  0.3003 -3.2453 -0.9876
  252MOL    C2045702   2.062   6.190   5.721  0.2548 -0.1212 -0.0220
  252MOL    C2145703   2.113   6.062   5.792  0.3803 -0.5260 -0.2115
  252MOL    C2245704   2.156   6.087   5.938 -0.6271  0.0380 -0.2441
  252MOL    H2345705   2.081   6.277   5.784  2.9197 -1.0838  0.5669
  252MOL    H2445706   1.954   6.189   5.707 -0.1377  1.5978  2.5019
  252MOL    H2545707   2.208   6.031   5.750 -0.4507 -3.0954 -0.2886
  252MOL    H2645708   2.075   6.103   6.010  0.0965  0.4170  0.4887
  252MOL    H2745709   2.221   6.006   5.969 -2.5036 -1.1099  0.8210
  252MOL    H2845710   2.216   6.178   5.943  0.3143 -0.6637  1.7189
  252MOL    C2945711   1.997   5.958   5.785 -0.0121 -0.3886 -0.6269
  252MOL    C3045712   2.037   5.815   5.803  0.4153 -0.7451 -0.1644
  252MOL    C3145713   1.922   5.731   5.853 -0.5578 -0.0446 -0.4509
  252MOL    H3245714   1.922   5.984   5.860 -0.3627 -2.4562 -0.2441
  252MOL    H3345715   1.948   5.970   5.688 -1.4232 -1.6046 -0.0774
  252MOL    H3445716   2.109   5.822   5.884 -0.8492  0.0190  0.9173
  252MOL    H3545717   1.844   5.718   5.778 -0.4518 -1.0729 -0.3866
  252MOL    H3645718   1.951   5.629   5.877  0.3327  0.7354  2.0063
  252MOL    H3745719   1.885   5.779   5.944 -3.0984 -1.1426 -0.8483
  252MOL    C3845720   2.093   5.757   5.679  0.4003  1.2623  0.4882
  252MOL    C3945721   2.176   5.629   5.710 -0.4337  0.0394 -0.1051
  252MOL    C4045722   2.209   5.566   5.573 -0.2929 -0.1577  0.9733
  252MOL    H4145723   2.013   5.746   5.606  0.9162 -0.8672  0.2015
  252MOL    H4245724   2.157   5.831   5.632 -1.1620  2.4122  0.1342
  252MOL    H4345725   2.122   5.550   5.763  0.1914 -0.3625 -0.0636
  252MOL    H4445726   2.223   5.458   5.578 -2.9949 -0.6216 -0.5150
  252MOL    H4545727   2.130   5.577   5.499 -0.6873 -2.6588  0.9639
  252MOL    H4645728   2.285   5.610   5.508  0.0001 -2.8976 -0.6379
  252MOL    C4745729   2.310   5.650   5.787  0.3366 -0.2155 -0.1624
  252MOL    C4845730   2.328   5.563   5.912 -0.0059  0.7839  0.3013
  252MOL    C4945731   2.348   5.416   5.869 -0.5002 -0.5635  0.0361
  252MOL    H5045732   2.395   5.636   5.720  0.3385 -3.3050  0.4054
  252MOL    H5145733   2.310   5.754   5.819  2.7175 -0.2621  0.0695
  252MOL    H5245734   2.245   5.562   5.983  1.2051 -0.9029  1.7673
  252MOL    H5345735   2.347   5.417   5.760 -0.4330 -2.2567  0.0220
  252MOL    H5445736   2.451   5.388   5.887  0.5101  2.9707  0.2787
  252MOL    H5545737   2.290   5.337   5.917 -1.1210 -1.1371 -1.6241
  252MOL    C5645738   2.447   5.616   5.995 -0.0987  0.4513 -0.0936
  252MOL    C5745739   2.414   5.734   6.092 -0.5540 -0.1306  0.2053
  252MOL    C5845740   2.336   5.682   6.218  0.0359 -0.8763 -0.0546
  252MOL    H5945741   2.483   5.534   6.057 -1.5581  0.5883  0.9403
  252MOL    H6045742   2.534   5.637   5.932  0.6802 -2.5518 -0.0768
  252MOL    H6145743   2.343   5.789   6.031  0.8656  1.7959  0.2724
  252MOL    H6245744   2.244   5.629   6.194  0.1137 -0.2249 -1.9065
  252MOL    H6345745   2.402   5.616   6.274  0.8979  0.4946  0.5714
  252MOL    H6445746   2.315   5.760   6.290 -1.1570 -0.2466 -1.0714
  252MOL    C6545747   2.533   5.816   6.131  0.0617 -0.0111 -0.1903
  252MOL    C6645748   2.602   5.907   6.016  0.2631  0.5376  0.5456
  252MOL    C6745749   2.565   6.054   6.027 -0.4660 -0.3715  0.2675
  252MOL    H6845750   2.498   5.879   6.213  0.3162 -0.8755  0.5830
  252MOL    H6945751   2.615   5.751   6.161  0.6202 -0.2475 -2.1570
  252MOL    H7045752   2.560   5.871   5.922 -0.9627  2.1448  0.4470
  252MOL    H7145753   2.609   6.105   6.113  0.2685 -0.5546  0.0074
  252MOL    H7245754   2.599   6.106   5.937 -1.1086 -0.2763  0.0802
  252MOL    H7345755   2.458   6.067   6.043 -0.2774 -1.9871  3.1224
  252MOL    C7445756   2.768   5.889   6.001  0.4857 -0.2810 -0.4438
  252MOL    C7545757   2.841   5.968   5.888  0.0070 -0.2649 -0.6412
  252MOL    C7645758   2.900   6.103   5.926  0.3447  0.0844 -0.4745
  252MOL    H7745759   2.821   5.915   6.092 -1.2320  4.1818 -0.6018
  252MOL    H7845760   2.769   5.782   5.982 -3.8247 -0.4703 -0.1504
  252MOL    H7945761   2.760   5.992   5.819 -0.8049  0.3180  0.4999
  252MOL    H8045762   2.990   6.083   5.984  0.4531  1.8851  0.0380
  252MOL    H8145763   2.915   6.164   5.836  2.4005 -0.8992 -0.8220
  252MOL    H8245764   2.835   6.161   5.992 -0.7728 -0.6842 -0.8850
  252MOL    C8345765   2.941   5.877   5.813  0.0004  0.0364  0.8333
  252MOL    C8445766   2.874   5.777   5.713 -0.2243 -0.1521 -0.6714
  252MOL    C8545767   2.829   5.846   5.583  0.2383  0.6609  0.1218
  252MOL    H8645768   3.012   5.935   5.753 -0.2377 -0.3188  0.2015
  252MOL    H8745769   2.997   5.813   5.881 -1.1201  0.0947  1.8140
  252MOL    H8845770   2.786   5.729   5.755 -0.7178 -0.3749 -1.9357
  252MOL    H8945771   2.746   5.915   5.595  2.0055  2.3944  2.6079
  252MOL    H9045772   2.901   5.894   5.517  0.9175  0.6081  0.8141
  252MOL    H9145773   2.791   5.759   5.528  1.9223  0.1584 -0.2712
  252MOL    C9245774   2.981   5.674   5.691 -0.1957 -0.2841  0.0067
  252MOL    C9345775   2.992   5.555   5.795 -0.3625 -0.2384  0.4092
  252MOL    C9445776   2.870   5.475   5.795 -0.0935 -0.0416 -0.0717
  252MOL    H9545777   2.960   5.633   5.593 -0.4307  1.7289 -0.7902
  252MOL    H9645778   3.078   5.718   5.667  0.5086  0.3707  3.6439
  252MOL    H9745779   3.002   5.607   5.890  0.1235  0.4296 -0.0014
  252MOL    H9845780   2.770   5.514   5.812 -0.3316 -0.5260 -0.3423
  252MOL    H9945781   2.850   5.422   5.701  0.2588 -1.0882  0.4323
  252MOL   H10045782   2.878   5.397   5.871  0.8210 -0.4918 -0.6165
  252MOL   C10145783   3.120   5.470   5.759 -0.3246 -0.0477 -0.2758
  252MOL   C10245784   3.262   5.532   5.755  0.0116 -0.1685  0.2551
  252MOL   C10345785   3.311   5.600   5.891  0.4882 -0.5264  0.4595
  252MOL   H10445786   3.126   5.384   5.826  2.5500 -0.2443 -0.7436
  252MOL   H10545787   3.099   5.432   5.659 -0.0934 -0.6575 -0.0957
  252MOL   H10645788   3.258   5.613   5.682  0.4852  0.9673  1.4752
  252MOL   H10745789   3.294   5.541   5.981 -2.5263  0.3529  0.5494
  252MOL   H10845790   3.411   5.642   5.883  0.6286 -0.7105  1.2369
  252MOL   H10945791   3.252   5.692   5.897  0.2343 -0.7478  1.4200
  252MOL   C11045792   3.361   5.427   5.711 -0.1641  0.4691 -0.0788
  252MOL   C11145793   3.368   5.402   5.553  0.4145 -0.3891 -0.6245
  252MOL   C11245794   3.447   5.510   5.488 -0.5745 -0.0478  0.6257
  252MOL   H11345795   3.458   5.468   5.739 -0.6235  0.6533  1.2639
  252MOL   H11445796   3.352   5.333   5.766 -0.5143  0.2157 -0.5709
  252MOL   H11545797   3.269   5.413   5.508 -0.1672  1.8655  1.0722
  252MOL   H11645798   3.442   5.507   5.379  1.6829 -2.2342  0.5451
  252MOL   H11745799   3.407   5.610   5.509 -0.0223  1.0353 -3.1358
  252MOL   H11845800   3.545   5.495   5.532 -0.7115  0.0414  0.9607
  252MOL   C11945801   3.425   5.273   5.506 -0.4427  0.1490  0.5520
  252MOL   C12045802   3.323   5.155   5.487 -0.2062  0.5586  0.1666
  252MOL   C12145803   3.231   5.178   5.370  0.1577  0.8313  0.0035
  252MOL   H12245804   3.482   5.291   5.414 -1.6760  1.5168  0.0497
  252MOL   H12345805   3.506   5.240   5.571  0.0163  0.4989  0.1569
  252MOL   H12445806   3.254   5.149   5.571  0.0817 -1.7417  0.2475
  252MOL   H12545807   3.152   5.249   5.393  0.4920  0.9683  0.7495
  252MOL   H12645808   3.289   5.223   5.290  0.7958 -0.3686 -0.2244
  252MOL   H12745809   3.190   5.087   5.325 -1.8733  2.4289 -1.4841
  252MOL   C12845810   3.387   5.006   5.470  0.5897  0.0621 -0.1333
  252MOL   C12945811   3.436   4.933   5.598 -0.2535 -0.0294 -0.3799
  252MOL   C13045812   3.308   4.895   5.681 -0.1748 -0.3334 -0.1213
  252MOL   H13145813   3.336   4.951   5.392  2.1661 -2.1646  0.3545
  252MOL   H13245814   3.478   5.033   5.415  0.3947 -0.6348 -0.8006
  252MOL   H13345815   3.514   4.988   5.650  0.1343 -0.3332 -0.6308
  252MOL   H13445816   3.227   4.841   5.631 -0.5246  0.1534 -0.0889
  252MOL   H13545817   3.337   4.854   5.778  0.1220  0.7992  0.2738
  252MOL   H13645818   3.250   4.982   5.711 -1.6812 -1.7006  1.0070
  252MOL   C13745819   3.497   4.790   5.576  0.5937  0.1963 -0.1203
  252MOL   C13845820   3.635   4.789   5.511 -0.7472 -0.1625  0.7343
  252MOL   C13945821   3.749   4.841   5.596  0.2962 -0.3817  0.0135
  252MOL   H14045822   3.513   4.739   5.672 -0.4295 -0.0713 -0.0802
  252MOL   H14145823   3.436   4.728   5.510 -0.9272  1.2137  0.3074
  252MOL   H14245824   3.634   4.854   5.423 -1.0000  0.5607  1.2685
  252MOL   H14345825   3.827   4.865   5.523  0.0222  0.2195 -0.0774
  252MOL   H14445826   3.733   4.926   5.662 -0.1537 -1.3363  1.1595
  252MOL   H14545827   3.788   4.754   5.649  0.2398 -0.5143 -0.1598
  252MOL   C14645828   3.669   4.645   5.453 -0.2696 -0.2623  0.2043
  252MOL   C14745829   3.790   4.637   5.359  0.1452  0.4933 -0.2605
  252MOL   C14845830   3.812   4.493   5.322  0.1930  0.4966 -0.2760
  252MOL   H14945831   3.675   4.582   5.542 -0.9994  0.1650  0.5615
  252MOL   H15045832   3.577   4.615   5.402 -0.5368  0.6533  0.1349
  252MOL   H15145833   3.879   4.653   5.419 -0.8642 -0.8921  1.6608
  252MOL   H15245834   3.903   4.479   5.263  0.4124 -0.6474  0.3224
  252MOL   H15345835   3.831   4.439   5.415 -1.3268  3.1593  1.6508
  252MOL   H15445836   3.729   4.449   5.266 -1.5198  1.4603  1.4471
  252MOL   C15545837   3.773   4.723   5.228  0.1283 -0.1232 -0.6034
  252MOL   C15645838   3.876   4.837   5.224  0.5737 -0.1944  0.8276
  252MOL   C15745839   4.014   4.778   5.190  0.1801  0.0605 -0.1587
  252MOL   H15845840   3.756   4.671   5.134  0.8247  3.4009 -2.7861
  252MOL   H15945841   3.673   4.768   5.226  1.5662  3.2545 -0.5970
  252MOL   H16045842   3.875   4.890   5.320  0.1857 -0.2216  0.8398
  252MOL   H16145843   4.098   4.846   5.209  0.6645 -0.6111  0.1344
  252MOL   H16245844   4.033   4.678   5.229 -0.1298  0.3649  0.7795
  252MOL   H16345845   4.008   4.777   5.081  0.4820  1.0650 -0.1947
  252MOL   C16445846   3.820   4.941   5.124 -0.2381  1.1421 -0.1566
  252MOL   C16545847   3.697   5.026   5.164 -0.7272  0.8531 -0.4614
  252MOL   C16645848   3.724   5.132   5.270 -0.5038 -0.0492 -0.5094
  252MOL   H16745849   3.899   5.015   5.114  1.4625 -0.7172 -0.6673
  252MOL   H16845850   3.799   4.896   5.027  0.8899 -0.7596  0.4708
  252MOL   H16945851   3.616   4.974   5.217  0.5882  1.0878  1.8627
  252MOL   H17045852   3.645   5.207   5.277 -1.1261 -0.6632 -0.9427
  252MOL   H17145853   3.739   5.084   5.366  0.2327  2.4049  0.6439
  252MOL   H17245854   3.811   5.194   5.246 -0.3016 -0.1713 -0.0873
  252MOL   C17345855   3.615   5.080   5.050  0.3890  0.9659 -0.0463
  252MOL   C17445856   3.679   5.185   4.962 -0.2344 -0.4224  0.5253
  252MOL   C17545857   3.593   5.246   4.853  0.0647 -0.6791  0.7076
  252MOL   H17645858   3.583   5.001   4.982 -0.6500 -0.3938  1.9654
  252MOL   H17745859   3.522   5.120   5.090 -0.3524 -0.6307 -0.1544
  252MOL   H17845860   3.767   5.144   4.913  0.5362 -0.9085  2.2732
  252MOL   H17945861   3.499   5.280   4.897 -0.6417 -0.1277 -1.1737
  252MOL   H18045862   3.641   5.338   4.820 -1.0761 -0.3796 -0.1668
  252MOL   H18145863   3.557   5.180   4.774 -0.2030  0.4958 -0.1648
  252MOL   H18245864   3.704   5.270   5.026 -3.7770  0.0932  1.3243
  253MOL     C145865   4.646   0.305   3.511 -0.7096  0.2535  0.3145
  253MOL     C245866   4.586   0.221   3.404 -1.0946 -0.1950 -0.2493
  253MOL     C345867   4.447   0.167   3.433 -0.2772  0.2301  0.2923
  253MOL     H445868   4.654   0.252   3.606 -0.5090  1.1402  0.8075
  253MOL     H545869   4.570   0.375   3.545  0.4694 -0.0622  3.8000
  253MOL     H645870   4.642   0.128   3.395 -0.6767 -0.0733  0.9492
  253MOL     H745871   4.433   0.141   3.537  0.2778  2.9586  1.1037
  253MOL     H845872   4.369   0.242   3.420  1.5338  2.1407  0.1014
  253MOL     H945873   4.422   0.080   3.372 -1.1143 -0.5568  1.7580
  253MOL    H1045874   4.733   0.365   3.482 -0.9810  0.7252  0.4727
  253MOL    C1145875   4.579   0.301   3.275  0.5133  0.1858  0.0405
  253MOL    C1245876   4.586   0.204   3.151 -0.8652  0.7258 -0.7115
  253MOL    C1345877   4.447   0.195   3.086  0.0517 -0.4347 -0.0458
  253MOL    H1445878   4.491   0.364   3.279  0.7203  0.7090 -2.4967
  253MOL    H1545879   4.668   0.364   3.276  0.8960 -0.3551  0.7258
  253MOL    H1645880   4.614   0.105   3.187  2.0797  1.1011 -1.8858
  253MOL    H1745881   4.433   0.100   3.034 -0.1822 -0.5741  0.2633
  253MOL    H1845882   4.360   0.192   3.152 -1.4197 -0.6019 -1.9655
  253MOL    H1945883   4.427   0.278   3.018  0.9725 -0.2736 -0.1170
  253MOL    C2045884   4.691   0.263   3.044 -0.0075 -0.3347  0.1776
  253MOL    C2145885   4.849   0.240   3.061 -0.4907 -0.9037 -0.5126
  253MOL    C2245886   4.885   0.096   3.088  0.4639  0.2344  0.5394
  253MOL    H2345887   4.659   0.229   2.945 -1.6649 -0.0178  0.5795
  253MOL    H2445888   4.673   0.370   3.031 -1.7531 -0.8370 -1.8608
  253MOL    H2545889   4.876   0.293   3.152  0.3370 -1.2023 -0.5731
  253MOL    H2645890   4.830   0.046   3.007  0.2685  0.5537  0.4719
  253MOL    H2745891   4.990   0.071   3.075  0.0667 -1.6516  0.8334
  253MOL    H2845892   4.856   0.064   3.188 -1.4823  1.2293  0.3202
  253MOL    C2945893   4.929   0.294   2.933  0.5904 -0.3539  0.1005
  253MOL    C3045894   4.924   0.450   2.913  0.9143  0.3018  0.0036
  253MOL    C3145895   4.999   0.513   3.030  0.1361  0.3663 -0.6742
  253MOL    H3245896   5.032   0.269   2.958  0.3447 -1.7779 -0.2271
  253MOL    H3345897   4.900   0.232   2.847 -0.9979  2.2901 -1.3271
  253MOL    H3445898   4.818   0.473   2.919  0.6041 -1.3445  1.2062
  253MOL    H3545899   4.984   0.620   3.017 -1.2118  0.2807  0.0050
  253MOL    H3645900   4.943   0.486   3.120 -0.0693 -1.4116 -1.3125
  253MOL    H3745901   5.105   0.489   3.036 -0.0132 -0.1778 -0.1036
  253MOL    C3845902   4.962   0.498   2.767 -0.4846 -0.0890  0.3788
  253MOL    C3945903   5.113   0.524   2.739 -0.3737  0.3685 -0.8659
  253MOL    C4045904   5.187   0.388   2.714  0.1830  0.0464  0.0073
  253MOL    H4145905   4.921   0.420   2.702 -1.1837  2.0968 -1.8793
  253MOL    H4245906   4.900   0.583   2.739  3.8248  3.2508  0.5937
  253MOL    H4345907   5.159   0.572   2.825 -2.8216 -0.2186  0.8181
  253MOL    H4445908   5.164   0.337   2.621 -0.2909  0.6329 -0.2045
  253MOL    H4545909   5.294   0.403   2.706  0.2550  0.0413  0.9783
  253MOL    H4645910   5.183   0.322   2.800  0.7926  0.2839  0.2184
  253MOL    C4745911   5.132   0.617   2.612 -0.1999 -0.1254 -0.1964
  253MOL    C4845912   5.154   0.770   2.631 -0.2437 -0.4217 -0.4763
  253MOL    C4945913   5.172   0.831   2.497  0.0848  0.0565  0.3737
  253MOL    H5045914   5.226   0.587   2.565 -0.0780  0.4559 -0.3303
  253MOL    H5145915   5.049   0.593   2.545 -0.7120 -4.2106  1.7675
  253MOL    H5245916   5.241   0.788   2.694 -2.3945 -0.5460  2.6599
  253MOL    H5345917   5.171   0.940   2.498  0.1271  0.0819 -0.9928
  253MOL    H5445918   5.266   0.781   2.472 -0.2377  0.0425 -0.8533
  253MOL    H5545919   5.108   0.811   2.411  0.7316  1.6047 -0.4946
  253MOL    C5645920   5.034   0.831   2.702 -0.4612 -0.1321  0.3695
  253MOL    C5745921   5.048   0.983   2.751 -0.5099  0.6290 -0.0335
  253MOL    C5845922   4.914   1.059   2.718 -0.1427  0.1254  0.3572
  253MOL    H5945923   4.950   0.834   2.632 -0.1611 -0.9253 -0.0295
  253MOL    H6045924   5.010   0.769   2.789  1.2792 -1.5204 -0.1305
  253MOL    H6145925   5.119   1.041   2.693 -1.5829 -0.2669 -2.2883
  253MOL    H6245926   4.831   1.007   2.767  0.6893 -0.1034  1.5426
  253MOL    H6345927   4.914   1.158   2.761  2.0173  0.5159 -0.4871
  253MOL    H6445928   4.876   1.067   2.616 -1.9396  1.4939  1.1024
  253MOL    C6545929   5.077   0.993   2.906 -0.3370 -0.1517  0.7231
  253MOL    C6645930   5.188   0.913   2.970  0.2946 -0.0352  0.7093
  253MOL    C6745931   5.324   0.975   2.928 -0.4228  0.4903  0.0261
  253MOL    H6845932   5.072   1.098   2.934 -2.4280 -0.0522  0.0357
  253MOL    H6945933   4.985   0.956   2.952  0.2568 -1.8497  0.5814
  253MOL    H7045934   5.191   0.811   2.934 -1.1067  0.1225  0.0907
  253MOL    H7145935   5.408   0.923   2.976 -1.7246 -0.4904  1.2854
  253MOL    H7245936   5.330   0.969   2.819  1.2203  0.1278  0.1103
  253MOL    H7345937   5.331   1.079   2.960  0.8790  0.3028  0.3981
  253MOL    C7445938   5.183   0.905   3.120  0.3506  0.0565 -0.1839
  253MOL    C7545939   5.176   1.048   3.193 -0.3652  0.2121 -0.0585
  253MOL    C7645940   5.038   1.054   3.267 -0.4310  0.2362 -0.1621
  253MOL    H7745941   5.099   0.843   3.151  0.9861  0.0449  1.5775
  253MOL    H7845942   5.272   0.851   3.154 -0.2170 -1.1480 -0.5674
  253MOL    H7945943   5.181   1.119   3.111 -3.9364  2.1226  1.3106
  253MOL    H8045944   5.028   1.159   3.293 -1.2292  0.3777 -0.9946
  253MOL    H8145945   4.947   1.036   3.208 -0.9663  0.4117  0.6102
  253MOL    H8245946   5.038   0.991   3.356  0.6315 -0.9698 -1.0045
  253MOL    C8345947   5.292   1.073   3.298  0.2015  0.5675  0.2234
  253MOL    C8445948   5.300   1.207   3.372 -0.2637 -0.1879  0.1101
  253MOL    C8545949   5.399   1.184   3.487  0.4930  0.7853  0.3513
  253MOL    H8645950   5.292   0.991   3.370 -1.7319  0.7638  0.4738
  253MOL    H8745951   5.390   1.058   3.252 -0.0071  0.6389 -0.2446
  253MOL    H8845952   5.197   1.229   3.399 -0.2880 -2.0250  1.6245
  253MOL    H8945953   5.396   1.268   3.557 -0.0467  1.7857 -0.8446
  253MOL    H9045954   5.373   1.090   3.535  1.2700 -0.6879 -2.0496
  253MOL    H9145955   5.503   1.189   3.455  0.4460 -0.9875 -0.1025
  253MOL    C9245956   5.340   1.333   3.285 -0.2184 -0.1380  0.2083
  253MOL    C9345957   5.295   1.476   3.320  0.2689  0.3834  0.1563
  253MOL    C9445958   5.145   1.491   3.307 -0.1247 -0.8222 -0.1884
  253MOL    H9545959   5.445   1.328   3.255 -0.1956 -1.1568  0.4447
  253MOL    H9645960   5.299   1.313   3.186  0.6099 -1.2673  0.0909
  253MOL    H9745961   5.343   1.541   3.248 -0.7825 -0.1063 -0.9982
  253MOL    H9845962   5.123   1.598   3.307  1.5894 -0.4589 -1.5887
  253MOL    H9945963   5.103   1.465   3.210  0.2469  0.7709 -0.7926
  253MOL   H10045964   5.087   1.430   3.377  1.2896 -2.5203 -0.4702
  253MOL   C10145965   5.344   1.527   3.463 -0.2098  0.4941 -0.2535
  253MOL   C10245966   5.499   1.523   3.470 -0.3388  0.0790  0.0851
  253MOL   C10345967   5.561   1.631   3.374 -0.4144 -0.4961 -0.7600
  253MOL   H10445968   5.298   1.623   3.486  0.7435  0.6743  0.9006
  253MOL   H10545969   5.305   1.466   3.544 -1.5151 -1.3357 -2.2002
  253MOL   H10645970   5.541   1.424   3.454  1.1344  0.8723 -1.0726
  253MOL   H10745971   5.504   1.724   3.380  1.2430  0.4846 -0.0721
  253MOL   H10845972   5.664   1.655   3.399 -0.5785 -0.3416 -0.2174
  253MOL   H10945973   5.585   1.581   3.280 -1.0245  0.1110 -1.2501
  253MOL   C11045974   5.545   1.552   3.616  0.4673 -0.3910 -0.2749
  253MOL   C11145975   5.693   1.513   3.652  0.4662 -0.3105  0.0933
  253MOL   C11245976   5.725   1.579   3.787  0.0502 -0.4647 -0.1260
  253MOL   H11345977   5.553   1.660   3.633 -1.3063  0.0616 -2.0913
  253MOL   H11445978   5.466   1.521   3.684  1.1078 -1.1833  0.1063
  253MOL   H11545979   5.764   1.547   3.576  0.3498 -1.3599 -0.4886
  253MOL   H11645980   5.668   1.532   3.867  0.7599 -1.6241 -0.2945
  253MOL   H11745981   5.826   1.578   3.827 -0.5207  0.9428  1.4003
  253MOL   H11845982   5.698   1.684   3.786  1.5408 -0.0714  0.2548
  253MOL   C11945983   5.704   1.364   3.659  0.5038  0.7190  0.4387
  253MOL   C12045984   5.830   1.287   3.707  0.0486  0.3313  0.1274
  253MOL   C12145985   5.801   1.139   3.718  0.7753  0.1161 -0.2159
  253MOL   H12245986   5.620   1.324   3.715  0.3165 -0.5208 -0.7049
  253MOL   H12345987   5.678   1.323   3.562  0.4929  1.5019  0.1068
  253MOL   H12445988   5.865   1.324   3.803  0.8187  2.0875 -0.7946
  253MOL   H12545989   5.755   1.107   3.625  2.7907  0.2549 -1.2975
  253MOL   H12645990   5.893   1.085   3.742  1.0381  0.0707 -1.2898
  253MOL   H12745991   5.739   1.126   3.806 -0.6649 -0.1863 -1.2614
  253MOL   C12845992   5.947   1.306   3.599  0.1984 -0.4399 -0.3626
  253MOL   C12945993   6.037   1.422   3.653 -0.1838  0.0993 -0.4376
  253MOL   C13045994   6.147   1.374   3.749 -0.2047  0.7483 -0.4070
  253MOL   H13145995   6.016   1.222   3.590  0.4260 -0.2325 -0.5607
  253MOL   H13245996   5.906   1.327   3.501 -2.1062  1.7730  1.0074
  253MOL   H13345997   5.969   1.494   3.698  0.5572  0.7387 -0.3471
  253MOL   H13445998   6.192   1.280   3.714 -1.9171 -0.3429  0.2904
  253MOL   H13545999   6.217   1.451   3.782  1.5211 -0.1687 -1.7921
  253MOL   H13646000   6.099   1.343   3.841  0.5591 -2.3634 -0.9785
  253MOL   C13746001   6.113   1.486   3.541  0.9854 -0.5363  0.6191
  253MOL   C13846002   6.032   1.573   3.438  0.6023  0.1093  0.0663
  253MOL   C13946003   6.017   1.717   3.487 -0.3203 -0.5403 -0.7964
  253MOL   H14046004   6.185   1.557   3.581 -0.0323  0.9706 -0.1284
  253MOL   H14146005   6.169   1.406   3.493 -0.9939 -0.6245 -1.6673
  253MOL   H14246006   5.942   1.523   3.404  0.5268  0.1206  0.2491
  253MOL   H14346007   5.966   1.787   3.421  1.1139  1.0969 -0.1983
  253MOL   H14446008   5.960   1.726   3.579 -1.3441  1.7639 -1.6262
  253MOL   H14546009   6.109   1.773   3.498 -0.5657 -0.4257  0.7514
  253MOL   C14646010   6.109   1.578   3.302 -0.0496  0.0173 -0.0662
  253MOL   C14746011   6.051   1.663   3.191  0.4195 -0.1142 -0.6590
  253MOL   C14846012   6.128   1.643   3.064 -0.2078 -0.0078 -0.7349
  253MOL   H14946013   6.209   1.612   3.329  0.2386  0.2641 -1.4014
  253MOL   H15046014   6.122   1.475   3.268  2.2089 -0.0471  0.9213
  253MOL   H15146015   6.078   1.763   3.225  2.2216 -1.5098  2.2586
  253MOL   H15246016   6.112   1.546   3.019  1.3652 -0.4302 -0.4242
  253MOL   H15346017   6.105   1.716   2.986  1.0747 -0.5574 -1.6400
  253MOL   H15446018   6.236   1.656   3.076 -0.2893  1.3760 -1.3655
  253MOL   C15546019   5.892   1.640   3.170  0.0643  0.3609 -0.5934
  253MOL   C15646020   5.831   1.704   3.044  0.2462  0.2624  0.2579
  253MOL   C15746021   5.681   1.683   3.034  0.3445  0.4938 -0.5049
  253MOL   H15846022   5.875   1.533   3.160  0.0309  0.2449  0.5565
  253MOL   H15946023   5.843   1.684   3.257  0.9242  0.2652 -0.0519
  253MOL   H16046024   5.867   1.643   2.961  1.4392  0.9487  0.2601
  253MOL   H16146025   5.648   1.705   2.933  2.8996 -0.0324 -1.4752
  253MOL   H16246026   5.660   1.578   3.054  1.4649 -0.1848 -2.7140
  253MOL   H16346027   5.626   1.747   3.103  0.2651  0.2300 -0.3217
  253MOL   C16446028   5.861   1.855   3.027 -0.6615  0.3309 -0.1666
  253MOL   C16546029   5.841   1.925   2.887 -0.0424  0.1171 -0.0983
  253MOL   C16646030   5.701   1.976   2.876  0.6243  0.0015  0.0132
  253MOL   H16746031   5.824   1.919   3.107  0.8969  1.5230 -0.3743
  253MOL   H16846032   5.965   1.856   3.060 -1.4600  0.6377  2.4925
  253MOL   H16946033   5.853   1.854   2.805 -0.3884 -0.7499  0.6035
  253MOL   H17046034   5.628   1.897   2.859  0.1190  0.2254  1.0750
  253MOL   H17146035   5.675   2.033   2.966 -1.0996 -1.6804  0.6140
  253MOL   H17246036   5.683   2.043   2.792  0.2330  2.4249  1.9378
  253MOL   C17346037   5.940   2.043   2.865 -0.5914 -0.7968  0.4234
  253MOL   C17446038   5.920   2.129   2.737  0.4497  0.1767 -0.5302
  253MOL   C17546039   6.024   2.240   2.729  0.2125 -0.0550 -0.4348
  253MOL   H17646040   5.934   2.117   2.945  2.7628  0.7836 -0.6968
  253MOL   H17746041   6.041   2.005   2.858 -0.1987  0.2967 -0.0374
  253MOL   H17846042   5.824   2.181   2.733  0.5512  0.5353  1.1620
  253MOL   H17946043   6.028   2.301   2.819  1.7257 -0.9686  0.1291
  253MOL   H18046044   6.126   2.209   2.709  0.0676  0.1511 -1.5698
  253MOL   H18146045   5.983   2.306   2.652  1.2563  2.8381  1.4020
  253MOL   H18246046   5.922   2.074   2.643  0.1845 -1.2475  0.2767
  254MOL     C146047   0.358   5.497   4.998  0.0148 -0.0532  0.0248
  254MOL     C246048   0.357   5.370   5.087 -0.4252  0.8732 -0.3444
  254MOL     C346049   0.311   5.416   5.226  0.4989  0.5624 -0.0409
  254MOL     H446050   0.260   5.504   4.951  0.7963  0.7419 -1.5134
  254MOL     H546051   0.420   5.482   4.910  0.8513 -1.6763  0.8713
  254MOL     H646052   0.453   5.319   5.095 -1.1560 -0.3940  0.4070
  254MOL     H746053   0.217   5.470   5.221 -0.6063 -1.5363 -2.9154
  254MOL     H846054   0.300   5.334   5.298 -1.8080  1.6216  0.8411
  254MOL     H946055   0.391   5.474   5.273  0.0559 -0.4040  1.9849
  254MOL    H1046056   0.380   5.594   5.043  0.9358 -0.1704 -0.1623
  254MOL    C1146057   0.247   5.270   5.031  0.5229  0.4315 -0.4089
  254MOL    C1246058   0.294   5.196   4.900 -0.0930 -0.0508  0.5715
  254MOL    C1346059   0.422   5.116   4.932 -0.0943 -0.5146 -0.3168
  254MOL    H1446060   0.229   5.196   5.109  0.1088  1.3620  0.3982
  254MOL    H1546061   0.146   5.311   5.025  0.3715  0.2458  0.7673
  254MOL    H1646062   0.312   5.272   4.824 -0.4437  0.2479  0.7857
  254MOL    H1746063   0.375   5.028   4.977 -0.2156 -0.3169 -0.0614
  254MOL    H1846064   0.467   5.081   4.839  0.5008 -0.0890 -0.1879
  254MOL    H1946065   0.508   5.161   4.981  0.8183 -0.6729 -1.7603
  254MOL    C2046066   0.189   5.108   4.826 -0.5713  0.5487 -0.6130
  254MOL    C2146067   0.094   5.185   4.731  0.3837 -0.7128 -0.4457
  254MOL    C2246068   0.169   5.238   4.603 -0.0720  0.2781  0.1187
  254MOL    H2346069   0.235   5.023   4.774 -1.3544 -0.2273 -0.0543
  254MOL    H2446070   0.125   5.067   4.904  0.4187  0.9938  0.4582
  254MOL    H2546071   0.079   5.280   4.782 -1.5583 -0.7660 -0.8910
  254MOL    H2646072   0.251   5.304   4.629 -0.9251  1.3582  0.1089
  254MOL    H2746073   0.217   5.164   4.539  0.3552  1.3784 -0.8443
  254MOL    H2846074   0.105   5.296   4.537 -0.0890 -0.2814 -0.3569
  254MOL    C2946075   7.660   5.113   4.692 -0.3288  0.1451  0.1674
  254MOL    C3046076   7.529   5.207   4.663 -0.7199  0.0907  0.7146
  254MOL    C3146077   7.435   5.147   4.558  0.0960 -0.1747 -0.5171
  254MOL    H3246078   7.677   5.050   4.605  0.3596 -1.2020  1.2481
  254MOL    H3346079   7.631   5.049   4.776  0.1897  0.8347  0.8821
  254MOL    H3446080   7.567   5.297   4.613  1.5002 -0.4206  1.4321
  254MOL    H3546081   7.397   5.050   4.589 -0.6695  0.5255  0.7951
  254MOL    H3646082   7.358   5.224   4.552  2.0212  2.0152  1.8999
  254MOL    H3746083   7.467   5.125   4.456 -3.8952 -0.2220 -1.8814
  254MOL    C3846084   7.448   5.263   4.779 -0.1577  0.7614  0.3385
  254MOL    C3946085   7.444   5.416   4.784 -0.1712  0.6819 -0.0036
  254MOL    C4046086   7.378   5.475   4.659 -0.0893  0.2005 -0.1871
  254MOL    H4146087   7.350   5.214   4.788  0.3097 -0.0478  1.1048
  254MOL    H4246088   7.499   5.230   4.869 -1.0978  1.9080  1.3123
  254MOL    H4346089   7.549   5.446   4.780 -0.0163  0.1645  0.1928
  254MOL    H4446090   7.275   5.443   4.676  0.0815 -1.0680 -1.4145
  254MOL    H4546091   7.375   5.584   4.652 -1.7361  0.0798 -2.0036
  254MOL    H4646092   7.417   5.438   4.564  0.5356 -0.0456  0.1641
  254MOL    C4746093   7.374   5.471   4.904  0.5261 -0.2640 -0.2607
  254MOL    C4846094   7.444   5.433   5.041  0.3913  0.2149  0.5098
  254MOL    C4946095   7.594   5.453   5.043  0.4414  0.4329 -0.4040
  254MOL    H5046096   7.369   5.578   4.885 -0.6310 -0.1866  0.4406
  254MOL    H5146097   7.270   5.438   4.913  0.8806 -1.8005 -1.4966
  254MOL    H5246098   7.427   5.328   5.065 -1.2337  0.0255 -1.3233
  254MOL    H5346099   7.647   5.383   4.980 -1.5178 -1.2702 -0.2336
  254MOL    H5446100   7.617   5.554   5.010  1.2504  0.8027  1.2325
  254MOL    H5546101   7.630   5.452   5.146  2.6128  0.6924 -1.1521
  254MOL    C5646102   7.374   5.514   5.159 -0.5836 -0.4818 -0.5470
  254MOL    C5746103   7.232   5.464   5.189  0.2078 -0.2498 -0.1720
  254MOL    C5846104   7.219   5.309   5.191  0.5349 -0.2567 -0.4811
  254MOL    H5946105   7.447   5.508   5.240  0.4801 -0.1728 -1.4629
  254MOL    H6046106   7.366   5.622   5.141 -0.4421 -0.5241 -0.8742
  254MOL    H6146107   7.163   5.505   5.116 -2.0202 -1.1956  1.3462
  254MOL    H6246108   7.223   5.257   5.096 -0.8098  1.4353 -1.4770
  254MOL    H6346109   7.299   5.275   5.257  1.2807  1.2039 -0.6112
  254MOL    H6446110   7.122   5.267   5.219  0.5704  1.1654  1.9552
  254MOL    C6546111   7.174   5.537   5.312  0.5576 -0.1089 -1.0046
  254MOL    C6646112   7.035   5.614   5.294 -0.9939 -0.4151  0.2138
  254MOL    C6746113   6.937   5.523   5.231 -0.1380  0.1368  0.1433
  254MOL    H6846114   7.159   5.465   5.393 -0.8408  0.8420 -0.4048
  254MOL    H6946115   7.251   5.601   5.353  0.3654 -0.9941  0.7727
  254MOL    H7046116   7.052   5.701   5.230  2.6212 -1.7881 -0.7761
  254MOL    H7146117   6.917   5.434   5.291  3.4299 -0.7360  0.1942
  254MOL    H7246118   6.845   5.580   5.217 -0.0627  0.4046  0.7212
  254MOL    H7346119   6.965   5.482   5.134  0.6149 -0.2586  0.5238
  254MOL    C7446120   6.975   5.660   5.433 -0.0717  0.1636 -0.2531
  254MOL    C7546121   7.001   5.799   5.486 -0.2129 -0.7489 -0.2852
  254MOL    C7646122   7.156   5.827   5.503  0.1101  0.6309  0.2294
  254MOL    H7746123   6.868   5.638   5.432  0.3656 -2.3591  1.4076
  254MOL    H7846124   7.005   5.578   5.499  0.5554  1.6278  1.3070
  254MOL    H7946125   6.960   5.806   5.587  2.0717  0.4898  0.6091
  254MOL    H8046126   7.195   5.750   5.569  2.5522  2.6125  1.1695
  254MOL    H8146127   7.196   5.832   5.402 -1.4841  1.2480 -0.3891
  254MOL    H8246128   7.180   5.922   5.550 -0.7686  0.3875  1.1742
  254MOL    C8346129   6.935   5.902   5.391 -0.1869 -0.5751  0.1759
  254MOL    C8446130   6.785   5.903   5.357 -0.5259 -0.3449  0.2771
  254MOL    C8546131   6.705   5.945   5.484 -0.1903  0.4626 -0.5680
  254MOL    H8646132   6.966   5.996   5.438  1.4833 -1.9180  1.8092
  254MOL    H8746133   6.983   5.909   5.293 -0.4334  1.7260  0.1774
  254MOL    H8846134   6.752   5.802   5.333 -3.3432  0.7774 -0.7992
  254MOL    H8946135   6.730   6.049   5.505  0.5247  0.1209  0.3380
  254MOL    H9046136   6.597   5.931   5.478 -0.2911  0.8255  0.2099
  254MOL    H9146137   6.738   5.894   5.575  1.6476  0.8182 -1.0129
  254MOL    C9246138   6.761   6.004   5.241  0.3508  0.0803  0.3116
  254MOL    C9346139   6.767   5.928   5.103 -0.3675  1.0989  0.6018
  254MOL    C9446140   6.640   5.835   5.075 -0.0696  0.0535  0.0305
  254MOL    H9546141   6.662   6.045   5.262  0.0013 -0.2164 -0.7546
  254MOL    H9646142   6.824   6.092   5.237 -2.0212  1.7367 -1.6272
  254MOL    H9746143   6.860   5.872   5.111  0.7651  2.8521 -0.1205
  254MOL    H9846144   6.659   5.777   4.984  1.8473 -0.4562  0.7404
  254MOL    H9946145   6.626   5.761   5.154  1.5356 -0.2606  0.0444
  254MOL   H10046146   6.552   5.898   5.066 -0.8555 -0.8337  1.2810
  254MOL   C10146147   6.795   6.027   4.975  0.4125  0.6230 -0.2349
  254MOL   C10246148   6.867   5.962   4.859  0.6556 -0.3727  0.2817
  254MOL   C10346149   6.854   6.061   4.737 -0.0147  0.0043 -0.5616
  254MOL   H10446150   6.694   6.053   4.946 -0.9114 -2.6884  1.2212
  254MOL   H10546151   6.840   6.121   5.008 -0.5230  0.7792  0.5911
  254MOL   H10646152   6.805   5.875   4.836 -0.3190 -0.0069  1.5084
  254MOL   H10746153   6.748   6.075   4.715 -0.6178 -0.8908  1.6101
  254MOL   H10846154   6.900   6.155   4.767  0.6780 -0.5325  0.0616
  254MOL   H10946155   6.902   6.027   4.645  0.5959  0.8181 -0.5482
  254MOL   C11046156   7.014   5.930   4.883 -0.6550 -0.3042  0.3908
  254MOL   C11146157   7.089   5.857   4.771 -0.1899 -0.2414  0.2791
  254MOL   C11246158   7.239   5.858   4.803  0.3516 -0.1949  0.3553
  254MOL   H11346159   7.065   6.025   4.901 -0.1341 -0.7730  1.3695
  254MOL   H11446160   7.043   5.888   4.979  1.3342  0.9095  0.3477
  254MOL   H11546161   7.078   5.921   4.683  0.0080 -1.8215 -0.9128
  254MOL   H11646162   7.255   5.803   4.896  0.0036 -1.1127 -0.1248
  254MOL   H11746163   7.299   5.807   4.728  1.2054  0.2042  0.7687
  254MOL   H11846164   7.268   5.963   4.809 -0.1654 -0.0488  0.3845
  254MOL   C11946165   7.036   5.708   4.751  0.4160 -0.0538  0.2461
  254MOL   C12046166   6.983   5.687   4.603  0.2327  0.3727  0.4548
  254MOL   C12146167   7.099   5.705   4.497  0.4868 -0.3633  0.4391
  254MOL   H12246168   7.110   5.629   4.762 -2.1840 -2.9917 -2.1839
  254MOL   H12346169   6.956   5.689   4.822  2.0321  0.3253  2.1930
  254MOL   H12446170   6.909   5.765   4.584 -1.9648 -1.2745  1.9972
  254MOL   H12546171   7.055   5.708   4.398 -2.2954 -0.6148  1.5907
  254MOL   H12646172   7.157   5.795   4.513  2.2372 -1.3715 -0.1378
  254MOL   H12746173   7.166   5.619   4.496  0.5092 -0.4924  4.2556
  254MOL   C12846174   6.917   5.549   4.580 -0.4946  0.0541  1.0108
  254MOL   C12946175   6.773   5.528   4.636  0.1651 -0.1506  0.2254
  254MOL   C13046176   6.663   5.608   4.562 -0.3522  0.2300  0.3416
  254MOL   H13146177   6.907   5.517   4.477  0.0953  1.3215  0.5487
  254MOL   H13246178   6.980   5.471   4.622 -0.4675 -0.2271  0.4522
  254MOL   H13346179   6.771   5.563   4.739  0.3936 -1.4076  0.6680
  254MOL   H13446180   6.690   5.713   4.547  0.4215 -0.0692 -0.4291
  254MOL   H13546181   6.641   5.557   4.468  2.7872 -1.5768  0.4850
  254MOL   H13646182   6.573   5.615   4.623 -0.0362 -0.9711  0.9609
  254MOL   C13746183   6.724   5.381   4.647 -0.0136  0.0076  0.0488
  254MOL   C13846184   6.784   5.302   4.763 -0.4767  0.0885  0.3648
  254MOL   C13946185   6.697   5.308   4.890 -0.7981  0.2243 -0.1925
  254MOL   H14046186   6.616   5.378   4.660  0.0336 -1.4588  0.2625
  254MOL   H14146187   6.744   5.337   4.550  0.3673 -0.7580  0.4673
  254MOL   H14246188   6.877   5.353   4.787 -0.2829  0.6496 -1.4891
  254MOL   H14346189   6.663   5.408   4.919  0.0513  0.9549 -1.6220
  254MOL   H14446190   6.614   5.239   4.896 -0.3196 -0.4507 -1.1994
  254MOL   H14546191   6.759   5.267   4.970  0.9800  1.0359 -1.1065
  254MOL   C14646192   6.801   5.161   4.716  0.0876 -0.1777  0.3798
  254MOL   C14746193   6.929   5.141   4.638 -0.1100 -1.0215  0.3813
  254MOL   C14846194   7.052   5.136   4.737  0.0409 -0.4600 -0.4095
  254MOL   H14946195   6.793   5.101   4.807  0.0351 -0.6108  0.0906
  254MOL   H15046196   6.719   5.143   4.647  2.1743  0.4842 -2.3583
  254MOL   H15146197   6.939   5.226   4.570 -1.6479 -0.3389  0.9687
  254MOL   H15246198   7.075   5.239   4.765 -0.2602 -0.1979 -1.1199
  254MOL   H15346199   7.041   5.066   4.819  3.1347  2.0356  2.2854
  254MOL   H15446200   7.138   5.111   4.674  1.0762 -1.1204  1.2416
  254MOL   C15546201   6.923   5.011   4.548  0.3288 -0.2989 -0.1942
  254MOL   C15646202   6.927   4.867   4.604 -0.3933 -0.0920  0.1113
  254MOL   C15746203   6.794   4.816   4.661  0.4562  0.5642 -0.2758
  254MOL   H15846204   6.834   5.022   4.486  0.9592 -2.0554 -1.4677
  254MOL   H15946205   7.003   5.018   4.474 -0.3558 -0.7412 -0.9893
  254MOL   H16046206   6.999   4.879   4.685 -1.1899  2.3645  0.5095
  254MOL   H16146207   6.805   4.709   4.672  0.2091  0.3589 -1.8526
  254MOL   H16246208   6.778   4.873   4.753  2.3387  1.0162 -0.1966
  254MOL   H16346209   6.717   4.828   4.584  1.4697 -0.8437 -1.5407
  254MOL   C16446210   6.977   4.757   4.509  0.2431 -0.1089 -0.4885
  254MOL   C16546211   7.120   4.768   4.460  0.6086 -0.4036 -0.5801
  254MOL   C16646212   7.212   4.723   4.576  0.1982 -0.1439 -0.0442
  254MOL   H16746213   6.971   4.654   4.543  0.1227  0.0073 -0.1525
  254MOL   H16846214   6.905   4.763   4.429 -3.1123  0.8572  2.4696
  254MOL   H16946215   7.151   4.872   4.450  2.1837 -0.8217 -0.1466
  254MOL   H17046216   7.314   4.735   4.539 -0.3217  1.7605 -0.9303
  254MOL   H17146217   7.195   4.797   4.654  0.8919 -0.1350  0.0982
  254MOL   H17246218   7.181   4.623   4.604 -0.4538 -0.3315 -1.3773
  254MOL   C17346219   7.145   4.694   4.327 -0.8885  0.0558  0.1037
  254MOL   C17446220   7.117   4.546   4.323 -0.5150 -0.5927  0.4859
  254MOL   C17546221   7.128   4.484   4.182 -0.7046 -0.3350 -0.6568
  254MOL   H17646222   7.099   4.753   4.248  1.0079 -0.1512 -1.1659
  254MOL   H17746223   7.252   4.703   4.309 -0.7506  0.2101  0.9547
  254MOL   H17846224   7.018   4.528   4.365 -0.3360 -0.8108  0.8231
  254MOL   H17946225   7.055   4.532   4.116  2.0282  1.3057 -2.6014
  254MOL   H18046226   7.228   4.503   4.143  0.3149 -2.0149  1.0461
  254MOL   H18146227   7.122   4.375   4.182 -0.7208 -0.3697  1.7521
  254MOL   H18246228   7.185   4.494   4.391  1.6827 -0.4778 -1.5456
  255MOL     C146229   3.766   1.479   2.519  0.3263  0.7799 -0.1193
  255MOL     C246230   3.734   1.623   2.469 -0.3512 -0.2772 -0.1644
  255MOL     C346231   3.859   1.697   2.442 -0.4045  0.7274 -0.3522
  255MOL     H446232   3.836   1.480   2.602 -0.6951 -1.5056  0.8060
  255MOL     H546233   3.826   1.431   2.442  0.4229 -0.0989  0.4935
  255MOL     H646234   3.684   1.661   2.558 -0.5369 -1.5098  0.2605
  255MOL     H746235   3.889   1.673   2.340 -0.6893  1.6419 -0.6586
  255MOL     H846236   3.820   1.798   2.443  0.0818  0.9140  1.2924
  255MOL     H946237   3.942   1.696   2.513 -1.8581  1.7682  1.3930
  255MOL    H1046238   3.685   1.418   2.558 -0.1246  1.1769 -0.4341
  255MOL    C1146239   3.640   1.620   2.352 -0.1587 -0.2838 -0.1341
  255MOL    C1246240   3.583   1.759   2.310  0.4034 -0.4770  0.3362
  255MOL    C1346241   3.495   1.738   2.194  0.3712  0.7533  0.1979
  255MOL    H1446242   3.675   1.567   2.264  3.4909 -2.1278  2.3290
  255MOL    H1546243   3.558   1.555   2.382  0.1007 -0.6852 -0.2974
  255MOL    H1646244   3.670   1.819   2.286  1.4996 -1.6574  1.3033
  255MOL    H1746245   3.509   1.831   2.138  0.0606 -1.0871 -3.0321
  255MOL    H1846246   3.544   1.671   2.123 -2.5123 -0.8632 -0.3408
  255MOL    H1946247   3.390   1.712   2.207  0.1905 -0.2715 -2.9268
  255MOL    C2046248   3.507   1.846   2.414 -0.0100 -0.1752  0.5202
  255MOL    C2146249   3.507   2.001   2.371 -0.2657  0.5160  0.2549
  255MOL    C2246250   3.375   2.070   2.411  1.2829  0.0801 -0.2474
  255MOL    H2346251   3.404   1.810   2.421  0.1663 -1.6916 -3.3038
  255MOL    H2446252   3.547   1.842   2.515  2.3956  1.2749 -0.3426
  255MOL    H2546253   3.501   2.007   2.262 -0.9525 -0.3462  0.2386
  255MOL    H2646254   3.371   2.103   2.514  2.4972  1.5249 -0.6439
  255MOL    H2746255   3.372   2.168   2.364 -0.4439 -1.4877 -3.5817
  255MOL    H2846256   3.284   2.016   2.385  0.8747  1.0203 -0.8184
  255MOL    C2946257   3.624   2.080   2.423 -0.1532 -0.4487  0.6533
  255MOL    C3046258   3.650   2.215   2.341 -0.4869  0.8405 -0.1900
  255MOL    C3146259   3.698   2.329   2.434  0.1787 -0.5257 -0.1263
  255MOL    H3246260   3.607   2.089   2.531 -1.1238  0.3156  0.4399
  255MOL    H3346261   3.710   2.015   2.406 -1.1519 -1.0097 -2.4327
  255MOL    H3446262   3.555   2.258   2.310  0.1408  2.0106 -0.4834
  255MOL    H3546263   3.807   2.329   2.437  0.2881  2.5580 -2.0783
  255MOL    H3646264   3.657   2.423   2.399 -1.4188 -0.7012  1.2280
  255MOL    H3746265   3.663   2.312   2.536 -0.5929  0.0259 -0.2974
  255MOL    C3846266   3.732   2.205   2.208 -0.1118 -0.1422 -0.7374
  255MOL    C3946267   3.738   2.325   2.110 -0.0975  0.3389  0.8654
  255MOL    C4046268   3.834   2.303   1.990  1.0541 -0.2174 -0.4350
  255MOL    H4146269   3.835   2.183   2.235 -0.1150  0.7158 -0.0019
  255MOL    H4246270   3.707   2.112   2.157 -1.6806 -0.5544  0.7192
  255MOL    H4346271   3.782   2.401   2.175  2.0823 -1.2944  1.3576
  255MOL    H4446272   3.937   2.286   2.020  1.7539  1.1954 -1.9608
  255MOL    H4546273   3.811   2.212   1.935 -2.1533  0.4957 -0.3882
  255MOL    H4646274   3.830   2.383   1.916  0.1227  1.7675  1.6770
  255MOL    C4746275   3.600   2.344   2.047  0.3139  0.2801  0.0622
  255MOL    C4846276   3.513   2.465   2.110 -0.5700  0.0769 -0.7453
  255MOL    C4946277   3.571   2.598   2.064  0.0559 -0.1342  0.0598
  255MOL    H5046278   3.605   2.372   1.942 -0.4468  0.5331  0.0867
  255MOL    H5146279   3.549   2.248   2.042 -0.1967  0.6596 -2.4530
  255MOL    H5246280   3.524   2.481   2.218 -0.5603  0.1053 -0.7504
  255MOL    H5346281   3.565   2.612   1.956 -4.2443  1.7064  0.4276
  255MOL    H5446282   3.533   2.691   2.106 -0.9060 -0.0151 -1.0369
  255MOL    H5546283   3.671   2.591   2.107 -0.3355 -1.5197  0.7770
  255MOL    C5646284   3.368   2.447   2.069 -0.7867  0.0795 -0.4857
  255MOL    C5746285   3.279   2.371   2.167 -0.1527  0.2662 -0.1537
  255MOL    C5846286   3.262   2.446   2.301 -0.2431  0.5872  1.0573
  255MOL    H5946287   3.328   2.548   2.057 -1.0742 -0.1465 -1.4420
  255MOL    H6046288   3.371   2.400   1.972  1.2067 -2.2216  0.6559
  255MOL    H6146289   3.331   2.278   2.189  1.6395  1.1277 -0.6813
  255MOL    H6246290   3.200   2.395   2.374 -0.7839  1.0099  0.8947
  255MOL    H6346291   3.360   2.461   2.345  0.6673 -0.6690 -0.4534
  255MOL    H6446292   3.231   2.550   2.294 -1.7127  0.0244 -1.7602
  255MOL    C6546293   3.134   2.346   2.112 -0.2037 -0.4674  0.3890
  255MOL    C6646294   3.131   2.223   2.020  0.1084 -0.2208 -0.6994
  255MOL    C6746295   3.096   2.096   2.107 -0.7366 -0.2711 -0.3673
  255MOL    H6846296   3.062   2.345   2.193 -0.1626  1.9716  0.4939
  255MOL    H6946297   3.103   2.438   2.060 -0.0637 -1.7295 -2.0037
  255MOL    H7046298   3.229   2.217   1.973 -0.3555 -1.3136 -1.5835
  255MOL    H7146299   3.187   2.076   2.164 -1.9189 -1.9614  0.9461
  255MOL    H7246300   3.011   2.123   2.169  0.5814  0.1827  1.2879
  255MOL    H7346301   3.076   2.012   2.040 -1.4245  0.4002 -1.0238
  255MOL    C7446302   3.045   2.243   1.895  0.2321 -0.4280  0.0959
  255MOL    C7546303   2.894   2.226   1.899  0.4319  0.6001 -0.1287
  255MOL    C7646304   2.827   2.358   1.969  0.1606 -0.6207 -0.1403
  255MOL    H7746305   3.073   2.333   1.841 -1.6204 -0.5078 -1.0482
  255MOL    H7846306   3.089   2.166   1.832 -1.8155 -1.6426  0.0722
  255MOL    H7946307   2.865   2.136   1.954 -0.5333 -0.5944 -2.5453
  255MOL    H8046308   2.879   2.450   1.942 -0.6056  0.3914  1.7371
  255MOL    H8146309   2.720   2.358   1.945 -0.2467 -1.6519  1.6046
  255MOL    H8246310   2.836   2.364   2.077 -1.1398 -3.5982  0.1881
  255MOL    C8346311   2.842   2.194   1.755  0.1506 -0.4227 -0.6330
  255MOL    C8446312   2.857   2.049   1.698 -0.1680 -0.1571  0.5513
  255MOL    C8546313   2.795   1.948   1.796  0.4127 -0.6880 -0.7421
  255MOL    H8646314   2.737   2.222   1.762  0.2785 -0.3321  1.3240
  255MOL    H8746315   2.885   2.270   1.691  0.2192  0.2193  0.1733
  255MOL    H8846316   2.958   2.009   1.693  0.7081  1.8458  1.7434
  255MOL    H8946317   2.791   1.846   1.758  1.5822 -0.6085 -1.0997
  255MOL    H9046318   2.869   1.942   1.876  1.6519 -0.6789 -1.8744
  255MOL    H9146319   2.698   1.987   1.828  0.9542 -0.5565  0.7516
  255MOL    C9246320   2.791   2.024   1.562 -0.1299  0.3516  0.4504
  255MOL    C9346321   2.867   2.088   1.447 -0.7216 -0.0942  0.6715
  255MOL    C9446322   2.890   1.997   1.326  0.4258 -0.5300  0.8491
  255MOL    H9546323   2.794   1.916   1.548  0.0430  0.6249 -1.8632
  255MOL    H9646324   2.685   2.048   1.553 -0.7205 -2.1420  0.5322
  255MOL    H9746325   2.969   2.111   1.479  0.5489 -1.7097 -2.0112
  255MOL    H9846326   2.805   1.938   1.291 -0.2942  1.0890 -0.2242
  255MOL    H9946327   2.928   2.048   1.238  2.7655 -2.9268  0.4091
  255MOL   H10046328   2.958   1.916   1.349  2.4459  0.9795  0.2823
  255MOL   C10146329   2.810   2.236   1.409 -0.3649 -0.6428 -0.1339
  255MOL   C10246330   2.913   2.314   1.315  1.2537 -0.1568  0.3318
  255MOL   C10346331   2.833   2.401   1.211  0.7450  0.1674  0.1218
  255MOL   H10446332   2.718   2.209   1.357  0.7261 -0.6550 -2.1030
  255MOL   H10546333   2.773   2.300   1.489 -0.2292 -0.5727 -0.1274
  255MOL   H10646334   2.973   2.247   1.254 -0.4666  0.8629 -2.6080
  255MOL   H10746335   2.894   2.482   1.170  1.2941 -0.8305 -1.0666
  255MOL   H10846336   2.779   2.341   1.138  1.2092  0.0751 -0.1560
  255MOL   H10946337   2.751   2.452   1.261  1.3952  0.3606  0.9997
  255MOL   C11046338   3.006   2.403   1.401  0.5245  0.4506  0.5964
  255MOL   C11146339   3.152   2.407   1.348 -0.4633 -1.1880  0.2720
  255MOL   C11246340   3.166   2.464   1.200 -0.0398 -0.4488  0.0697
  255MOL   H11346341   2.976   2.501   1.440  2.2507  1.4316 -0.5056
  255MOL   H11446342   3.011   2.344   1.492  1.1730  1.8449  1.4749
  255MOL   H11546343   3.192   2.305   1.343  0.2820 -0.9705  1.4635
  255MOL   H11646344   3.269   2.488   1.174 -0.1848  0.1638  0.0517
  255MOL   H11746345   3.132   2.398   1.120 -0.8111  0.3372 -0.2686
  255MOL   H11846346   3.102   2.549   1.174 -1.0078 -0.8998  0.9587
  255MOL   C11946347   3.247   2.479   1.447 -0.2070 -0.0705 -0.0591
  255MOL   C12046348   3.244   2.427   1.593 -0.3996  0.0789 -0.4456
  255MOL   C12146349   3.307   2.288   1.601  0.1996  0.1093 -0.7819
  255MOL   H12246350   3.347   2.489   1.407 -0.1828  1.5064  0.3827
  255MOL   H12346351   3.215   2.583   1.444 -0.3957 -0.1563 -1.3029
  255MOL   H12446352   3.147   2.416   1.641 -1.2063 -0.2169 -2.1001
  255MOL   H12546353   3.274   2.232   1.688 -1.8086  0.4968 -1.2562
  255MOL   H12646354   3.313   2.231   1.508  0.2783  0.0050 -0.7132
  255MOL   H12746355   3.413   2.301   1.625 -0.3269 -0.8876  2.3099
  255MOL   C12846356   3.312   2.532   1.690 -0.2620  0.5039 -0.7227
  255MOL   C12946357   3.233   2.663   1.717  0.0793  0.3780 -0.0848
  255MOL   C13046358   3.105   2.633   1.812 -0.1162  0.3331 -0.1273
  255MOL   H13146359   3.316   2.484   1.788  1.8490  1.6724 -0.2085
  255MOL   H13246360   3.416   2.549   1.663  0.5562  1.1104  2.5814
  255MOL   H13346361   3.193   2.702   1.624  0.2986 -1.5910 -1.0332
  255MOL   H13446362   3.129   2.593   1.910 -0.8514 -1.6439 -0.7432
  255MOL   H13546363   3.049   2.722   1.839  1.0329  1.4565 -1.3169
  255MOL   H13646364   3.038   2.566   1.758  0.2141  0.4905 -0.7466
  255MOL   C13746365   3.335   2.762   1.790  0.0084 -0.4352 -0.0884
  255MOL   C13846366   3.294   2.910   1.787  0.6334 -0.6797  0.2093
  255MOL   C13946367   3.393   3.003   1.860 -0.7506  0.0431 -0.7107
  255MOL   H14046368   3.350   2.741   1.896  0.6853  1.0306  0.1262
  255MOL   H14146369   3.434   2.755   1.745 -0.0109  1.6785 -0.5088
  255MOL   H14246370   3.201   2.921   1.842  1.6691 -2.7041  2.4539
  255MOL   H14346371   3.494   3.002   1.819 -0.4600  0.0303  0.0044
  255MOL   H14446372   3.365   3.108   1.858  0.4997  0.3742 -1.9642
  255MOL   H14546373   3.404   2.961   1.960 -3.5982 -0.8268 -0.7183
  255MOL   C14646374   3.295   2.954   1.639 -0.7079 -0.2443  0.2481
  255MOL   C14746375   3.158   2.982   1.580  0.1007  0.5037 -0.0936
  255MOL   C14846376   3.104   3.116   1.639  0.4506 -0.3024 -0.4178
  255MOL   H14946377   3.349   3.046   1.616  1.0025 -1.1792  0.4722
  255MOL   H15046378   3.342   2.887   1.568  2.4229  1.7103  0.3845
  255MOL   H15146379   3.089   2.902   1.606  0.0620  0.1952 -1.1094
  255MOL   H15246380   2.996   3.114   1.625  0.5818 -0.7299 -1.4407
  255MOL   H15346381   3.119   3.125   1.746  0.9417 -2.3774 -0.2927
  255MOL   H15446382   3.146   3.206   1.593 -1.5343  1.0241  0.2935
  255MOL   C15546383   3.174   2.986   1.419 -0.3109 -0.3364  0.1627
  255MOL   C15646384   3.043   3.025   1.337 -0.1715 -0.7469  0.3875
  255MOL   C15746385   3.076   3.027   1.187  1.0026  0.2267  0.7529
  255MOL   H15846386   3.258   3.051   1.395 -0.8409  0.8889  1.5039
  255MOL   H15946387   3.204   2.891   1.375  0.9099  0.4236 -0.7002
  255MOL   H16046388   3.002   3.119   1.374 -1.4130 -1.8023  1.7566
  255MOL   H16146389   3.115   2.931   1.153  1.7384  0.3983  1.0871
  255MOL   H16246390   2.990   3.058   1.129  1.1768 -1.3080 -0.3712
  255MOL   H16346391   3.141   3.111   1.160 -0.4118  1.8152  2.1685
  255MOL   C16446392   2.937   2.915   1.359  0.0130 -0.3740  0.0221
  255MOL   C16546393   2.806   2.929   1.270  0.0034  0.0497 -0.1348
  255MOL   C16646394   2.722   2.802   1.284 -0.0277  0.2733  0.7639
  255MOL   H16746395   2.992   2.824   1.335  2.7515  1.3714 -0.5616
  255MOL   H16846396   2.901   2.906   1.462 -0.7829  1.5511 -0.0580
  255MOL   H16946397   2.825   2.918   1.163  1.9706  1.6807  0.0222
  255MOL   H17046398   2.775   2.717   1.243  0.3730  1.4060 -1.1176
  255MOL   H17146399   2.703   2.789   1.391  0.8477 -1.0123  0.7718
  255MOL   H17246400   2.623   2.810   1.239 -0.0547  0.4964  0.8606
  255MOL   C17346401   2.725   3.066   1.283  0.7303 -0.0583 -0.2475
  255MOL   C17446402   2.656   3.089   1.426 -0.3310 -0.6130  0.5126
  255MOL   C17546403   2.553   3.201   1.426 -0.6197  0.0370  0.1357
  255MOL   H17646404   2.790   3.147   1.252  1.9457  0.2380  2.8470
  255MOL   H17746405   2.648   3.063   1.206  2.0003 -0.4932 -1.5228
  255MOL   H17846406   2.733   3.100   1.502 -0.7906 -0.3844  0.9414
  255MOL   H17946407   2.606   3.294   1.449  2.4362 -1.5855 -0.1446
  255MOL   H18046408   2.500   3.216   1.332 -0.4482 -1.1434 -0.1479
  255MOL   H18146409   2.478   3.199   1.505  1.8086  1.8710  2.5952
  255MOL   H18246410   2.608   2.996   1.456 -1.2656  0.3652  2.1061
  256MOL     C146411   2.805   7.185   6.263 -0.4661  0.4250 -0.0663
  256MOL     C246412   2.736   7.086   6.172  0.8854 -0.7619 -0.4495
  256MOL     C346413   2.780   6.943   6.218 -0.2204  0.5856 -0.3286
  256MOL     H446414   2.772   7.173   6.366 -1.5302 -2.0714 -0.6464
  256MOL     H546415   2.778   7.284   6.228 -0.8701  0.1004 -0.6807
  256MOL     H646416   2.786   7.100   6.077 -0.1950  0.5243 -0.8401
  256MOL     H746417   2.743   6.930   6.319  0.1414 -1.7741 -0.4781
  256MOL     H846418   2.744   6.866   6.150  1.6755 -0.9397  0.3665
  256MOL     H946419   2.887   6.925   6.215 -0.4393 -0.6359 -1.7036
  256MOL    H1046420   2.914   7.179   6.261 -0.3852  2.1176 -1.3292
  256MOL    C1146421   2.584   7.092   6.157  0.6435 -0.7661  0.3310
  256MOL    C1246422   2.522   7.232   6.131  0.0922  0.5514  0.2382
  256MOL    C1346423   2.570   7.281   5.992 -0.2865 -0.9041 -0.5482
  256MOL    H1446424   2.554   7.025   6.077 -1.0604 -0.6948  0.8914
  256MOL    H1546425   2.540   7.063   6.252 -0.2294 -1.2807 -0.2260
  256MOL    H1646426   2.566   7.284   6.216  0.7307  2.9656 -1.4993
  256MOL    H1746427   2.679   7.273   5.987 -0.2367 -0.6348  0.0086
  256MOL    H1846428   2.532   7.207   5.921  2.0909 -1.5227 -1.2156
  256MOL    H1946429   2.546   7.387   5.992  1.5933 -0.4520 -0.1739
  256MOL    C2046430   2.371   7.245   6.151  0.7194 -0.0188  0.2042
  256MOL    C2146431   2.320   7.236   6.295  0.3770 -0.2346 -0.0662
  256MOL    C2246432   2.365   7.352   6.375 -0.1033 -0.5420  0.3281
  256MOL    H2346433   2.333   7.342   6.120  0.0127 -1.0594 -2.3639
  256MOL    H2446434   2.321   7.177   6.081 -0.4969 -1.2044  2.1881
  256MOL    H2546435   2.362   7.152   6.350 -1.8640 -0.9253  0.6463
  256MOL    H2646436   2.458   7.342   6.431 -1.0487 -1.0291  1.8423
  256MOL    H2746437   2.389   7.441   6.316  2.0873 -0.4520  1.3247
  256MOL    H2846438   2.297   7.381   6.455 -0.7184 -0.2825 -0.2855
  256MOL    C2946439   2.163   7.233   6.276  0.2249 -0.2007 -0.0660
  256MOL    C3046440   2.092   7.175   6.402 -0.5829  0.5086 -0.7195
  256MOL    C3146441   1.952   7.246   6.420  0.2202 -0.3088 -0.1607
  256MOL    H3246442   2.124   7.332   6.251  0.8558  0.3091  0.9191
  256MOL    H3346443   2.131   7.166   6.196 -0.6418 -0.9162  0.8703
  256MOL    H3446444   2.150   7.208   6.489 -2.2608  0.8073  0.3089
  256MOL    H3546445   1.898   7.200   6.503  0.9578 -2.0763 -0.6335
  256MOL    H3646446   1.958   7.352   6.443  2.3324 -0.6831  1.2511
  256MOL    H3746447   1.900   7.234   6.325 -0.2377  0.1876  0.0305
  256MOL    C3846448   2.089   7.018   6.401 -0.6256  0.0923  0.1895
  256MOL    C3946449   2.118   6.946   6.537 -0.6573 -0.5565  0.0346
  256MOL    C4046450   2.263   6.944   6.579  0.0110 -0.8322 -0.4937
  256MOL    H4146451   1.993   6.975   6.374 -0.7415  0.2234  0.3937
  256MOL    H4246452   2.146   6.979   6.316 -1.7231 -1.7730  0.2778
  256MOL    H4346453   2.094   6.842   6.513 -0.3553 -0.3443 -1.2028
  256MOL    H4446454   2.315   6.892   6.499  0.0476 -1.5460 -0.0076
  256MOL    H4546455   2.298   7.048   6.576 -0.5282 -0.6269  0.0849
  256MOL    H4646456   2.277   6.898   6.677 -1.3522  0.9705  0.5764
  256MOL    C4746457   2.020   6.992   6.652 -0.2951 -0.0519  0.1511
  256MOL    C4846458   1.877   6.927   6.643  0.0864  0.0801 -0.0223
  256MOL    C4946459   1.879   6.770   6.656  0.9443  0.3607  0.7373
  256MOL    H5046460   2.061   6.969   6.750 -2.7752 -2.2620  0.7104
  256MOL    H5146461   2.026   7.100   6.640 -0.1241 -0.0055  0.6378
  256MOL    H5246462   1.837   6.953   6.545  1.0397  0.4784 -0.3155
  256MOL    H5346463   1.906   6.733   6.755 -1.0336  2.0708  1.9434
  256MOL    H5446464   1.779   6.726   6.653  0.6610  1.0096  0.6428
  256MOL    H5546465   1.935   6.722   6.575 -0.2047 -1.4065  0.9605
  256MOL    C5646466   1.773   6.993   6.737  0.0359  0.1295  0.5922
  256MOL    C5746467   1.623   7.002   6.687  0.0198  0.2669  0.3193
  256MOL    C5846468   1.534   7.055   6.808  0.1726  0.0083 -0.1560
  256MOL    H5946469   1.785   6.949   6.836 -0.2018 -2.4713 -0.5113
  256MOL    H6046470   1.809   7.095   6.752  0.1116  0.2871 -0.6857
  256MOL    H6146471   1.597   6.900   6.658  1.7164  0.4097 -1.8717
  256MOL    H6246472   1.519   6.963   6.866  0.5623 -1.0000 -1.6227
  256MOL    H6346473   1.586   7.130   6.867 -0.8585  0.0031  0.7802
  256MOL    H6446474   1.444   7.098   6.764 -0.1590 -0.4278  0.0934
  256MOL    C6546475   1.605   7.109   6.573 -0.0916  0.5745  0.3095
  256MOL    C6646476   1.464   7.107   6.503  1.0472 -0.5946 -0.0461
  256MOL    C6746477   1.393   7.248   6.517  0.9988  0.0986  0.3880
  256MOL    H6846478   1.625   7.210   6.609 -0.4751 -0.2513  2.8901
  256MOL    H6946479   1.676   7.101   6.491 -0.2238 -0.1142  0.2594
  256MOL    H7046480   1.402   7.035   6.556  1.0552 -0.3667  0.2708
  256MOL    H7146481   1.412   7.293   6.615  0.9171 -0.6096  0.7273
  256MOL    H7246482   1.428   7.324   6.446 -0.1938  0.5419  0.2641
  256MOL    H7346483   1.287   7.233   6.496  1.1375  0.5402 -0.6608
  256MOL    C7446484   1.470   7.066   6.356 -0.5329 -0.0220 -0.6712
  256MOL    C7546485   1.506   6.921   6.332  0.2174 -0.2079 -0.3529
  256MOL    C7646486   1.383   6.831   6.362 -0.0201  0.3135 -0.2868
  256MOL    H7746487   1.376   7.087   6.305 -1.9813 -2.5822  0.9005
  256MOL    H7846488   1.543   7.134   6.312 -0.2815  0.8526  1.0448
  256MOL    H7946489   1.586   6.882   6.394  1.6640  1.0587 -1.3670
  256MOL    H8046490   1.391   6.731   6.319 -1.0394  0.0717  0.0758
  256MOL    H8146491   1.380   6.827   6.471  1.1116  0.1358 -0.2527
  256MOL    H8246492   1.291   6.880   6.332 -1.4596 -1.1462  1.5554
  256MOL    C8346493   1.559   6.899   6.189  0.1312 -0.3208 -0.3551
  256MOL    C8446494   1.698   6.967   6.149 -0.1753 -0.6348  0.4778
  256MOL    C8546495   1.809   6.867   6.184  0.5229  0.1904  0.3831
  256MOL    H8646496   1.572   6.793   6.170 -0.2824 -0.3505 -0.4752
  256MOL    H8746497   1.477   6.936   6.128 -2.1375 -3.9619  0.3802
  256MOL    H8846498   1.719   7.059   6.204  0.7984 -0.0004 -0.9109
  256MOL    H8946499   1.907   6.895   6.145  0.1571  2.2099  0.8126
  256MOL    H9046500   1.826   6.863   6.292  1.6636 -1.1960  0.1628
  256MOL    H9146501   1.793   6.769   6.141 -0.4452 -0.2769  1.7722
  256MOL    C9246502   1.700   6.997   5.998 -0.7360 -0.4388 -0.6639
  256MOL    C9346503   1.611   7.115   5.960 -0.1507 -0.2960  0.1503
  256MOL    C9446504   1.671   7.250   6.017 -0.0953 -0.1040 -0.0698
  256MOL    H9546505   1.799   7.012   5.953 -0.7155  1.1990 -0.0741
  256MOL    H9646506   1.671   6.905   5.947  0.1272 -0.9760 -0.2112
  256MOL    H9746507   1.507   7.099   5.989 -0.7754 -0.7370 -2.2228
  256MOL    H9846508   1.777   7.258   5.994 -0.4037 -1.0686 -1.8845
  256MOL    H9946509   1.622   7.340   5.980  1.2809  0.3427 -0.7891
  256MOL   H10046510   1.661   7.248   6.126 -2.8356 -0.1923 -0.2874
  256MOL   C10146511   1.615   7.129   5.802 -0.0646 -0.9470  0.2165
  256MOL   C10246512   1.531   7.022   5.730 -0.0160 -0.6129  0.0305
  256MOL   C10346513   1.382   7.054   5.720  0.1378 -0.8792 -0.2385
  256MOL   H10446514   1.602   7.232   5.767  2.8548 -0.8473 -0.6793
  256MOL   H10546515   1.716   7.108   5.769  0.4513 -0.0752  1.1989
  256MOL   H10646516   1.515   6.932   5.789 -0.0267 -0.3782  0.3883
  256MOL   H10746517   1.335   7.060   5.818 -1.0311 -1.2497 -0.7662
  256MOL   H10846518   1.352   7.153   5.687  0.4949  0.0711  2.1811
  256MOL   H10946519   1.321   6.981   5.668 -1.1579  1.5437 -2.2144
  256MOL   C11046520   1.581   6.989   5.587  0.4860 -0.9042 -0.3530
  256MOL   C11146521   1.538   6.845   5.549 -0.5790 -0.2706 -0.0541
  256MOL   C11246522   1.533   6.819   5.398  0.0818  0.2613  0.4866
  256MOL   H11346523   1.534   7.062   5.521 -0.0420 -1.0209 -0.1070
  256MOL   H11446524   1.689   6.998   5.572  0.2046  0.4069 -1.7677
  256MOL   H11546525   1.439   6.824   5.591 -0.4427  0.2179  0.5223
  256MOL   H11646526   1.475   6.734   5.362  2.9831 -2.0346  0.9522
  256MOL   H11746527   1.502   6.912   5.350  1.1816  0.0382 -0.7005
  256MOL   H11846528   1.636   6.803   5.364  0.3751 -1.4443  2.1161
  256MOL   C11946529   1.636   6.743   5.618 -0.1586  0.1343  0.3864
  256MOL   C12046530   1.582   6.604   5.648  0.4309 -0.2346 -0.1390
  256MOL   C12146531   1.521   6.530   5.522 -0.2336  0.3324  0.3662
  256MOL   H12246532   1.719   6.728   5.548  0.3689  1.8273  0.6330
  256MOL   H12346533   1.671   6.785   5.712 -1.0102  1.0168  0.3192
  256MOL   H12446534   1.499   6.621   5.717 -0.0323  2.3881 -1.2623
  256MOL   H12546535   1.579   6.552   5.433 -0.5103  0.7770  0.2975
  256MOL   H12646536   1.535   6.422   5.516 -0.0778  0.2195  2.3794
  256MOL   H12746537   1.413   6.544   5.510 -0.3751  1.4324  2.5845
  256MOL   C12846538   1.693   6.516   5.703  0.5266 -0.0155  0.3576
  256MOL   C12946539   1.742   6.547   5.846 -1.0826  0.2237  0.2230
  256MOL   C13046540   1.630   6.568   5.952  0.1225 -0.5421  0.0097
  256MOL   H13146541   1.658   6.414   5.717 -0.3064  0.1729 -0.3588
  256MOL   H13246542   1.771   6.507   5.628 -0.5720  0.2677 -0.8332
  256MOL   H13346543   1.800   6.639   5.845 -0.4042 -0.2075 -0.3286
  256MOL   H13446544   1.601   6.670   5.976  2.3147 -0.0364  0.6268
  256MOL   H13546545   1.539   6.513   5.928  0.3779 -0.6717 -0.7058
  256MOL   H13646546   1.654   6.525   6.049  1.8573  2.3946  0.9590
  256MOL   C13746547   1.839   6.439   5.898  0.4393 -0.1762 -0.5246
  256MOL   C13846548   1.948   6.493   5.994 -0.1575 -1.0734  0.1551
  256MOL   C13946549   2.020   6.384   6.080  0.0743 -0.8649  0.3442
  256MOL   H14046550   1.776   6.365   5.948 -0.6247  0.4135 -0.9808
  256MOL   H14146551   1.882   6.378   5.819 -0.4241 -3.2261  1.2821
  256MOL   H14246552   1.890   6.554   6.062 -0.8524  0.7156 -1.9821
  256MOL   H14346553   2.093   6.427   6.149  1.0293  0.4368 -1.4381
  256MOL   H14446554   1.942   6.326   6.129 -0.1743 -1.0262 -0.2375
  256MOL   H14546555   2.075   6.319   6.012  2.0762 -0.0836  1.1775
  256MOL   C14646556   2.059   6.557   5.913 -0.7151  0.1794  0.1854
  256MOL   C14746557   2.094   6.699   5.959  0.0103  0.1039 -0.6344
  256MOL   C14846558   2.130   6.689   6.111 -0.1151 -0.3047  0.2783
  256MOL   H14946559   2.140   6.486   5.904 -1.3563 -0.4204 -0.8701
  256MOL   H15046560   2.024   6.567   5.810  2.9926  0.1169 -1.1311
  256MOL   H15146561   2.000   6.753   5.956 -0.0164  0.1677  0.9086
  256MOL   H15246562   2.143   6.790   6.149  2.1457 -0.8106  0.8837
  256MOL   H15346563   2.047   6.640   6.162 -0.5350 -1.4282 -1.4412
  256MOL   H15446564   2.223   6.634   6.120  0.3428  0.6457  1.4569
  256MOL   C15546565   2.211   6.755   5.887 -0.1714  0.1399 -0.4863
  256MOL   C15646566   2.186   6.802   5.745  0.2799 -0.2564 -0.5174
  256MOL   C15746567   2.052   6.876   5.733  0.2640  0.4246  0.2149
  256MOL   H15846568   2.267   6.834   5.935  0.6428 -0.9494  0.3897
  256MOL   H15946569   2.285   6.676   5.870 -2.5908 -1.9182 -1.9008
  256MOL   H16046570   2.172   6.711   5.687 -2.9502 -1.2362  1.6508
  256MOL   H16146571   1.965   6.816   5.761  0.8922 -0.7260 -0.2633
  256MOL   H16246572   2.049   6.962   5.799  2.2947  1.0906 -0.5378
  256MOL   H16346573   2.024   6.904   5.631 -0.0512  1.4202  0.5671
  256MOL   C16446574   2.301   6.874   5.676  0.3172 -0.3045 -0.2019
  256MOL   C16546575   2.444   6.810   5.694 -0.1068 -0.2896  0.0292
  256MOL   C16646576   2.474   6.693   5.602  0.1215  0.0283  0.2794
  256MOL   H16746577   2.277   6.879   5.570 -0.5637 -1.3573 -0.0692
  256MOL   H16846578   2.284   6.968   5.727 -0.5228 -0.8907  0.6239
  256MOL   H16946579   2.446   6.761   5.791 -0.1241 -1.0199 -0.3324
  256MOL   H17046580   2.499   6.725   5.501 -0.8726 -0.9501 -0.2925
  256MOL   H17146581   2.561   6.636   5.634  0.1384  0.1307  0.4197
  256MOL   H17246582   2.412   6.603   5.603 -1.7570  1.3040  1.8911
  256MOL   C17346583   2.550   6.921   5.694  1.1737  0.4676 -0.2605
  256MOL   C17446584   2.680   6.892   5.761 -0.6418 -0.0601  0.1802
  256MOL   C17546585   2.791   6.993   5.734 -0.3081 -0.2475 -0.2767
  256MOL   H17646586   2.564   6.958   5.593 -0.8905  1.0881 -0.3363
  256MOL   H17746587   2.497   6.996   5.754 -1.7488 -0.6617 -1.3824
  256MOL   H17846588   2.726   6.800   5.728  0.6613  1.5077 -2.4994
  256MOL   H17946589   2.765   7.088   5.779 -0.1324 -1.0331  1.5317
  256MOL   H18046590   2.884   6.957   5.778 -1.1647 -2.6430 -0.3472
  256MOL   H18146591   2.806   6.997   5.626  1.6408 -1.4505 -0.0947
  256MOL   H18246592   2.655   6.875   5.866 -1.9436 -1.2414 -0.3039
  257MOL     C146593   4.848   2.589   2.987  0.7117  0.2739  0.2861
  257MOL     C246594   4.819   2.710   3.083 -0.7719 -0.0201  0.2051
  257MOL     C346595   4.924   2.819   3.078 -0.0671 -0.1827 -0.2548
  257MOL     H446596   4.776   2.508   2.998  1.1375 -0.1053  0.3164
  257MOL     H546597   4.943   2.547   3.020  1.4471  0.4958 -1.4770
  257MOL     H646598   4.820   2.666   3.182 -0.0966 -0.9798 -0.2236
  257MOL     H746599   5.018   2.766   3.064 -0.1714 -0.0701 -1.4607
  257MOL     H846600   4.908   2.872   2.984 -1.9278  0.7956  0.5752
  257MOL     H946601   4.916   2.887   3.164  0.1676 -0.5827  0.0836
  257MOL    H1046602   4.837   2.615   2.882  2.5083  2.4430  0.5804
  257MOL    C1146603   4.678   2.774   3.056  0.0484  0.3561 -0.3617
  257MOL    C1246604   4.641   2.883   3.167 -0.0001  0.1003 -0.0398
  257MOL    C1346605   4.508   2.948   3.127  0.0346  0.6182  0.2439
  257MOL    H1446606   4.669   2.817   2.957 -0.8870  1.8731  0.3665
  257MOL    H1546607   4.599   2.700   3.055 -1.2209  1.6561  1.0990
  257MOL    H1646608   4.713   2.963   3.151 -0.6584  0.7559  0.2177
  257MOL    H1746609   4.486   3.031   3.193  0.6562 -0.4357  1.8257
  257MOL    H1846610   4.517   2.990   3.027 -1.0501  0.3472  0.0303
  257MOL    H1946611   4.435   2.867   3.134 -1.7575  2.2650  0.8703
  257MOL    C2046612   4.641   2.828   3.309  0.4325 -0.4651  0.0608
  257MOL    C2146613   4.585   2.898   3.434 -0.0404  0.4208  0.5175
  257MOL    C2246614   4.539   2.798   3.533  0.2965 -0.0762  0.0137
  257MOL    H2346615   4.591   2.732   3.297  0.3091 -0.2243 -1.4922
  257MOL    H2446616   4.745   2.801   3.330  0.2755 -0.8911  0.3048
  257MOL    H2546617   4.496   2.953   3.402 -0.1321 -0.3286 -0.5594
  257MOL    H2646618   4.459   2.737   3.490 -0.7428  0.0602  1.7144
  257MOL    H2746619   4.623   2.738   3.568  0.9872  0.9085  0.0515
  257MOL    H2846620   4.503   2.836   3.629 -0.1395  0.6969 -0.4559
  257MOL    C2946621   4.683   3.005   3.494  0.3018  0.1605 -0.6160
  257MOL    C3046622   4.656   3.153   3.447 -0.4882  0.2028 -0.3765
  257MOL    C3146623   4.522   3.222   3.503  0.7665  0.0733 -0.1856
  257MOL    H3246624   4.682   3.006   3.603  1.8998 -1.9937 -0.5383
  257MOL    H3346625   4.789   2.977   3.491  0.4329  0.6625 -0.6873
  257MOL    H3446626   4.646   3.138   3.339  1.2215  1.2593 -0.7139
  257MOL    H3546627   4.502   3.309   3.441  1.8770 -0.5978 -1.5108
  257MOL    H3646628   4.436   3.156   3.502  0.5944  0.2775  0.4200
  257MOL    H3746629   4.526   3.269   3.601 -0.2272  0.8409 -0.5089
  257MOL    C3846630   4.785   3.242   3.452  1.1388 -0.6102  0.1359
  257MOL    C3946631   4.896   3.217   3.351  0.0801  0.1134 -0.2816
  257MOL    C4046632   4.846   3.259   3.205 -0.0361 -0.6088 -0.2982
  257MOL    H4146633   4.744   3.339   3.427 -1.9761 -1.6042  1.1151
  257MOL    H4246634   4.827   3.264   3.550 -0.4941  0.5541  0.5884
  257MOL    H4346635   4.923   3.111   3.348  2.0399  0.6057 -1.3215
  257MOL    H4446636   4.922   3.245   3.128  1.4410 -0.1931  1.0611
  257MOL    H4546637   4.769   3.188   3.176  0.5718 -1.8347  1.0310
  257MOL    H4646638   4.806   3.359   3.191  0.6369 -0.3742 -0.5407
  257MOL    C4746639   5.028   3.285   3.386 -0.7426 -0.1018  0.1707
  257MOL    C4846640   5.150   3.253   3.297 -0.5145  0.7433 -0.1570
  257MOL    C4946641   5.269   3.332   3.352  0.0411 -0.0425 -0.1188
  257MOL    H5046642   5.003   3.391   3.389 -0.5536 -0.0619  0.3335
  257MOL    H5146643   5.051   3.253   3.487  0.5969  1.8966  0.5297
  257MOL    H5246644   5.127   3.284   3.195 -0.6086 -0.4588 -0.5122
  257MOL    H5346645   5.301   3.315   3.455  0.1674 -0.9496 -0.3013
  257MOL    H5446646   5.357   3.325   3.288  2.7138 -2.0007  3.5258
  257MOL    H5546647   5.239   3.437   3.350 -2.5876 -0.7696 -0.7389
  257MOL    C5646648   5.182   3.103   3.291  0.0340  0.0579 -0.1424
  257MOL    C5746649   5.311   3.067   3.218  0.6750 -0.3471 -0.2330
  257MOL    C5846650   5.318   2.915   3.216  0.0749 -0.4231  0.3326
  257MOL    H5946651   5.191   3.062   3.392  0.2900  4.0761  1.5558
  257MOL    H6046652   5.099   3.042   3.254  0.7076 -1.0048  0.0494
  257MOL    H6146653   5.393   3.105   3.278  0.4808 -0.5623  0.1705
  257MOL    H6246654   5.319   2.878   3.319 -3.8647  0.1405  0.6553
  257MOL    H6346655   5.238   2.871   3.158 -1.0337 -0.1204  1.6128
  257MOL    H6446656   5.412   2.875   3.177 -0.9135 -1.7128 -0.7441
  257MOL    C6546657   5.312   3.119   3.064  0.3532 -0.5123 -0.5473
  257MOL    C6646658   5.449   3.113   2.997  0.8263 -0.2542  0.4974
  257MOL    C6746659   5.422   3.094   2.849  0.0004  0.3054  0.7973
  257MOL    H6846660   5.254   3.052   3.000  0.5386 -0.2183 -1.0253
  257MOL    H6946661   5.258   3.213   3.051  1.4453  0.2835  0.5121
  257MOL    H7046662   5.495   3.023   3.037  0.7454 -0.6993 -0.3989
  257MOL    H7146663   5.506   3.121   2.785 -0.8636  2.8635  0.6600
  257MOL    H7246664   5.385   2.995   2.823  1.1860  0.0866 -0.1138
  257MOL    H7346665   5.349   3.172   2.826  1.7895  2.0305  0.7584
  257MOL    C7446666   5.528   3.237   3.028 -0.5090 -0.5910  1.3635
  257MOL    C7546667   5.675   3.220   2.995 -0.2580 -0.2906  0.0866
  257MOL    C7646668   5.734   3.354   2.932 -0.4603 -0.2362  0.8253
  257MOL    H7746669   5.485   3.320   2.973  0.9618 -0.1921  0.8063
  257MOL    H7846670   5.524   3.272   3.131 -1.8981  1.9597  0.4721
  257MOL    H7946671   5.697   3.140   2.925  0.0728  0.0986 -0.2560
  257MOL    H8046672   5.752   3.432   3.007 -1.1122  0.6029  0.1170
  257MOL    H8146673   5.828   3.323   2.888 -0.7541  0.1240 -0.0509
  257MOL    H8246674   5.671   3.389   2.851  0.9042  0.0071 -0.1417
  257MOL    C8346675   5.753   3.186   3.132  0.4779  0.3002  1.0098
  257MOL    C8446676   5.907   3.135   3.117  1.0378  0.3224  0.0452
  257MOL    C8546677   5.941   3.061   2.995  0.5416  0.6623  0.4239
  257MOL    H8646678   5.749   3.268   3.203 -1.7301  1.8324 -0.7881
  257MOL    H8746679   5.697   3.102   3.173  1.4303 -0.8484 -0.0138
  257MOL    H8846680   5.913   3.065   3.200 -0.9546  0.6872  0.5129
  257MOL    H8946681   5.959   3.136   2.918 -1.3131  0.0074 -0.6920
  257MOL    H9046682   6.036   3.010   3.007  1.0912  1.4902 -0.3603
  257MOL    H9146683   5.857   3.004   2.955 -2.6196  4.1273  1.8194
  257MOL    C9246684   6.019   3.241   3.144  0.2730 -0.5378  1.0115
  257MOL    C9346685   6.036   3.295   3.284 -0.0799 -0.0479 -0.7696
  257MOL    C9446686   6.098   3.188   3.374 -0.1466 -0.3558  0.1117
  257MOL    H9546687   6.118   3.215   3.106  0.1041 -1.3317  1.1238
  257MOL    H9646688   5.978   3.319   3.079  0.6188 -0.4668  0.8750
  257MOL    H9746689   5.935   3.310   3.323 -0.1928  0.1797 -1.1500
  257MOL    H9846690   6.123   3.233   3.470  0.5441 -1.9070  0.6834
  257MOL    H9946691   6.039   3.096   3.374  2.7926 -2.3201  0.1112
  257MOL   H10046692   6.190   3.151   3.329  2.8591  0.8385  4.9561
  257MOL   C10146693   6.112   3.434   3.275  0.8770 -0.6642 -0.7139
  257MOL   C10246694   6.134   3.512   3.413 -0.6623 -0.3127  0.6424
  257MOL   C10346695   6.233   3.626   3.392 -0.4599 -0.3494  0.2313
  257MOL   H10446696   6.208   3.401   3.234  1.0426 -1.7519  0.5188
  257MOL   H10546697   6.073   3.492   3.191 -1.8747  0.6827  1.4310
  257MOL   H10646698   6.186   3.452   3.488 -0.2521  0.5529  1.0644
  257MOL   H10746699   6.200   3.680   3.304  1.2103 -0.9199 -0.7841
  257MOL   H10846700   6.231   3.694   3.477  2.1060 -2.0396  1.7271
  257MOL   H10946701   6.332   3.588   3.367  0.3682  0.0182  2.7929
  257MOL   C11046702   5.996   3.566   3.468 -0.2590 -0.6109 -0.1298
  257MOL   C11146703   5.916   3.471   3.572 -0.4369  0.0315 -0.0098
  257MOL   C11246704   6.000   3.416   3.692 -0.4641  0.1321  0.5217
  257MOL   H11346705   6.015   3.659   3.522 -0.5868 -0.3771 -0.4179
  257MOL   H11446706   5.930   3.586   3.383 -0.4684 -0.7872 -0.0067
  257MOL   H11546707   5.878   3.382   3.521  0.7706 -1.1994  1.1801
  257MOL   H11646708   6.078   3.345   3.667 -0.6337 -0.4132  1.5074
  257MOL   H11746709   6.052   3.496   3.746 -1.4714  0.4552  1.0369
  257MOL   H11846710   5.932   3.365   3.760 -0.4626 -1.4503 -0.6506
  257MOL   C11946711   5.802   3.546   3.642  0.2210  0.4096 -0.1654
  257MOL   C12046712   5.692   3.610   3.547  0.1946 -0.1405 -0.2075
  257MOL   C12146713   5.622   3.491   3.491  0.6676 -0.4589 -0.1960
  257MOL   H12246714   5.754   3.483   3.717 -0.4350  0.9655 -0.1092
  257MOL   H12346715   5.850   3.621   3.703  0.0799  0.9111 -0.6638
  257MOL   H12446716   5.736   3.671   3.468  1.3248  2.7035  2.5007
  257MOL   H12546717   5.523   3.508   3.447  0.4433  1.9199  1.1704
  257MOL   H12646718   5.679   3.476   3.399 -0.4117 -1.5931 -0.7046
  257MOL   H12746719   5.627   3.400   3.552 -0.5269 -0.2943  0.1509
  257MOL   C12846720   5.587   3.686   3.625  0.4491 -0.2841 -0.0367
  257MOL   C12946721   5.631   3.832   3.675 -0.3885 -0.0104 -0.4976
  257MOL   C13046722   5.682   3.928   3.567 -0.3377  0.2310 -1.0462
  257MOL   H13146723   5.500   3.690   3.558 -1.7066 -0.0524  2.6683
  257MOL   H13246724   5.549   3.623   3.706 -0.6309 -2.2558 -1.9994
  257MOL   H13346725   5.709   3.810   3.748 -1.3459 -4.1556 -0.5930
  257MOL   H13446726   5.614   3.944   3.483 -2.3707 -0.9817  0.3039
  257MOL   H13546727   5.710   4.024   3.610 -0.7004 -0.3095  0.4093
  257MOL   H13646728   5.777   3.895   3.525  0.6554  1.5550  0.1126
  257MOL   C13746729   5.517   3.897   3.757  0.4213  0.0513 -0.3929
  257MOL   C13846730   5.566   4.019   3.839  0.6580  0.1791 -0.0487
  257MOL   C13946731   5.511   4.154   3.779 -0.4674  0.0126 -0.7475
  257MOL   H14046732   5.455   3.942   3.680 -0.9595  2.4873  2.0233
  257MOL   H14146733   5.445   3.836   3.812 -1.4758  2.1017 -0.5401
  257MOL   H14246734   5.675   4.008   3.847  0.5128 -2.5396 -1.2543
  257MOL   H14346735   5.533   4.154   3.672 -0.2751  0.1639 -0.7079
  257MOL   H14446736   5.403   4.164   3.786 -0.6746 -2.4914  0.2373
  257MOL   H14546737   5.569   4.239   3.813  1.3084 -0.8323 -1.5578
  257MOL   C14646738   5.527   3.998   3.981 -0.7415  0.5479  0.0048
  257MOL   C14746739   5.559   4.106   4.083 -0.1520 -0.4052 -0.3176
  257MOL   C14846740   5.473   4.077   4.209  0.6404  0.5647 -0.1367
  257MOL   H14946741   5.418   3.988   3.986 -0.8686  2.6856  2.2133
  257MOL   H15046742   5.563   3.904   4.022  0.1823  1.6245  1.7035
  257MOL   H15146743   5.530   4.199   4.034 -0.1591  0.1285  0.6864
  257MOL   H15246744   5.509   3.991   4.265 -0.6909 -1.3755 -2.1767
  257MOL   H15346745   5.463   4.162   4.275 -1.5852  0.7726 -0.7257
  257MOL   H15446746   5.370   4.046   4.191  0.8692 -0.6970  0.6567
  257MOL   C15546747   5.707   4.117   4.119 -0.1343 -0.2338  0.2317
  257MOL   C15646748   5.742   4.235   4.215  0.6281  0.0205  0.0605
  257MOL   C15746749   5.894   4.244   4.233  0.7450  0.1311  0.1201
  257MOL   H15846750   5.744   4.019   4.151 -0.3982  0.2203  1.9543
  257MOL   H15946751   5.758   4.131   4.024 -0.5502  0.2015  0.0696
  257MOL   H16046752   5.683   4.207   4.303 -0.8843 -0.3846 -1.0646
  257MOL   H16146753   5.927   4.301   4.320  2.3973 -0.9478  0.2196
  257MOL   H16246754   5.951   4.151   4.242 -0.6182 -0.6919  0.3592
  257MOL   H16346755   5.947   4.297   4.154  1.1330  0.9957  0.9587
  257MOL   C16446756   5.688   4.369   4.177  0.0613 -0.0361  0.1010
  257MOL   C16546757   5.725   4.493   4.259 -0.3783 -0.6384 -0.0418
  257MOL   C16646758   5.664   4.621   4.207 -0.7778  0.0846  0.4292
  257MOL   H16746759   5.723   4.394   4.077 -2.8418  3.4424 -0.1603
  257MOL   H16846760   5.580   4.364   4.160  0.0358  0.0398  0.2442
  257MOL   H16946761   5.833   4.508   4.250 -0.5629  0.3627 -0.6697
  257MOL   H17046762   5.559   4.627   4.235 -0.7150 -2.2345  1.2398
  257MOL   H17146763   5.710   4.706   4.258 -1.3465  0.2444  0.6772
  257MOL   H17246764   5.687   4.627   4.101 -1.6653 -0.1506  0.2252
  257MOL   C17346765   5.704   4.478   4.412 -0.6106 -0.8700  0.2052
  257MOL   C17446766   5.566   4.444   4.467 -0.5007  0.3691 -0.7011
  257MOL   C17546767   5.549   4.432   4.621  0.4341  0.5683  0.5106
  257MOL   H17646768   5.777   4.407   4.452  2.0103  0.7351 -1.5813
  257MOL   H17746769   5.748   4.564   4.462 -1.6229 -0.3598  0.2330
  257MOL   H17846770   5.530   4.354   4.418  1.6888 -1.2907  0.6740
  257MOL   H17946771   5.452   4.437   4.671  0.8417  2.1435  1.1968
  257MOL   H18046772   5.611   4.347   4.651  0.0260  0.3683  0.7956
  257MOL   H18146773   5.590   4.525   4.663  0.7653  0.5159  0.2997
  257MOL   H18246774   5.498   4.518   4.425 -2.1147 -1.2384 -1.0043
  258MOL     C146775   0.484   1.461   3.809  0.1290  0.5762 -0.1810
  258MOL     C246776   0.354   1.389   3.836 -0.6660 -0.1150  0.0222
  258MOL     C346777   0.238   1.438   3.747  0.6427  0.5236  0.1901
  258MOL     H446778   0.553   1.450   3.893  0.1156  2.8098  0.1591
  258MOL     H546779   0.465   1.569   3.804 -3.2301  0.3335  4.4641
  258MOL     H646780   0.323   1.417   3.936 -1.3994  1.1839 -0.5531
  258MOL     H746781   0.244   1.543   3.718  0.1555  1.0123  1.7839
  258MOL     H846782   0.231   1.382   3.654  0.8558 -0.2409  0.6330
  258MOL     H946783   0.143   1.435   3.800  0.9487  2.4610  0.9016
  258MOL    H1046784   0.537   1.432   3.718  0.1378  0.2445 -0.0690
  258MOL    C1146785   0.370   1.232   3.840  0.3734  0.0927 -0.2846
  258MOL    C1246786   0.468   1.169   3.942 -0.7807  0.3561  0.2542
  258MOL    C1346787   0.440   1.201   4.087 -0.1196 -0.2173  0.2865
  258MOL    H1446788   0.270   1.195   3.865  0.7444 -0.0721  0.9425
  258MOL    H1546789   0.398   1.199   3.740 -0.8573 -2.0226  0.0385
  258MOL    H1646790   0.571   1.197   3.922 -0.6396  0.4942  1.1399
  258MOL    H1746791   0.448   1.307   4.109 -1.9383  0.0844 -0.4369
  258MOL    H1846792   0.337   1.173   4.111  0.0456 -0.5939  0.5669
  258MOL    H1946793   0.497   1.128   4.145 -0.6340 -0.7328  0.1515
  258MOL    C2046794   0.489   1.011   3.924 -0.5454 -0.4312 -0.7630
  258MOL    C2146795   0.537   0.959   3.789 -0.3196  0.3540 -0.5606
  258MOL    C2246796   0.668   1.021   3.742  0.6873 -0.5495 -1.0494
  258MOL    H2346797   0.557   0.974   4.001  1.9481  1.8932 -1.7773
  258MOL    H2446798   0.391   0.967   3.944  0.3219 -3.0022 -1.9061
  258MOL    H2546799   0.453   0.976   3.723 -0.7398 -0.4435 -0.2262
  258MOL    H2646800   0.697   0.996   3.640 -0.2482 -0.8746 -1.2433
  258MOL    H2746801   0.665   1.130   3.745  0.3088 -0.6167  1.5452
  258MOL    H2846802   0.752   0.989   3.803 -1.2742 -0.6436  1.6811
  258MOL    C2946803   0.556   0.803   3.788 -0.1374  0.1912 -0.5071
  258MOL    C3046804   0.592   0.742   3.644 -0.3667 -0.1319  0.1650
  258MOL    C3146805   0.629   0.595   3.672 -0.4682  0.2451 -0.0300
  258MOL    H3246806   0.632   0.775   3.861 -0.6996  1.8731  0.7550
  258MOL    H3346807   0.466   0.745   3.810 -0.0808 -0.5564 -2.2038
  258MOL    H3446808   0.687   0.787   3.617 -0.0071 -0.3825  0.9898
  258MOL    H3546809   0.714   0.583   3.739 -2.3151 -1.2251  2.0994
  258MOL    H3646810   0.546   0.535   3.709 -0.5434  1.4182  1.7780
  258MOL    H3746811   0.673   0.550   3.583  1.9218  0.3683  1.0562
  258MOL    C3846812   0.480   0.741   3.545 -0.5021  0.2152 -0.2280
  258MOL    C3946813   0.526   0.705   3.400  0.4186  0.1789 -0.0207
  258MOL    C4046814   0.403   0.700   3.313 -0.8390 -0.5082 -0.1252
  258MOL    H4146815   0.405   0.667   3.575  1.3827 -2.2342 -1.3494
  258MOL    H4246816   0.432   0.839   3.542 -1.3106 -0.1600  0.1467
  258MOL    H4346817   0.584   0.613   3.397  1.3534  0.5907  2.8670
  258MOL    H4446818   0.429   0.651   3.219  0.5806  0.2350 -0.1361
  258MOL    H4546819   0.325   0.646   3.366 -0.1869 -1.4155 -0.0888
  258MOL    H4646820   0.361   0.799   3.294 -0.8462 -0.2644  1.1696
  258MOL    C4746821   0.626   0.814   3.344 -0.2682  0.4087  0.2224
  258MOL    C4846822   0.667   0.797   3.193  0.4272  0.2371  0.0798
  258MOL    C4946823   0.779   0.904   3.175  0.1394 -0.2718 -0.0978
  258MOL    H5046824   0.585   0.912   3.367  1.6946  1.3120  0.0164
  258MOL    H5146825   0.722   0.808   3.396  0.5792  1.9260 -1.1035
  258MOL    H5246826   0.579   0.824   3.134 -0.2636  1.2276  1.5212
  258MOL    H5346827   0.852   0.899   3.255 -0.1751 -0.6403  0.1687
  258MOL    H5446828   0.834   0.894   3.081  1.5611 -1.9250  0.8693
  258MOL    H5546829   0.740   1.005   3.186  1.8878  0.5512 -1.2701
  258MOL    C5646830   0.720   0.656   3.170 -0.0375  0.6479  0.2919
  258MOL    C5746831   0.759   0.617   3.025  0.1845  0.2754  0.3045
  258MOL    C5846832   0.846   0.488   3.034  0.0230  0.0813 -0.4413
  258MOL    H5946833   0.802   0.636   3.239 -0.0037 -1.4429 -0.3195
  258MOL    H6046834   0.645   0.584   3.203  1.2682 -1.5993 -1.5520
  258MOL    H6146835   0.813   0.694   2.971 -1.0389  0.9799  0.0663
  258MOL    H6246836   0.794   0.413   3.093  2.3248  1.6635  3.8665
  258MOL    H6346837   0.859   0.436   2.939 -0.6192 -0.1162 -0.4217
  258MOL    H6446838   0.939   0.495   3.091  0.5650  1.3379 -1.4458
  258MOL    C6546839   0.629   0.599   2.949 -0.7561 -0.1654 -0.1551
  258MOL    C6646840   0.621   0.680   2.815 -0.6344 -0.4721  0.9695
  258MOL    C6746841   0.739   0.634   2.722  0.3322  0.7294 -0.3403
  258MOL    H6846842   0.620   0.492   2.929 -0.5696 -0.2078 -0.0194
  258MOL    H6946843   0.544   0.617   3.016 -0.5842 -1.1959  0.3480
  258MOL    H7046844   0.636   0.783   2.848  1.2761  0.3229 -2.1930
  258MOL    H7146845   0.839   0.656   2.760  0.5055  1.1054 -1.0174
  258MOL    H7246846   0.737   0.526   2.705 -1.5982  0.6442  0.2982
  258MOL    H7346847   0.735   0.685   2.626 -2.4606  0.7103 -0.2698
  258MOL    C7446848   0.483   0.649   2.759 -0.6193  0.2851  0.1669
  258MOL    C7546849   0.379   0.764   2.770 -0.3886 -0.6166 -0.7163
  258MOL    C7646850   0.259   0.722   2.679 -0.0960 -0.2721 -0.3204
  258MOL    H7746851   0.502   0.616   2.656  1.1652 -0.0949  0.5968
  258MOL    H7846852   0.441   0.557   2.799 -0.1343  0.5347  1.2592
  258MOL    H7946853   0.428   0.853   2.731 -1.2180  0.1010 -0.1453
  258MOL    H8046854   0.196   0.644   2.721 -1.6185  0.3397 -1.4490
  258MOL    H8146855   0.192   0.807   2.669 -0.7519 -0.2779  3.1549
  258MOL    H8246856   0.288   0.684   2.581  1.8261  0.7047 -0.1562
  258MOL    C8346857   0.332   0.800   2.920 -0.4325  0.4914  0.1881
  258MOL    C8446858   0.251   0.935   2.921 -0.0410 -0.1918 -0.9578
  258MOL    C8546859   0.130   0.915   3.015  0.0748  0.0888  0.2064
  258MOL    H8646860   0.270   0.721   2.963 -0.3325  1.0970  1.4825
  258MOL    H8746861   0.416   0.813   2.988 -0.9065  3.2186  0.2998
  258MOL    H8846862   0.205   0.938   2.823 -0.7485  0.7552 -0.6037
  258MOL    H8946863   0.084   0.821   2.987  4.6595 -2.0226 -0.8149
  258MOL    H9046864   0.174   0.916   3.115 -0.1095 -1.9227  0.3189
  258MOL    H9146865   0.045   0.982   3.013  1.9919  2.5690 -2.4565
  258MOL    C9246866   0.326   1.068   2.944  0.1260  0.8616 -0.5426
  258MOL    C9346867   0.451   1.102   2.863 -0.3873 -0.6880  0.7933
  258MOL    C9446868   0.413   1.141   2.714 -0.6208  0.1160 -0.7230
  258MOL    H9546869   0.245   1.137   2.921 -1.0782 -0.5188 -0.5516
  258MOL    H9646870   0.351   1.061   3.050 -2.3302 -0.7253 -0.0212
  258MOL    H9746871   0.511   1.010   2.870  1.1693  0.2928  0.6599
  258MOL    H9846872   0.345   1.069   2.668  1.0503 -1.9030 -0.1465
  258MOL    H9946873   0.371   1.241   2.713  3.0520  1.7415 -2.6848
  258MOL   H10046874   0.500   1.141   2.648  0.1954  1.5604  0.3270
  258MOL   C10146875   0.523   1.217   2.937 -0.2853  0.2485 -0.0726
  258MOL   C10246876   0.650   1.266   2.868 -0.0256  0.8476 -0.0933
  258MOL   C10346877   0.681   1.403   2.917  0.1232  0.6132 -0.4651
  258MOL   H10446878   0.453   1.296   2.961  0.0429  0.4245  0.3200
  258MOL   H10546879   0.540   1.183   3.040 -2.1163 -2.1532 -0.5294
  258MOL   H10646880   0.628   1.279   2.762  1.6078  2.6437 -0.2401
  258MOL   H10746881   0.754   1.452   2.853  0.8377 -1.4602 -1.2716
  258MOL   H10846882   0.594   1.468   2.913  0.1378  0.5239 -2.5365
  258MOL   H10946883   0.704   1.399   3.024 -0.5481 -1.4340 -0.3798
  258MOL   C11046884   0.756   1.151   2.885  0.1233  0.0944 -0.4273
  258MOL   C11146885   0.875   1.172   2.782  0.6275 -0.0948 -0.4795
  258MOL   C11246886   0.999   1.096   2.844  0.1781  0.1216 -0.2782
  258MOL   H11346887   0.790   1.152   2.988 -1.7162  2.0305  0.2000
  258MOL   H11446888   0.717   1.050   2.876 -1.9076  0.9567 -1.7228
  258MOL   H11546889   0.892   1.280   2.778 -2.4017  0.4975  1.0712
  258MOL   H11646890   1.084   1.100   2.776  1.7909 -0.4404  1.6874
  258MOL   H11746891   1.041   1.144   2.932  1.6041 -2.4677  0.4773
  258MOL   H11846892   0.981   0.991   2.868  2.4056 -0.1699  0.1961
  258MOL   C11946893   0.839   1.119   2.646  0.4904 -0.3218 -0.0865
  258MOL   C12046894   0.929   1.153   2.529  0.4997 -0.2141  0.7335
  258MOL   C12146895   0.860   1.099   2.405  0.5788  0.3391  0.6004
  258MOL   H12246896   0.811   1.014   2.654  0.3639 -0.3480 -0.8606
  258MOL   H12346897   0.744   1.163   2.615  1.0264  0.0517 -1.2462
  258MOL   H12446898   1.029   1.110   2.534  0.5149 -0.2819 -0.0326
  258MOL   H12546899   0.754   1.123   2.393  0.8533  2.6519  2.5296
  258MOL   H12646900   0.909   1.139   2.316 -1.3143  1.9415  0.2345
  258MOL   H12746901   0.881   0.992   2.397 -0.0563  0.1897  0.8909
  258MOL   C12846902   0.940   1.311   2.519  0.3405 -1.0911  0.4461
  258MOL   C12946903   1.028   1.367   2.402  0.0695 -0.0643 -0.2738
  258MOL   C13046904   1.019   1.522   2.398  0.4159 -0.4174 -0.2686
  258MOL   H13146905   0.844   1.357   2.499  1.2553  0.3523 -0.7392
  258MOL   H13246906   0.983   1.360   2.607  1.8520 -0.5546 -0.5562
  258MOL   H13346907   0.995   1.331   2.305  2.1239  1.0272 -1.4096
  258MOL   H13446908   0.915   1.545   2.375  0.3680  0.2009  0.5319
  258MOL   H13546909   1.054   1.567   2.491  0.8606 -1.6209  0.1581
  258MOL   H13646910   1.080   1.561   2.317  0.5900 -0.4849 -0.1702
  258MOL   C13746911   1.180   1.333   2.433 -0.0284 -0.1890 -0.3489
  258MOL   C13846912   1.296   1.357   2.327 -0.2951 -0.1208 -0.0997
  258MOL   C13946913   1.416   1.294   2.393  0.4750 -0.3099  0.5742
  258MOL   H14046914   1.197   1.394   2.522  0.0383 -0.8359  0.0848
  258MOL   H14146915   1.192   1.234   2.478 -0.8267  0.4778  1.3417
  258MOL   H14246916   1.315   1.464   2.323 -0.6330  0.0698  2.2026
  258MOL   H14346917   1.408   1.185   2.401  1.0952 -0.3157  1.2134
  258MOL   H14446918   1.505   1.319   2.336 -1.0712  0.2947 -1.6243
  258MOL   H14546919   1.424   1.337   2.493 -0.9851 -0.0773  0.6038
  258MOL   C14646920   1.266   1.308   2.190  1.0435 -0.4840  0.6663
  258MOL   C14746921   1.372   1.330   2.077  0.5756  0.2915 -0.1663
  258MOL   C14846922   1.333   1.238   1.963 -0.0421 -0.4630 -0.2205
  258MOL   H14946923   1.251   1.201   2.197 -2.2336  0.0224  2.2831
  258MOL   H15046924   1.177   1.361   2.157  1.2118 -0.6665 -0.0701
  258MOL   H15146925   1.473   1.302   2.109 -0.2281 -3.7716 -0.9051
  258MOL   H15246926   1.418   1.216   1.898  0.3641  0.0718  0.1216
  258MOL   H15346927   1.302   1.138   1.992 -0.0620 -0.5399 -0.5009
  258MOL   H15446928   1.259   1.279   1.894 -1.6028 -2.0236  0.5039
  258MOL   C15546929   1.366   1.481   2.038 -0.1317  0.5946 -0.1609
  258MOL   C15646930   1.473   1.531   1.942 -0.1760 -0.4770  0.4628
  258MOL   C15746931   1.442   1.497   1.797  0.2798 -0.2632  0.0465
  258MOL   H15846932   1.269   1.514   1.999 -0.6346  0.1351  0.6856
  258MOL   H15946933   1.392   1.540   2.125  1.3789 -1.2664  0.6599
  258MOL   H16046934   1.561   1.469   1.958  0.4193 -0.1464 -1.3906
  258MOL   H16146935   1.520   1.546   1.740  0.4870 -0.7198 -0.0636
  258MOL   H16246936   1.445   1.389   1.780 -1.5674 -0.1367 -1.2428
  258MOL   H16346937   1.338   1.523   1.775  0.5615  0.1338 -0.8415
  258MOL   C16446938   1.497   1.682   1.954  0.1967 -0.1926  0.1047
  258MOL   C16546939   1.648   1.733   1.958  0.2383  0.2368  0.6332
  258MOL   C16646940   1.731   1.661   2.065 -0.1033 -0.3477 -0.1989
  258MOL   H16746941   1.457   1.742   1.871  2.3003  0.0508 -0.7511
  258MOL   H16846942   1.450   1.720   2.045 -0.6060 -1.9546  0.4520
  258MOL   H16946943   1.650   1.838   1.986  1.0483  0.1214  1.0272
  258MOL   H17046944   1.760   1.561   2.032 -1.3552 -1.4837  2.0512
  258MOL   H17146945   1.820   1.715   2.096 -0.4467  0.5651 -0.7833
  258MOL   H17246946   1.668   1.645   2.152  0.2019 -0.0498  0.0752
  258MOL   C17346947   1.730   1.714   1.824  0.0119 -0.5384 -0.7046
  258MOL   C17446948   1.717   1.825   1.724 -1.1681  1.2998  0.3446
  258MOL   C17546949   1.782   1.809   1.597 -0.4343 -0.5902 -0.3055
  258MOL   H17646950   1.833   1.703   1.855  0.0538  0.4227 -0.4945
  258MOL   H17746951   1.707   1.616   1.783  0.1321 -1.5065  1.4721
  258MOL   H17846952   1.771   1.906   1.772  0.3998  0.1761  0.5356
  258MOL   H17946953   1.873   1.755   1.623  1.0296  2.8980  2.3248
  258MOL   H18046954   1.713   1.755   1.533  0.6449 -1.7289 -0.5335
  258MOL   H18146955   1.799   1.906   1.550 -1.0281 -0.5950 -0.5311
  258MOL   H18246956   1.616   1.863   1.708 -1.0202  1.5658  0.0334
  259MOL     C146957   3.247   2.726   0.920  0.1373 -0.0778 -0.5055
  259MOL     C246958   3.226   2.866   0.868 -0.5625  0.1987  0.0623
  259MOL     C346959   3.347   2.966   0.901 -0.0193  0.2827 -0.1013
  259MOL     H446960   3.321   2.670   0.862 -1.9088 -0.3268 -2.9578
  259MOL     H546961   3.165   2.656   0.905  1.1287 -1.1131 -1.1436
  259MOL     H646962   3.135   2.905   0.915 -1.6734 -1.8830 -0.3121
  259MOL     H746963   3.324   3.069   0.872 -1.7740  0.1340  0.6741
  259MOL     H846964   3.359   2.981   1.008  4.1314  0.8901 -0.5612
  259MOL     H946965   3.442   2.927   0.865 -0.6150  0.0652 -1.4604
  259MOL    H1046966   3.261   2.726   1.028 -3.3140  0.3954 -0.0132
  259MOL    C1146967   3.191   2.873   0.716  0.1574  0.2488 -0.9625
  259MOL    C1246968   3.078   2.788   0.662  0.3788 -0.5214 -0.4677
  259MOL    C1346969   2.954   2.780   0.755 -0.0768 -0.1383  0.4436
  259MOL    H1446970   3.148   2.973   0.715  0.6809  0.4914  0.5403
  259MOL    H1546971   3.279   2.875   0.651  0.0360  0.2605 -1.1287
  259MOL    H1646972   3.105   2.683   0.656 -0.0151 -0.5862 -1.0900
  259MOL    H1746973   2.893   2.869   0.767 -0.4481 -0.2092 -0.8509
  259MOL    H1846974   2.883   2.706   0.718  1.2347 -1.5735  0.7430
  259MOL    H1946975   2.991   2.746   0.852  2.8558  2.7776  0.4181
  259MOL    C2046976   3.036   2.829   0.520 -0.7616 -0.1786  0.2528
  259MOL    C2146977   3.150   2.840   0.416 -1.4035  0.0115  0.5088
  259MOL    C2246978   3.234   2.713   0.394 -0.6856 -0.1377 -0.9164
  259MOL    H2346979   2.955   2.763   0.490 -0.5606 -0.7132  0.8600
  259MOL    H2446980   2.986   2.926   0.525 -0.5324 -0.0073 -0.6689
  259MOL    H2546981   3.213   2.928   0.431 -2.3007  0.6824  0.3466
  259MOL    H2646982   3.314   2.716   0.320  0.1572 -1.9533 -0.1159
  259MOL    H2746983   3.289   2.671   0.479  0.9247  1.8132 -0.9658
  259MOL    H2846984   3.167   2.631   0.369  1.5033 -2.3065  0.1793
  259MOL    C2946985   3.087   2.882   0.283 -0.6627 -0.0558  0.3247
  259MOL    C3046986   3.166   2.904   0.148  0.1537 -0.5938 -0.2547
  259MOL    C3146987   3.073   2.919   0.030 -0.6417 -0.1151  0.1338
  259MOL    H3246988   3.007   2.809   0.265 -0.6408  0.2440 -1.0357
  259MOL    H3346989   3.036   2.976   0.305  1.1496  1.0317 -0.0898
  259MOL    H3446990   3.220   2.811   0.127  0.3780 -0.2190 -1.3798
  259MOL    H3546991   3.016   2.828   0.008 -1.2390  0.2883  0.0147
  259MOL    H3646992   2.993   2.992   0.045 -0.7145 -0.5114  1.7001
  259MOL    H3746993   3.133   2.942   7.639  0.9789 -0.1861  1.2002
  259MOL    C3846994   3.258   3.027   0.158 -0.1987  0.3734 -0.1624
  259MOL    C3946995   3.354   3.047   0.047 -0.3601 -0.3743 -0.5986
  259MOL    C4046996   3.436   3.174   0.069  0.4485  0.0085  0.4283
  259MOL    H4146997   3.201   3.114   0.188 -1.2651  0.2342 -1.7575
  259MOL    H4246998   3.322   3.006   0.244  2.3411  2.4154 -1.4899
  259MOL    H4346999   3.306   3.060   7.647 -0.5793 -2.4295 -0.7733
  259MOL    H4447000   3.356   3.248   0.079  1.1060  1.4383 -3.7311
  259MOL    H4547001   3.499   3.167   0.157 -0.3766  2.0484  1.2057
  259MOL    H4647002   3.497   3.198   7.679 -0.6775  0.7192 -0.1812
  259MOL    C4747003   3.441   2.921   0.026  0.2385  0.1907  0.4216
  259MOL    C4847004   3.565   2.928   7.634  0.1732  0.5729 -0.3425
  259MOL    C4947005   3.661   2.813   7.670  0.0047 -0.4724  0.1192
  259MOL    H5047006   3.465   2.872   0.120 -1.7690  0.8019  1.2910
  259MOL    H5147007   3.376   2.852   7.669 -0.0170  0.3386  0.5360
  259MOL    H5247008   3.620   3.019   7.655  0.2268  0.8497 -1.6475
  259MOL    H5347009   3.709   2.828   0.069 -1.0087 -0.3005  0.6048
  259MOL    H5447010   3.613   2.715   7.672 -1.3661  0.1625 -0.8523
  259MOL    H5547011   3.744   2.809   7.599 -0.2987  0.8250 -0.3257
  259MOL    C5647012   3.530   2.953   7.488 -0.4003  0.1035 -0.0450
  259MOL    C5747013   3.654   2.996   7.403  0.9484  0.0523  0.4295
  259MOL    C5847014   3.661   2.895   7.279 -0.3064 -0.5392  0.5346
  259MOL    H5947015   3.489   2.862   7.444  1.2622 -1.4994  1.6273
  259MOL    H6047016   3.456   3.032   7.477  2.2445  2.4381 -1.6421
  259MOL    H6147017   3.744   2.977   7.461  0.4791 -0.4886  0.9943
  259MOL    H6247018   3.734   2.913   7.200  0.5794 -0.7876  1.2868
  259MOL    H6347019   3.672   2.790   7.308 -1.3557 -0.5827  0.7938
  259MOL    H6447020   3.563   2.892   7.232  0.0314 -0.5750 -0.1847
  259MOL    C6547021   3.639   3.145   7.357 -0.2469  0.0303 -0.0922
  259MOL    C6647022   3.771   3.197   7.288  0.6984  0.0141  0.4602
  259MOL    C6747023   3.730   3.251   7.148 -0.3196 -0.1599 -0.7316
  259MOL    H6847024   3.546   3.172   7.306  0.3718 -0.7992 -1.6875
  259MOL    H6947025   3.635   3.209   7.445 -0.0029 -1.0724  0.7340
  259MOL    H7047026   3.839   3.113   7.280  1.0865  0.3070  0.6403
  259MOL    H7147027   3.816   3.252   7.082  0.2145 -0.1585 -0.0326
  259MOL    H7247028   3.649   3.189   7.107 -2.3566 -0.2221  3.1126
  259MOL    H7347029   3.688   3.352   7.146  0.1652  0.2306  3.3197
  259MOL    C7447030   3.855   3.311   7.364  0.5379 -0.3960 -0.4201
  259MOL    C7547031   3.930   3.270   7.491 -0.2088  0.5326 -0.7836
  259MOL    C7647032   4.028   3.161   7.474 -0.6888 -0.2822 -0.3010
  259MOL    H7747033   3.924   3.354   7.291 -0.3656 -1.7510 -2.1268
  259MOL    H7847034   3.780   3.387   7.381 -0.4486 -1.9952  2.6414
  259MOL    H7947035   3.851   3.224   7.551 -0.4285 -0.5018 -1.8651
  259MOL    H8047036   3.988   3.078   7.416 -0.9968  2.0666 -3.5268
  259MOL    H8147037   4.114   3.191   7.414 -0.7885  0.6223  0.0029
  259MOL    H8247038   4.056   3.111   7.568  2.1183 -1.6057 -1.7711
  259MOL    C8347039   3.979   3.394   7.565  0.3901 -0.0658  0.8993
  259MOL    C8447040   4.020   3.401   0.015  0.4963 -0.0395 -0.1507
  259MOL    C8547041   4.065   3.546   0.050  0.2665 -0.1139 -0.1516
  259MOL    H8647042   4.065   3.431   7.509 -1.0505  0.3326 -1.1098
  259MOL    H8747043   3.907   3.473   7.545  0.7638 -0.2779 -1.4392
  259MOL    H8847044   4.107   3.337   0.011  0.5046 -0.0379 -0.0056
  259MOL    H8947045   3.993   3.619   0.014 -0.3507 -1.1145 -0.9799
  259MOL    H9047046   4.106   3.573   0.147 -1.9390  1.7033  0.3150
  259MOL    H9147047   4.147   3.571   7.679  0.2108  1.0278  0.1800
  259MOL    C9247048   3.908   3.348   0.108  0.2743  0.3835  0.2447
  259MOL    C9347049   3.960   3.338   0.254  0.5166  0.2787 -0.2571
  259MOL    C9447050   3.836   3.318   0.349 -0.2533 -0.7689  0.1592
  259MOL    H9547051   3.836   3.429   0.104  1.6391  1.6167  0.2491
  259MOL    H9647052   3.862   3.253   0.080  2.4694 -0.6234 -0.0878
  259MOL    H9747053   4.002   3.437   0.276  1.8723 -0.3611  0.0947
  259MOL    H9847054   3.784   3.223   0.337 -0.2618 -0.6474 -0.7855
  259MOL    H9947055   3.854   3.337   0.455  0.6344  0.5347 -0.2066
  259MOL   H10047056   3.764   3.396   0.324 -0.6694 -0.7807  1.2814
  259MOL   C10147057   4.057   3.225   0.278 -0.0227  0.2140  0.8714
  259MOL   C10247058   4.108   3.202   0.418 -0.4169 -0.4671 -0.2842
  259MOL   C10347059   4.188   3.065   0.425  0.1667  0.4746  0.6073
  259MOL   H10447060   4.003   3.135   0.248 -2.1023  1.5560  0.5258
  259MOL   H10547061   4.145   3.233   0.214  0.7612 -0.4769  1.8423
  259MOL   H10647062   4.028   3.192   0.492 -0.6225 -3.5957 -0.8282
  259MOL   H10747063   4.254   3.059   0.511 -1.5445 -1.0544  1.8486
  259MOL   H10847064   4.145   2.965   0.420  1.8530 -0.1803 -1.9982
  259MOL   H10947065   4.253   3.066   0.337 -1.6071 -0.2392 -0.7634
  259MOL   C11047066   4.199   3.318   0.460 -0.2848  0.4404 -0.2944
  259MOL   C11147067   4.180   3.380   0.598  0.2175 -0.1517 -0.5461
  259MOL   C11247068   4.202   3.277   0.713  0.2823  0.2408 -0.5115
  259MOL   H11347069   4.301   3.287   0.438  0.6494  1.1743  2.7806
  259MOL   H11447070   4.193   3.403   0.393 -1.7839  0.0153 -0.7154
  259MOL   H11547071   4.074   3.405   0.608  0.4547  0.8883 -0.6004
  259MOL   H11647072   4.186   3.326   0.809  3.5743  1.5943 -0.5781
  259MOL   H11747073   4.135   3.192   0.706  1.9039 -1.1972  0.9973
  259MOL   H11847074   4.303   3.236   0.716 -0.0093 -0.6410 -2.1111
  259MOL   C11947075   4.273   3.500   0.617 -0.6005 -0.2670  0.0840
  259MOL   C12047076   4.225   3.598   0.719  0.1649  0.0570 -0.1275
  259MOL   C12147077   4.340   3.692   0.752 -0.6069 -0.1497  0.2069
  259MOL   H12247078   4.372   3.457   0.634 -0.7569 -0.4819  0.4813
  259MOL   H12347079   4.281   3.548   0.520 -1.9498  0.4128  0.2987
  259MOL   H12447080   4.196   3.555   0.815  0.6825 -1.6023 -0.7010
  259MOL   H12547081   4.365   3.750   0.663  0.9389 -0.3061  0.5282
  259MOL   H12647082   4.324   3.772   0.824 -1.7365  0.4217 -0.6638
  259MOL   H12747083   4.428   3.635   0.780  0.4301  1.1810 -0.2728
  259MOL   C12847084   4.100   3.679   0.668 -0.0606 -0.0174  0.0742
  259MOL   C12947085   3.977   3.680   0.767  0.9411 -0.4081  0.1779
  259MOL   C13047086   4.008   3.757   0.897  0.4243 -0.3930 -0.4394
  259MOL   H13147087   4.133   3.782   0.660 -0.9319  0.3103  0.6487
  259MOL   H13247088   4.079   3.644   0.567 -1.2535 -0.3725  0.4452
  259MOL   H13347089   3.954   3.578   0.798  1.5513 -0.0045  2.0184
  259MOL   H13447090   4.081   3.715   0.965  1.0209  1.3790  0.0321
  259MOL   H13547091   4.035   3.859   0.869 -2.0890  0.5892  0.5398
  259MOL   H13647092   3.924   3.764   0.966  0.6810 -0.1670 -0.1540
  259MOL   C13747093   3.856   3.748   0.684  0.0767 -0.9388 -0.3249
  259MOL   C13847094   3.791   3.668   0.570 -0.0963 -0.2031 -0.0992
  259MOL   C13947095   3.723   3.544   0.623 -0.2303 -0.2141 -0.3358
  259MOL   H14047096   3.775   3.762   0.756 -0.4393 -1.3865 -0.8147
  259MOL   H14147097   3.881   3.848   0.650  0.8385 -1.0339 -0.0516
  259MOL   H14247098   3.868   3.637   0.500 -0.7160 -1.1759 -0.3543
  259MOL   H14347099   3.648   3.557   0.700 -2.2586 -1.8583 -1.9734
  259MOL   H14447100   3.679   3.488   0.540  0.4170 -2.5873  0.9000
  259MOL   H14547101   3.801   3.476   0.658 -0.6728 -0.3627  0.3460
  259MOL   C14647102   3.695   3.749   0.484 -0.4081  0.0338  0.3231
  259MOL   C14747103   3.761   3.851   0.395 -0.3120 -0.3942 -0.3691
  259MOL   C14847104   3.826   3.790   0.274  0.1828  0.3257  0.6438
  259MOL   H14947105   3.640   3.681   0.418  0.9743  0.7079 -1.5984
  259MOL   H15047106   3.621   3.802   0.543  0.6143  1.3952  0.4142
  259MOL   H15147107   3.840   3.906   0.447 -0.4082  0.2714 -0.9065
  259MOL   H15247108   3.914   3.735   0.307 -0.8666 -0.9695  1.3700
  259MOL   H15347109   3.753   3.725   0.224 -1.5112  1.3716  1.6975
  259MOL   H15447110   3.869   3.864   0.206  1.4216 -3.9080 -3.4932
  259MOL   C15547111   3.653   3.951   0.345  0.1145 -0.1734 -0.1726
  259MOL   C15647112   3.601   4.059   0.442 -0.0388 -0.2140  0.1914
  259MOL   C15747113   3.704   4.111   0.548 -0.2867  0.1757  0.3379
  259MOL   H15847114   3.702   4.006   0.265  1.1547  0.5211  0.9185
  259MOL   H15947115   3.571   3.891   0.307 -0.0952 -0.8740  1.3280
  259MOL   H16047116   3.512   4.030   0.499  0.2438 -0.9079  0.2766
  259MOL   H16147117   3.726   4.037   0.625  0.2679  1.7471  1.7140
  259MOL   H16247118   3.797   4.141   0.500  0.1546  0.1071  1.1532
  259MOL   H16347119   3.673   4.201   0.600  1.7600  0.3791  1.2367
  259MOL   C16447120   3.539   4.182   0.360 -0.2199 -0.1207 -0.2444
  259MOL   C16547121   3.413   4.150   0.281 -0.0708 -0.4437 -0.1683
  259MOL   C16647122   3.320   4.272   0.262 -0.0574  0.2018 -0.3225
  259MOL   H16747123   3.518   4.258   0.435 -1.5602  0.4834 -1.2004
  259MOL   H16847124   3.612   4.241   0.305 -0.7116  0.8943  0.1722
  259MOL   H16947125   3.365   4.067   0.333 -1.4359 -1.1647 -2.4664
  259MOL   H17047126   3.270   4.299   0.355 -0.3237 -1.9695  0.1863
  259MOL   H17147127   3.365   4.365   0.226  0.2445 -0.1951 -0.9737
  259MOL   H17247128   3.235   4.257   0.194 -2.1547 -1.6448  2.6035
  259MOL   C17347129   3.429   4.088   0.140 -0.3784  0.2883  0.1868
  259MOL   C17447130   3.307   4.002   0.099 -0.2381 -0.0565 -0.2972
  259MOL   C17547131   3.317   3.957   7.648  0.1739 -0.9432 -0.0707
  259MOL   H17647132   3.459   4.171   0.076  0.9600  0.2186  0.7135
  259MOL   H17747133   3.509   4.014   0.139  0.0231  0.7175  0.1902
  259MOL   H17847134   3.214   4.058   0.114  0.1342  0.7768 -1.0921
  259MOL   H17947135   3.251   3.870   7.636 -0.0522 -0.6641 -0.9372
  259MOL   H18047136   3.297   4.034   7.574 -0.5670 -1.1953 -0.1364
  259MOL   H18147137   3.418   3.923   7.624  0.0223 -0.8589 -0.8500
  259MOL   H18247138   3.291   3.906   0.149  0.2856 -0.8732 -1.7004
  260MOL     C147139   3.536   6.100   7.645 -0.1671 -0.0238 -0.7643
  260MOL     C247140   3.469   6.196   0.040  0.6137 -0.5293 -0.4978
  260MOL     C347141   3.546   6.329   0.060 -0.4930  0.6167  0.1826
  260MOL     H447142   3.481   6.007   7.630  1.1313 -1.0090  0.3559
  260MOL     H547143   3.630   6.075   7.695 -0.8693  0.7514  0.9790
  260MOL     H647144   3.454   6.148   0.136 -0.9205  1.4050  0.2669
  260MOL     H747145   3.651   6.316   0.087 -1.1399 -1.5209  1.7891
  260MOL     H847146   3.550   6.373   7.658  0.6564  2.5237  1.0425
  260MOL     H947147   3.491   6.397   0.125 -1.8716  0.4690 -0.8153
  260MOL    H1047148   3.568   6.128   7.545 -0.1498  0.7056 -0.5589
  260MOL    C1147149   3.326   6.233   7.687 -0.4702  0.3841 -0.3998
  260MOL    C1247150   3.235   6.302   0.097 -0.2889 -0.0599 -0.3321
  260MOL    C1347151   3.126   6.371   0.021 -0.4614 -0.2200  0.4641
  260MOL    H1447152   3.348   6.293   7.599  0.3337  0.8816  0.1318
  260MOL    H1547153   3.276   6.145   7.648 -0.5531  1.6584 -3.3047
  260MOL    H1647154   3.285   6.381   0.152  0.4281 -0.4293 -0.4519
  260MOL    H1747155   3.032   6.320   0.039 -1.1148  1.5899  2.3414
  260MOL    H1847156   3.108   6.473   0.055 -0.7123  0.6891 -2.2322
  260MOL    H1947157   3.145   6.367   7.611 -0.8677  2.1927  0.2629
  260MOL    C2047158   3.180   6.197   0.205 -0.0481  0.0319  1.2822
  260MOL    C2147159   3.129   6.249   0.337 -0.1595 -0.0532 -0.3330
  260MOL    C2247160   3.003   6.339   0.329  0.6136 -0.2055 -0.0377
  260MOL    H2347161   3.101   6.145   0.152  0.5564  1.3352 -0.9839
  260MOL    H2447162   3.260   6.126   0.226  0.0129 -0.7182 -1.2980
  260MOL    H2547163   3.202   6.310   0.391  0.5595 -1.7077  0.6128
  260MOL    H2647164   2.933   6.307   0.252  1.1841  1.9088 -1.4595
  260MOL    H2747165   2.962   6.348   0.430  1.6101 -2.3990  0.5911
  260MOL    H2847166   3.031   6.437   0.291 -0.4393  0.7378  1.5521
  260MOL    C2947167   3.099   6.132   0.439  0.2498 -0.1161 -0.3657
  260MOL    C3047168   3.224   6.042   0.472  0.6023  0.0815 -0.8249
  260MOL    C3147169   3.316   6.116   0.563 -0.2891 -0.7357  0.4337
  260MOL    H3247170   3.051   6.171   0.529  4.1383 -0.1128  1.7925
  260MOL    H3347171   3.026   6.071   0.384  0.1341  0.5223 -0.9225
  260MOL    H3447172   3.273   6.010   0.380  1.6050 -0.0616 -0.2441
  260MOL    H3547173   3.354   6.201   0.507 -0.0740 -1.1003  0.0256
  260MOL    H3647174   3.258   6.158   0.645 -2.3591  0.8566 -1.7864
  260MOL    H3747175   3.403   6.066   0.606 -0.3323  0.1620  1.5711
  260MOL    C3847176   3.184   5.912   0.540  0.0472  0.4046 -0.8231
  260MOL    C3947177   3.293   5.808   0.579  0.1154  0.4181 -0.4444
  260MOL    C4047178   3.226   5.686   0.651 -0.7766 -0.2996  0.2644
  260MOL    H4147179   3.110   5.932   0.618  0.2055 -1.0010 -0.2984
  260MOL    H4247180   3.129   5.852   0.469 -0.1041 -1.1992  0.6153
  260MOL    H4347181   3.348   5.871   0.649 -2.0236  1.2797  0.4888
  260MOL    H4447182   3.282   5.594   0.672 -1.0085 -0.5237 -0.0977
  260MOL    H4547183   3.189   5.715   0.749 -2.3513  0.7432 -0.6234
  260MOL    H4647184   3.146   5.648   0.588 -2.4501 -0.1754  2.2792
  260MOL    C4747185   3.375   5.749   0.454  0.1803 -0.1851  0.2353
  260MOL    C4847186   3.497   5.664   0.493  0.6409 -0.5441  0.3390
  260MOL    C4947187   3.481   5.517   0.441 -0.3667  0.2241  0.1417
  260MOL    H5047188   3.307   5.694   0.390 -2.4428  1.4764  1.5056
  260MOL    H5147189   3.409   5.835   0.396  1.0765 -0.3912  0.4478
  260MOL    H5247190   3.505   5.661   0.601  1.9395  1.8884  0.3459
  260MOL    H5347191   3.565   5.449   0.449 -0.5505 -0.2472 -1.6408
  260MOL    H5447192   3.390   5.464   0.470 -0.8534  0.0909 -1.5787
  260MOL    H5547193   3.475   5.530   0.333 -0.4940 -0.3566  0.0803
  260MOL    C5647194   3.639   5.724   0.465  0.2079  0.3017  0.4715
  260MOL    C5747195   3.683   5.854   0.542  0.2288 -0.3032 -0.2834
  260MOL    C5847196   3.709   5.816   0.688 -0.0928  0.1824  0.0044
  260MOL    H5947197   3.703   5.640   0.493 -0.1555  0.2787  1.2603
  260MOL    H6047198   3.653   5.735   0.357 -0.7798 -0.3006  0.2738
  260MOL    H6147199   3.587   5.906   0.540 -0.5571 -1.5231  2.9434
  260MOL    H6247200   3.764   5.892   0.745 -0.7483  0.1895  0.6301
  260MOL    H6347201   3.619   5.795   0.746 -0.3424  0.9065 -0.1204
  260MOL    H6447202   3.774   5.729   0.701 -0.1576 -0.0504 -1.1683
  260MOL    C6547203   3.794   5.932   0.474  0.7991 -0.2779  0.6052
  260MOL    C6647204   3.754   5.998   0.340  0.1632 -0.4218 -0.4119
  260MOL    C6747205   3.647   6.108   0.365 -0.5406  0.2692 -0.1938
  260MOL    H6847206   3.842   5.998   0.546 -2.9713  2.3273  0.8814
  260MOL    H6947207   3.882   5.874   0.446  0.3193  0.0985 -1.8140
  260MOL    H7047208   3.704   5.919   0.284  1.7537 -1.8567  0.1352
  260MOL    H7147209   3.695   6.181   0.430 -0.3918 -0.3284  0.3784
  260MOL    H7247210   3.623   6.157   0.271 -1.1500  0.7080  0.1900
  260MOL    H7347211   3.555   6.073   0.414  0.4807 -1.9783  0.1973
  260MOL    C7447212   3.871   6.059   0.256 -0.8461 -0.2470 -0.5027
  260MOL    C7547213   3.964   5.947   0.185  0.7083 -0.0691 -0.4507
  260MOL    C7647214   3.876   5.861   0.081 -0.3106  0.3395  1.1102
  260MOL    H7747215   3.821   6.125   0.186 -1.3112  0.9403  0.9437
  260MOL    H7847216   3.931   6.119   0.324  0.4911 -2.1289  0.0231
  260MOL    H7947217   4.018   5.888   0.259  0.0031  2.0697  1.8243
  260MOL    H8047218   3.947   5.817   0.011 -2.5959 -0.5449 -0.7244
  260MOL    H8147219   3.828   5.782   0.139 -0.7859  0.3898  0.7851
  260MOL    H8247220   3.800   5.920   0.029  0.8883  1.0034  0.0923
  260MOL    C8347221   4.082   6.027   0.108  0.0358 -0.1309  0.3361
  260MOL    C8447222   4.207   5.939   0.070  0.2565  0.0026 -0.8314
  260MOL    C8547223   4.297   6.015   7.663  0.3010  0.1907 -0.4151
  260MOL    H8647224   4.035   6.052   0.013  1.4276  0.5751 -0.1840
  260MOL    H8747225   4.112   6.117   0.162 -0.0863  0.4605 -0.5812
  260MOL    H8847226   4.178   5.841   0.032 -0.0738  0.0519 -0.7147
  260MOL    H8947227   4.378   5.947   7.637 -0.4041 -0.3956 -1.1115
  260MOL    H9047228   4.246   6.026   7.567 -2.3882  1.7716  1.1257
  260MOL    H9147229   4.335   6.107   0.011  0.7284 -1.6426  3.0744
  260MOL    C9247230   4.301   5.906   0.188 -0.2660  0.0220 -0.2311
  260MOL    C9347231   4.390   5.775   0.175 -0.0114  0.0174 -0.2733
  260MOL    C9447232   4.504   5.785   0.283  0.5040 -0.4249 -0.2376
  260MOL    H9547233   4.360   5.990   0.223 -1.3899  1.0328 -0.7282
  260MOL    H9647234   4.232   5.894   0.272 -0.5208  0.4262 -0.3827
  260MOL    H9747235   4.436   5.770   0.076 -1.6400 -1.2654 -0.9893
  260MOL    H9847236   4.569   5.700   0.260  0.1862 -0.9013  0.6204
  260MOL    H9947237   4.557   5.879   0.265 -0.5510  0.2164 -0.0634
  260MOL   H10047238   4.470   5.773   0.385  0.6584 -2.3584 -0.3995
  260MOL   C10147239   4.304   5.645   0.199  1.0476  0.7148 -0.5211
  260MOL   C10247240   4.380   5.509   0.159  0.8089  0.8398 -1.0365
  260MOL   C10347241   4.296   5.393   0.215  0.0186 -0.0932  0.6943
  260MOL   H10447242   4.288   5.656   0.306  0.8799 -1.7397 -0.2641
  260MOL   H10547243   4.216   5.655   0.137  0.9984 -0.2386 -0.6148
  260MOL   H10647244   4.474   5.518   0.212 -0.8216  0.3099  2.0557
  260MOL   H10747245   4.196   5.411   0.175  1.5907  5.2355 -1.2157
  260MOL   H10847246   4.335   5.296   0.184 -1.1958 -0.6768  0.9532
  260MOL   H10947247   4.293   5.405   0.323 -2.0410  3.8198  0.2826
  260MOL   C11047248   4.412   5.487   0.008  0.0941 -0.7750 -0.2183
  260MOL   C11147249   4.520   5.380   7.671 -0.5899 -0.0451 -0.7175
  260MOL   C11247250   4.499   5.332   7.526 -0.5762  0.1270 -0.1071
  260MOL   H11347251   4.324   5.438   7.663 -0.4918  1.9614 -2.2531
  260MOL   H11447252   4.430   5.584   7.660  1.5137  0.0336  1.9810
  260MOL   H11547253   4.500   5.292   0.035 -1.4266  0.2593 -0.5468
  260MOL   H11647254   4.579   5.264   7.498  0.6489  1.9180 -1.0596
  260MOL   H11747255   4.405   5.277   7.525 -0.0021 -0.8562 -0.7769
  260MOL   H11847256   4.500   5.398   7.440  1.6903 -1.3234 -1.2401
  260MOL   C11947257   4.662   5.427   0.005 -0.0473 -0.1655  0.1060
  260MOL   C12047258   4.788   5.345   7.670  0.1526 -0.2484  0.2995
  260MOL   C12147259   4.916   5.416   0.015 -0.0083 -0.3382 -1.3741
  260MOL   H12247260   4.679   5.516   7.642  1.9432 -1.5440 -1.4487
  260MOL   H12347261   4.658   5.438   0.113 -1.8351 -1.5919  0.1977
  260MOL   H12447262   4.810   5.334   7.564  2.1610  1.6261  0.4662
  260MOL   H12547263   4.924   5.503   7.647 -0.3854  0.7884  0.0655
  260MOL   H12647264   4.907   5.453   0.117  0.9890  1.7813 -2.0277
  260MOL   H12747265   5.005   5.354   0.007 -0.1207 -0.3812 -2.4058
  260MOL   C12847266   4.784   5.201   0.015  0.3488  0.1096 -0.2623
  260MOL   C12947267   4.741   5.173   0.170  1.2254  0.3166  0.3215
  260MOL   C13047268   4.698   5.032   0.184  0.1152 -0.1569  0.1380
  260MOL   H13147269   4.693   5.161   7.667  0.5622 -0.8646  0.1549
  260MOL   H13247270   4.868   5.144   7.674 -1.5895 -1.7540 -1.8595
  260MOL   H13347271   4.657   5.236   0.198  0.2365 -1.4516  1.3945
  260MOL   H13447272   4.647   5.008   0.277  0.1532 -0.2039  0.1464
  260MOL   H13547273   4.621   5.005   0.111  0.9460 -0.6413 -0.5694
  260MOL   H13647274   4.791   4.977   0.168 -0.0364  0.2735 -2.6002
  260MOL   C13747275   4.863   5.193   0.257 -0.5198 -0.5120 -0.1843
  260MOL   C13847276   4.849   5.170   0.411  0.6689 -0.7660  0.0106
  260MOL   C13947277   4.967   5.094   0.469 -0.0231  0.1118 -0.3268
  260MOL   H14047278   4.939   5.123   0.222 -0.3158 -1.4105  1.9790
  260MOL   H14147279   4.906   5.293   0.247 -0.0452 -0.9703 -3.2434
  260MOL   H14247280   4.762   5.107   0.429  0.0548 -0.1007 -0.6369
  260MOL   H14347281   4.960   4.989   0.439 -0.6050  0.2296 -0.6062
  260MOL   H14447282   5.057   5.149   0.445 -0.6188  0.4281 -1.8494
  260MOL   H14547283   4.952   5.094   0.577 -1.2934  1.5002 -0.4889
  260MOL   C14647284   4.841   5.301   0.490 -0.1901 -0.2982  0.0089
  260MOL   C14747285   4.739   5.408   0.442 -0.0679  0.1761 -0.2044
  260MOL   C14847286   4.594   5.349   0.450 -0.8589  0.1494 -0.5832
  260MOL   H14947287   4.820   5.283   0.596 -0.9379  1.7439  0.2315
  260MOL   H15047288   4.941   5.343   0.486  0.8249 -2.8142 -3.0169
  260MOL   H15147289   4.755   5.427   0.336 -0.0488  0.0095 -0.2307
  260MOL   H15247290   4.598   5.253   0.400  1.8435 -0.1275  0.0490
  260MOL   H15347291   4.564   5.329   0.553  0.5174 -2.5657 -0.6632
  260MOL   H15447292   4.518   5.416   0.412 -1.7452  0.6795  1.9914
  260MOL   C15547293   4.728   5.545   0.520  0.0092  0.0585  0.4159
  260MOL   C15647294   4.856   5.629   0.523  0.0876 -0.2945  0.0813
  260MOL   C15747295   4.924   5.657   0.393  0.6942 -0.1952 -0.9840
  260MOL   H15847296   4.651   5.602   0.469 -1.1355 -0.3928  1.6153
  260MOL   H15947297   4.688   5.510   0.615 -1.4921  1.1564  0.1960
  260MOL   H16047298   4.923   5.571   0.587  1.5092  3.1037  1.7820
  260MOL   H16147299   4.944   5.562   0.343  1.1509 -0.9313  0.5638
  260MOL   H16247300   4.866   5.715   0.322 -0.0896 -1.9724 -1.8395
  260MOL   H16347301   5.017   5.710   0.411 -0.4990  2.0390 -1.3095
  260MOL   C16447302   4.841   5.760   0.614  0.1314 -0.2118  0.3726
  260MOL   C16547303   4.962   5.841   0.664 -0.5419  0.8337 -0.3837
  260MOL   C16647304   4.997   5.954   0.566 -0.6073  1.1831 -0.0938
  260MOL   H16747305   4.770   5.827   0.564  0.5991 -1.8199 -2.5390
  260MOL   H16847306   4.786   5.730   0.703  1.1135  1.4305  1.5812
  260MOL   H16947307   5.039   5.765   0.656 -1.7142 -0.9032  3.3277
  260MOL   H17047308   5.102   5.983   0.567  0.3271 -1.9579  2.8943
  260MOL   H17147309   4.987   5.913   0.465  3.5010 -0.0739 -0.0552
  260MOL   H17247310   4.934   6.040   0.587  0.0823  1.7314 -0.2554
  260MOL   C17347311   4.954   5.894   0.813  0.1369  0.1775  0.1887
  260MOL   C17447312   5.088   5.948   0.866  0.0072 -0.4154 -1.0096
  260MOL   C17547313   5.080   6.005   1.005  1.1701 -0.4155 -0.4568
  260MOL   H17647314   4.887   5.980   0.808  2.4237  2.0379  0.8777
  260MOL   H17747315   4.917   5.815   0.879 -1.3741 -0.1978 -1.0560
  260MOL   H17847316   5.132   6.028   0.807  1.0061 -1.0902 -1.1793
  260MOL   H17947317   5.177   6.047   1.034  0.7308  0.1443  0.2165
  260MOL   H18047318   5.001   6.080   1.016 -0.1767 -1.3264 -3.5785
  260MOL   H18147319   5.062   5.922   1.073 -0.6123 -0.6415 -1.1936
  260MOL   H18247320   5.163   5.869   0.866  0.9879  0.3875  3.0885
  261MOL     C147321   1.224   0.490   6.171 -0.1409  0.2471 -0.2318
  261MOL     C247322   1.129   0.385   6.229 -0.1933  0.1334 -0.3325
  261MOL     C347323   1.148   0.389   6.379  0.1960 -0.5109 -0.0434
  261MOL     H447324   1.325   0.461   6.203 -0.5298  0.2281  1.0040
  261MOL     H547325   1.201   0.582   6.225 -2.1579  0.2685 -1.0920
  261MOL     H647326   1.166   0.288   6.195 -0.2834  0.3578 -1.0662
  261MOL     H747327   1.117   0.289   6.409  0.4524 -0.4779  0.3389
  261MOL     H847328   1.248   0.398   6.422  0.0433 -3.1017  0.9328
  261MOL     H947329   1.086   0.466   6.424  2.6110  1.9765 -0.8447
  261MOL    H1047330   1.214   0.513   6.066  0.3903  1.3654 -0.0407
  261MOL    C1147331   0.984   0.391   6.175 -0.2124 -0.3497  0.5181
  261MOL    C1247332   0.881   0.293   6.227 -0.5823  0.7099 -0.7574
  261MOL    C1347333   0.745   0.351   6.203  0.6570 -0.1088 -0.4442
  261MOL    H1447334   0.956   0.495   6.196  1.8400  0.4703 -0.6699
  261MOL    H1547335   0.982   0.395   6.066 -3.9455  3.0131  0.5477
  261MOL    H1647336   0.889   0.292   6.335  2.8685  4.0331 -0.8559
  261MOL    H1747337   0.663   0.299   6.254  0.3703 -0.0325 -0.8297
  261MOL    H1847338   0.742   0.459   6.220 -0.4817 -0.0176 -1.1769
  261MOL    H1947339   0.734   0.331   6.097  0.1490 -0.2801 -0.3601
  261MOL    C2047340   0.902   0.148   6.181  0.3553  0.3605 -0.4004
  261MOL    C2147341   0.854   0.036   6.282 -0.1753  0.5176 -0.8320
  261MOL    C2247342   0.751   7.650   6.216  0.4557  0.0757  0.3432
  261MOL    H2347343   0.844   0.128   6.091  0.5199  1.7892 -0.8396
  261MOL    H2447344   1.000   0.127   6.139  0.7490 -1.0778  1.1558
  261MOL    H2547345   0.822   0.091   6.370  1.9931 -0.5822  0.6901
  261MOL    H2647346   0.765   7.627   6.110 -0.5664 -1.4827  0.5175
  261MOL    H2747347   0.733   7.553   6.263 -1.6503 -0.5855 -1.7175
  261MOL    H2847348   0.656   0.005   6.226  0.4133  0.4260 -1.7815
  261MOL    C2947349   0.974   7.648   6.320  0.4428 -0.2234  0.0448
  261MOL    C3047350   0.955   7.560   6.444 -0.2453 -0.2322  0.7223
  261MOL    C3147351   1.061   7.449   6.444  0.7350 -0.4767 -0.1017
  261MOL    H3247352   1.001   7.581   6.239  1.2221  0.8985 -0.6486
  261MOL    H3347353   1.062   0.013   6.336 -0.6334  0.9034  1.8467
  261MOL    H3447354   0.858   7.511   6.443 -0.3446 -0.0410  0.9130
  261MOL    H3547355   1.054   7.382   6.359 -0.0976  0.3293 -0.6702
  261MOL    H3647356   1.163   7.472   6.473  0.3534 -1.5661  2.3213
  261MOL    H3747357   1.040   7.384   6.530  0.8768 -1.2313 -0.6340
  261MOL    C3847358   0.970   7.648   6.571  0.0050 -0.1186  0.4037
  261MOL    C3947359   0.903   7.584   6.693  0.6052 -0.4033 -0.3191
  261MOL    C4047360   0.988   7.587   6.823  0.1852  0.2704 -0.4120
  261MOL    H4147361   1.075   7.672   6.588  0.2802  1.0026 -2.7059
  261MOL    H4247362   0.925   0.048   6.554  2.8245  1.0152 -0.9321
  261MOL    H4347363   0.888   7.476   6.689  1.3381 -0.5351  0.3805
  261MOL    H4447364   1.013   7.689   6.849  1.9893 -1.0182  3.2661
  261MOL    H4547365   0.937   7.543   6.909 -0.5171 -1.6064 -1.7334
  261MOL    H4647366   1.081   7.535   6.799 -1.2829 -1.3581 -2.8692
  261MOL    C4747367   0.758   7.639   6.726 -0.2278  0.1386  0.0357
  261MOL    C4847368   0.648   7.605   6.624  0.0854 -0.3970 -0.6153
  261MOL    C4947369   0.625   7.454   6.615  0.0450  0.9695  1.2165
  261MOL    H5047370   0.721   7.584   6.812 -1.0806  0.3566 -0.1769
  261MOL    H5147371   0.765   0.050   6.740 -1.6558  0.3737 -0.9521
  261MOL    H5247372   0.679   7.650   6.529  3.1015 -1.5947 -0.2384
  261MOL    H5347373   0.588   7.409   6.707  2.2755  1.0117  2.1740
  261MOL    H5447374   0.548   7.442   6.538  2.3480 -0.6295 -0.9153
  261MOL    H5547375   0.717   7.410   6.576 -1.5689 -0.1999 -1.4171
  261MOL    C5647376   0.509   7.670   6.645  0.1924 -0.1638  0.7340
  261MOL    C5747377   0.491   0.132   6.639  0.4036  0.0124  0.4976
  261MOL    C5847378   0.515   0.176   6.490 -0.2810 -0.4695 -0.8885
  261MOL    H5947379   0.447   7.636   6.562 -0.9685  4.0579 -0.2078
  261MOL    H6047380   0.471   7.631   6.739 -3.0028  2.1701  0.4827
  261MOL    H6147381   0.562   0.186   6.702  0.3269 -1.4058  1.8270
  261MOL    H6247382   0.617   0.188   6.452  1.1456 -1.8453  2.3335
  261MOL    H6347383   0.469   0.112   6.415  0.1966 -0.6439 -1.0347
  261MOL    H6447384   0.481   0.279   6.477 -0.2134 -0.3992 -0.5146
  261MOL    C6547385   0.350   0.180   6.681  0.6051  0.2702  0.6845
  261MOL    C6647386   0.326   0.234   6.822 -0.4884  0.0749 -1.1045
  261MOL    C6747387   0.369   0.130   6.924 -0.2069  0.0924 -0.5255
  261MOL    H6847388   0.304   0.254   6.616 -0.1750 -0.9885 -0.2280
  261MOL    H6947389   0.284   0.094   6.668  2.3348 -1.1636  1.1400
  261MOL    H7047390   0.218   0.251   6.831 -0.1022  4.0178 -2.7525
  261MOL    H7147391   0.333   0.152   7.025  2.8622  0.3415  0.5800
  261MOL    H7247392   0.330   0.032   6.899 -0.4927 -0.3438  1.5008
  261MOL    H7347393   0.477   0.115   6.922 -0.1462  0.4278  0.1513
  261MOL    C7447394   0.395   0.369   6.854  0.0346  0.2900  0.3389
  261MOL    C7547395   0.312   0.466   6.947 -0.3552  0.6148 -0.7752
  261MOL    C7647396   0.409   0.546   7.034  0.3492  0.4559  0.1832
  261MOL    H7747397   0.493   0.346   6.895 -1.0737 -1.1599  2.2399
  261MOL    H7847398   0.415   0.419   6.759 -0.9560  0.8518  0.4080
  261MOL    H7947399   0.250   0.410   7.016  0.6348  0.6039  0.1140
  261MOL    H8047400   0.374   0.629   7.095  1.6334  0.2873  1.1719
  261MOL    H8147401   0.452   0.482   7.111 -1.4071  0.8799  1.5694
  261MOL    H8247402   0.484   0.589   6.969  0.4305 -2.5345 -1.7874
  261MOL    C8347403   0.220   0.564   6.874 -0.4726 -0.1278 -0.0881
  261MOL    C8447404   0.080   0.517   6.826  0.5060 -0.2439  0.1856
  261MOL    C8547405   7.679   0.511   6.945  0.3750  0.0170  0.1323
  261MOL    H8647406   0.209   0.651   6.939  2.2587  1.3717 -1.5402
  261MOL    H8747407   0.275   0.617   6.796 -1.0609  1.5463  0.5968
  261MOL    H8847408   0.099   0.426   6.768  3.2661  0.0525  0.5439
  261MOL    H8947409   7.589   0.455   6.921  1.8420 -1.3481 -2.4444
  261MOL    H9047410   0.019   0.469   7.038 -1.5830 -0.0952  0.8783
  261MOL    H9147411   7.645   0.610   6.973  1.2246  0.7384 -1.2911
  261MOL    C9247412   0.016   0.619   6.730  0.5136  0.2536 -0.4113
  261MOL    C9347413   0.069   0.617   6.587 -1.5905 -0.0048  0.0270
  261MOL    C9447414   0.047   0.477   6.527  0.2949  0.2208 -0.0642
  261MOL    H9547415   7.612   0.578   6.723  0.1378  0.8918  1.1366
  261MOL    H9647416   0.022   0.726   6.750  0.4349 -0.0663  1.4266
  261MOL    H9747417   0.177   0.636   6.587 -0.9280 -3.3850  0.7937
  261MOL    H9847418   0.124   0.400   6.538 -0.3831 -0.9518 -3.1822
  261MOL    H9947419   7.643   0.446   6.554  0.3653  1.8467  2.2189
  261MOL   H10047420   0.022   0.475   6.421 -0.5959 -1.1808  0.1468
  261MOL   C10147421   7.690   0.716   6.497 -0.9989 -0.1464 -0.1972
  261MOL   C10247422   0.080   0.762   6.380  0.4614 -0.2334 -0.0477
  261MOL   C10347423   7.680   0.829   6.281  0.7129 -0.7085  0.2284
  261MOL   H10447424   7.593   0.671   6.476  0.2624 -2.8692 -0.4891
  261MOL   H10547425   7.676   0.805   6.558  1.2747  0.2783 -0.2545
  261MOL   H10647426   0.118   0.667   6.342 -1.3458 -0.7341 -0.6565
  261MOL   H10747427   7.651   0.927   6.318  1.2937 -1.0652  1.6490
  261MOL   H10847428   0.038   0.850   6.190  0.9865 -0.9139  0.3472
  261MOL   H10947429   7.597   0.764   6.254  1.9828 -1.8552 -0.9700
  261MOL   C11047430   0.199   0.862   6.424  0.0081 -0.2617 -0.3344
  261MOL   C11147431   0.294   0.904   6.307  0.2697  0.6296  0.2062
  261MOL   C11247432   0.419   0.978   6.367  0.0319 -0.0027  0.3050
  261MOL   H11347433   0.153   0.950   6.469  0.4580  0.0125 -0.4039
  261MOL   H11447434   0.256   0.818   6.506  1.7238  0.8653 -0.8679
  261MOL   H11547435   0.234   0.971   6.246  0.0125  1.5573  1.4529
  261MOL   H11647436   0.473   0.915   6.437 -2.2333 -1.3014  0.9591
  261MOL   H11747437   0.483   1.019   6.289 -0.1863 -0.9310 -0.3632
  261MOL   H11847438   0.377   1.057   6.430 -2.4936 -0.9720 -0.0931
  261MOL   C11947439   0.324   0.786   6.203 -0.2986 -0.5715 -0.8963
  261MOL   C12047440   0.405   0.826   6.077 -1.1021 -0.2117  0.2271
  261MOL   C12147441   0.497   0.714   6.022  0.8741  0.2545 -0.5202
  261MOL   H12247442   0.376   0.709   6.260 -1.5315 -0.5646  0.2748
  261MOL   H12347443   0.235   0.733   6.166 -1.8919  0.1505  1.7789
  261MOL   H12447444   0.464   0.914   6.102 -2.4352  0.7907 -0.0863
  261MOL   H12547445   0.550   0.744   5.932  1.4395  1.5560  0.2262
  261MOL   H12647446   0.579   0.688   6.091  2.4906 -1.1957 -2.9067
  261MOL   H12747447   0.441   0.623   6.000 -0.5837  1.7093 -3.0032
  261MOL   C12847448   0.320   0.856   5.954 -0.0542 -0.0477 -0.7416
  261MOL   C12947449   0.219   0.969   5.949  0.1656 -0.2704  0.1167
  261MOL   C13047450   0.292   1.108   5.942  0.4253  1.1673 -0.3960
  261MOL   H13147451   0.382   0.866   5.865  0.2697 -0.6221 -0.5788
  261MOL   H13247452   0.261   0.765   5.941 -1.0199  0.4489  0.0726
  261MOL   H13347453   0.177   0.980   6.048  1.9229 -1.1746  0.9857
  261MOL   H13447454   0.345   1.128   5.848 -2.5105  0.6779 -2.2314
  261MOL   H13547455   0.218   1.189   5.942 -1.9072 -0.9099  0.9702
  261MOL   H13647456   0.356   1.128   6.027 -1.3521  2.0007  0.7822
  261MOL   C13747457   0.115   0.940   5.836 -0.3782  0.3244 -0.8280
  261MOL   C13847458   0.002   1.041   5.828  0.6934 -1.2347  0.2843
  261MOL   C13947459   7.606   1.006   5.705  0.1973 -0.9778  0.0679
  261MOL   H14047460   0.174   0.943   5.745 -0.5124  0.4609 -0.9123
  261MOL   H14147461   0.069   0.846   5.864 -2.8542  1.7158 -0.0250
  261MOL   H14247462   0.042   1.142   5.817 -1.2173 -0.6764 -1.8276
  261MOL   H14347463   7.657   0.972   5.615 -0.0754 -2.2553  0.3958
  261MOL   H14447464   7.527   0.933   5.721 -1.8093  1.3623  1.2181
  261MOL   H14547465   7.557   1.097   5.669  1.7956 -0.1521 -0.0525
  261MOL   C14647466   7.618   1.054   5.953  0.2623 -0.5705 -0.3616
  261MOL   C14747467   7.515   1.166   5.954  0.1872  0.1708  0.1808
  261MOL   C14847468   7.422   1.141   6.072 -0.0075  0.3013 -1.0981
  261MOL   H14947469   7.564   0.959   5.961 -1.5164  0.5592  1.6934
  261MOL   H15047470   7.665   1.062   6.051 -0.5957  1.3456 -0.0830
  261MOL   H15147471   7.453   1.155   5.865 -1.2077 -1.8166  1.3463
  261MOL   H15247472   7.347   1.221   6.075 -0.7005 -0.3674  0.1824
  261MOL   H15347473   7.381   1.042   6.052 -1.2372  0.3946  0.8084
  261MOL   H15447474   7.470   1.134   6.170  0.8114  0.5390 -1.4860
  261MOL   C15547475   7.575   1.310   5.964 -0.3360 -0.3703 -0.1789
  261MOL   C15647476   7.481   1.427   5.943  0.3995 -1.1657  0.6569
  261MOL   C15747477   7.559   1.553   5.961  0.6055  0.7298 -0.8768
  261MOL   H15847478   7.631   1.318   6.057  2.5835 -0.1950 -1.9028
  261MOL   H15947479   7.656   1.321   5.891  0.9035  0.4541  1.2978
  261MOL   H16047480   7.418   1.424   6.032 -3.0386  1.2781 -1.5702
  261MOL   H16147481   7.654   1.545   5.907  1.4020 -1.4860  0.7693
  261MOL   H16247482   7.503   1.644   5.941  0.7090  1.4304  1.8140
  261MOL   H16347483   7.589   1.573   6.064 -1.7675 -2.2154  0.4602
  261MOL   C16447484   7.382   1.415   5.828  0.0027  0.1160 -0.7448
  261MOL   C16547485   7.440   1.409   5.682  0.4680  0.3733  0.1896
  261MOL   C16647486   7.316   1.380   5.595 -0.2345  0.3584 -0.1692
  261MOL   H16747487   7.326   1.325   5.851 -1.3881  0.8605 -1.2058
  261MOL   H16847488   7.314   1.499   5.841 -1.8096 -1.3090 -0.8471
  261MOL   H16947489   7.504   1.323   5.664  0.3155  0.6577 -1.9038
  261MOL   H17047490   7.350   1.365   5.493  0.3006 -1.5789  0.2607
  261MOL   H17147491   7.278   1.283   5.629  0.3795  1.2390  3.2630
  261MOL   H17247492   7.223   1.437   5.600 -0.7132 -0.2322 -1.9676
  261MOL   C17347493   7.534   1.526   5.632 -0.3239 -0.1051  0.9412
  261MOL   C17447494   7.461   1.659   5.615  0.3683  0.1782 -0.4996
  261MOL   C17547495   7.534   1.784   5.553  0.3424 -0.4975 -0.2308
  261MOL   H17647496   7.619   1.535   5.699  0.7572  2.2634 -0.6947
  261MOL   H17747497   7.589   1.499   5.541 -0.5209  1.4920  0.3300
  261MOL   H17847498   7.427   1.686   5.715  2.1225  0.6247 -0.0123
  261MOL   H17947499   7.562   1.763   5.450 -1.7253 -2.3647 -0.4368
  261MOL   H18047500   7.466   1.869   5.547 -0.3216 -0.9578  0.7018
  261MOL   H18147501   7.616   1.819   5.616  0.3953  0.7390 -0.9700
  261MOL   H18247502   7.375   1.638   5.550 -0.0651  1.0065 -0.2012
  262MOL     C147503   4.140   4.425   3.207 -0.0766  0.6487  0.0707
  262MOL     C247504   4.229   4.313   3.271 -0.1053  0.0404  0.2411
  262MOL     C347505   4.141   4.219   3.351 -0.4865 -0.2190  0.0176
  262MOL     H447506   4.188   4.498   3.141  0.7777 -0.1375 -0.1980
  262MOL     H547507   4.099   4.488   3.285 -0.1078  1.3239 -0.4795
  262MOL     H647508   4.310   4.361   3.326 -0.0812 -0.5912  0.7736
  262MOL     H747509   4.202   4.136   3.388 -0.2806  0.1045  0.4090
  262MOL     H847510   4.084   4.257   3.436  1.6364  0.3580  1.2380
  262MOL     H947511   4.063   4.168   3.295 -0.8385  2.2785 -1.8449
  262MOL    H1047512   4.054   4.388   3.152 -1.0364  0.7173  1.5164
  262MOL    C1147513   4.294   4.229   3.153 -0.6802  0.2404 -0.0852
  262MOL    C1247514   4.389   4.106   3.186  0.4470  0.0513 -0.0773
  262MOL    C1347515   4.446   4.045   3.057  0.4711 -0.1262 -0.4687
  262MOL    H1447516   4.214   4.196   3.086 -0.3283 -2.8126  0.9150
  262MOL    H1547517   4.347   4.296   3.086  1.2882 -1.3141 -0.1449
  262MOL    H1647518   4.321   4.029   3.221  1.2991 -1.7052 -2.1830
  262MOL    H1747519   4.530   4.108   3.025 -0.7547  3.0808  2.2682
  262MOL    H1847520   4.486   3.944   3.067 -0.1586 -0.0360  3.9677
  262MOL    H1947521   4.373   4.047   2.976  0.9004  0.7420 -0.8450
  262MOL    C2047522   4.495   4.125   3.297  0.3177 -0.4938 -0.6216
  262MOL    C2147523   4.575   3.995   3.327  0.1656 -0.6654  0.1752
  262MOL    C2247524   4.694   4.036   3.415  0.3001  0.7767 -0.8588
  262MOL    H2347525   4.568   4.203   3.272  0.4877  0.0961  1.6383
  262MOL    H2447526   4.447   4.169   3.384  0.6480  0.2252 -0.7980
  262MOL    H2547527   4.620   3.952   3.237  1.6781  1.4837 -0.1191
  262MOL    H2647528   4.750   4.114   3.364  0.1541 -0.7269 -3.4402
  262MOL    H2747529   4.670   4.059   3.518  1.0235 -1.7502 -0.0835
  262MOL    H2847530   4.755   3.946   3.429  0.2649  0.4015 -2.8856
  262MOL    C2947531   4.485   3.873   3.385  0.0933  0.3265  0.3325
  262MOL    C3047532   4.507   3.735   3.320 -0.0414 -0.1337 -0.2286
  262MOL    C3147533   4.608   3.646   3.410  0.1214  0.0120  0.3022
  262MOL    H3247534   4.522   3.863   3.487 -0.0049 -0.0409  0.3341
  262MOL    H3347535   4.382   3.906   3.393  0.7123  2.3368  0.2256
  262MOL    H3447536   4.548   3.744   3.220  1.2242  1.8572  0.4381
  262MOL    H3547537   4.580   3.643   3.515  0.5866  0.9295  0.4585
  262MOL    H3647538   4.616   3.541   3.378 -1.6888  1.2892 -4.9080
  262MOL    H3747539   4.708   3.689   3.404  1.9408 -4.1341 -1.8100
  262MOL    C3847540   4.370   3.661   3.338 -0.0637 -0.5396 -0.1037
  262MOL    C3947541   4.356   3.526   3.277  0.3083  0.9419  0.0283
  262MOL    C4047542   4.213   3.469   3.300  0.5169 -0.2571 -0.8761
  262MOL    H4147543   4.350   3.650   3.445  1.0302  0.9135  0.2703
  262MOL    H4247544   4.286   3.723   3.304 -0.3407  0.5908  2.5021
  262MOL    H4347545   4.435   3.463   3.316  0.4636  2.2830  1.9797
  262MOL    H4447546   4.204   3.371   3.253 -0.4395 -1.1164  1.0626
  262MOL    H4547547   4.208   3.433   3.403  0.0181 -2.8396 -1.7754
  262MOL    H4647548   4.133   3.536   3.267 -0.8322 -2.1872 -1.6056
  262MOL    C4747549   4.385   3.533   3.121 -0.3887  0.0269  0.1334
  262MOL    C4847550   4.489   3.442   3.064  0.6360  0.5949 -0.0616
  262MOL    C4947551   4.466   3.290   3.092 -0.8475  0.1819 -0.6104
  262MOL    H5047552   4.290   3.509   3.072  0.4485  0.9301 -1.9420
  262MOL    H5147553   4.402   3.637   3.095  0.7260 -0.2381 -0.1897
  262MOL    H5247554   4.587   3.465   3.107  1.5660  1.3151 -2.4839
  262MOL    H5347555   4.554   3.238   3.055  0.1557  1.6295 -0.2878
  262MOL    H5447556   4.460   3.273   3.199 -2.2652  1.1499 -0.5266
  262MOL    H5547557   4.375   3.263   3.037 -0.2940 -0.1275 -1.3890
  262MOL    C5647558   4.519   3.479   2.917  0.6084 -0.2867  0.1644
  262MOL    C5747559   4.558   3.622   2.875 -0.0382  0.2681 -0.2772
  262MOL    C5847560   4.691   3.675   2.942  0.0799  0.8151 -0.1605
  262MOL    H5947561   4.582   3.409   2.861  0.0940  1.6240 -2.9211
  262MOL    H6047562   4.418   3.463   2.878  0.3752  1.2435  0.1410
  262MOL    H6147563   4.478   3.693   2.895 -0.5038 -0.5803  0.9413
  262MOL    H6247564   4.695   3.662   3.050 -2.5581 -0.1419 -0.1422
  262MOL    H6347565   4.776   3.631   2.890 -2.5088 -0.9472 -3.0994
  262MOL    H6447566   4.702   3.782   2.923  0.6951  0.9140  0.7029
  262MOL    C6547567   4.562   3.636   2.718 -0.3389 -0.6556 -0.1310
  262MOL    C6647568   4.609   3.764   2.651 -0.1489 -0.5147 -0.4317
  262MOL    C6747569   4.634   3.752   2.500 -0.2154  1.2147 -0.1881
  262MOL    H6847570   4.634   3.565   2.678 -0.0922  0.1686 -1.1847
  262MOL    H6947571   4.466   3.603   2.680 -0.9355  0.4985  0.3288
  262MOL    H7047572   4.705   3.793   2.694 -0.0675 -0.2353 -0.7929
  262MOL    H7147573   4.681   3.841   2.458 -0.2665  0.9494 -0.8154
  262MOL    H7247574   4.704   3.671   2.479  0.5314  1.9299 -0.4894
  262MOL    H7347575   4.546   3.731   2.439  1.2561  0.1961 -2.0535
  262MOL    C7447576   4.519   3.893   2.681  0.2552  0.6218  0.7993
  262MOL    C7547577   4.564   4.022   2.602 -0.7486  0.0723 -0.2560
  262MOL    C7647578   4.471   4.056   2.486  0.0736 -0.1390  0.0354
  262MOL    H7747579   4.418   3.857   2.661  0.9360 -0.8827 -0.0288
  262MOL    H7847580   4.509   3.920   2.786  1.0054  2.8962  0.3300
  262MOL    H7947581   4.666   3.998   2.572 -0.8649  0.8770 -1.3031
  262MOL    H8047582   4.450   3.967   2.428 -3.2908  1.9446 -2.1128
  262MOL    H8147583   4.372   4.090   2.516  0.1911 -0.5457  0.8950
  262MOL    H8247584   4.514   4.132   2.421 -1.0058  0.1602 -0.3411
  262MOL    C8347585   4.594   4.152   2.692  0.0871  0.5598 -0.1533
  262MOL    C8447586   4.668   4.256   2.613  0.5857 -0.8969 -0.1383
  262MOL    C8547587   4.640   4.399   2.675  0.2967 -0.0347 -1.0520
  262MOL    H8647588   4.502   4.199   2.728  1.4767  1.3057  2.5312
  262MOL    H8747589   4.647   4.124   2.783 -0.7683  2.1467  0.8703
  262MOL    H8847590   4.616   4.264   2.517  0.0518  2.4899  0.3743
  262MOL    H8947591   4.689   4.421   2.771 -1.7423  1.1679 -0.2495
  262MOL    H9047592   4.684   4.471   2.606 -0.4768 -0.7200 -2.2722
  262MOL    H9147593   4.536   4.431   2.677  0.8759  1.9822 -2.1154
  262MOL    C9247594   4.816   4.226   2.586 -0.3692 -0.2542 -0.4193
  262MOL    C9347595   4.850   4.218   2.437  0.4460  0.4853 -0.1830
  262MOL    C9447596   4.828   4.362   2.374  0.3526  0.1044 -0.7092
  262MOL    H9547597   4.882   4.302   2.626 -1.6792  1.7661 -2.0105
  262MOL    H9647598   4.839   4.133   2.639  3.6335  1.3451  0.8451
  262MOL    H9747599   4.782   4.146   2.392 -0.9023  0.8499  1.2325
  262MOL    H9847600   4.904   4.438   2.388  1.5400 -0.8553 -1.8354
  262MOL    H9947601   4.810   4.329   2.272 -1.2139 -1.4228  0.0181
  262MOL   H10047602   4.731   4.400   2.407  0.4313  0.3431 -0.7531
  262MOL   C10147603   5.000   4.173   2.409  0.3636 -0.4587 -0.8125
  262MOL   C10247604   5.018   4.012   2.435  0.8557 -0.9067 -0.4279
  262MOL   C10347605   4.961   3.929   2.314  0.1574  0.0395 -0.4906
  262MOL   H10447606   5.028   4.204   2.308  0.3254  0.1097 -0.6505
  262MOL   H10547607   5.059   4.230   2.481 -1.5730 -0.8630  1.1083
  262MOL   H10647608   4.952   3.992   2.519 -0.6989 -0.6690 -1.5740
  262MOL   H10747609   4.859   3.957   2.286  0.5098  1.8062 -0.0766
  262MOL   H10847610   5.027   3.948   2.230 -0.7934  0.8675 -1.0667
  262MOL   H10947611   4.949   3.822   2.332 -4.0772  0.8343  2.3093
  262MOL   C11047612   5.164   3.971   2.468  0.7208  0.5782  0.5093
  262MOL   C11147613   5.224   4.030   2.594 -0.2311 -0.1994 -0.3939
  262MOL   C11247614   5.143   4.002   2.725 -0.0036  0.0878  0.8726
  262MOL   H11347615   5.159   3.863   2.482 -1.8690  0.7111  0.7348
  262MOL   H11447616   5.226   3.994   2.382 -1.9704  0.6098 -1.4711
  262MOL   H11547617   5.216   4.138   2.580 -1.1236 -0.3223 -0.9146
  262MOL   H11647618   5.048   4.056   2.724 -0.4498 -0.7010  0.2149
  262MOL   H11747619   5.110   3.899   2.734 -2.6854  0.8787  0.5369
  262MOL   H11847620   5.197   4.027   2.816 -1.6878  0.3160  1.8133
  262MOL   C11947621   5.365   3.982   2.612 -0.7364 -0.0037  0.6794
  262MOL   C12047622   5.465   4.041   2.516  0.1773  0.0755 -0.3887
  262MOL   C12147623   5.466   4.189   2.509  0.3448  0.1394 -0.2301
  262MOL   H12247624   5.393   4.019   2.710  0.2673  0.9883  0.0224
  262MOL   H12347625   5.369   3.873   2.618  0.1354 -0.0738 -0.9840
  262MOL   H12447626   5.437   4.004   2.417  1.3274 -1.5598 -0.1283
  262MOL   H12547627   5.375   4.210   2.452  1.0584  1.8838 -0.7687
  262MOL   H12647628   5.470   4.247   2.601  1.7143  1.0885 -0.8683
  262MOL   H12747629   5.538   4.235   2.442  0.1725 -1.6503 -1.6803
  262MOL   C12847630   5.609   3.997   2.558 -0.1152 -0.6603  0.6117
  262MOL   C12947631   5.720   4.008   2.447  0.1445 -0.3093 -0.1722
  262MOL   C13047632   5.862   3.977   2.518 -0.1894 -0.4153 -0.7558
  262MOL   H13147633   5.641   4.029   2.657 -2.2199 -2.4722  1.9208
  262MOL   H13247634   5.594   3.890   2.574  2.3554 -0.6897  3.2283
  262MOL   H13347635   5.727   4.113   2.417 -1.8491 -0.4801 -1.2847
  262MOL   H13447636   5.891   3.873   2.527  3.1197  0.4561 -0.6832
  262MOL   H13547637   5.945   4.010   2.455  0.9921 -0.2631  0.8432
  262MOL   H13647638   5.872   4.022   2.618  0.5956  0.6097 -1.2851
  262MOL   C13747639   5.687   3.924   2.320  0.2414  0.4725 -0.5291
  262MOL   C13847640   5.778   3.942   2.201 -0.0424 -0.3340  0.3948
  262MOL   C13947641   5.869   3.813   2.179 -0.6448 -0.5235  0.5611
  262MOL   H14047642   5.692   3.819   2.348  0.2164  0.8443  0.9406
  262MOL   H14147643   5.583   3.930   2.288  0.1460 -2.8885 -0.9629
  262MOL   H14247644   5.846   4.028   2.201 -1.3038  0.6920 -0.8600
  262MOL   H14347645   5.813   3.720   2.169 -0.8214 -0.2161 -1.8132
  262MOL   H14447646   5.919   3.819   2.082  1.2589 -0.1157  1.5320
  262MOL   H14547647   5.936   3.797   2.263  1.1705  1.0949 -0.5264
  262MOL   C14647648   5.707   3.969   2.070 -0.3225  0.0445 -0.0412
  262MOL   C14747649   5.642   4.110   2.069  0.2294 -1.0176  0.0170
  262MOL   C14847650   5.751   4.223   2.049  0.0588 -0.3717  0.4240
  262MOL   H14947651   5.777   3.965   1.987 -0.6209 -0.0452 -0.2905
  262MOL   H15047652   5.634   3.888   2.063 -1.1444  0.7545  0.1474
  262MOL   H15147653   5.599   4.124   2.169 -1.7767 -1.8040 -0.7187
  262MOL   H15247654   5.710   4.324   2.049  1.4855  0.2130  0.8240
  262MOL   H15347655   5.840   4.223   2.110  0.9003  2.0041 -0.7269
  262MOL   H15447656   5.786   4.221   1.946  2.0197  1.9951  1.0156
  262MOL   C15547657   5.533   4.136   1.970  0.0841 -1.0049 -0.2643
  262MOL   C15647658   5.394   4.170   2.028 -0.4557 -0.1991  0.1255
  262MOL   C15747659   5.329   4.039   2.078 -0.0715  0.3044 -0.5536
  262MOL   H15847660   5.559   4.220   1.906  1.8533 -1.4182 -0.1127
  262MOL   H15947661   5.527   4.060   1.892 -1.0121 -0.8255 -0.3603
  262MOL   H16047662   5.324   4.197   1.949 -0.6905  1.8343  1.0157
  262MOL   H16147663   5.221   4.052   2.090 -0.2071 -0.7629 -0.5370
  262MOL   H16247664   5.343   3.953   2.013 -1.4773  0.9065 -1.6863
  262MOL   H16347665   5.377   4.011   2.172  1.8789 -1.0027 -1.9080
  262MOL   C16447666   5.375   4.276   2.133  0.2209  0.2132  0.1164
  262MOL   C16547667   5.236   4.347   2.142  0.5549 -0.1176 -0.2466
  262MOL   C16647668   5.217   4.418   2.278 -0.2850 -0.0025  0.2875
  262MOL   H16747669   5.397   4.232   2.231  0.1358 -1.1874 -0.4733
  262MOL   H16847670   5.451   4.353   2.125 -0.3132  0.6278 -0.9234
  262MOL   H16947671   5.160   4.268   2.141  2.6364 -2.1552 -0.7934
  262MOL   H17047672   5.216   4.342   2.356  2.1084  0.4381  0.7743
  262MOL   H17147673   5.292   4.497   2.287 -2.6065  1.9321  4.5119
  262MOL   H17247674   5.125   4.476   2.271  0.4549  1.0421 -1.0944
  262MOL   C17347675   5.208   4.438   2.020  0.6754  0.3411  0.2118
  262MOL   C17447676   5.058   4.475   2.018 -0.2593  0.2657  0.3051
  262MOL   C17547677   5.022   4.522   1.873 -0.2144  0.3321 -0.0582
  262MOL   H17647678   5.261   4.533   2.008  0.3373  0.3024 -1.8044
  262MOL   H17747679   5.237   4.391   1.926  2.7235  0.2303  0.8780
  262MOL   H17847680   5.045   4.561   2.084  1.9227  1.1783 -0.3845
  262MOL   H17947681   4.918   4.552   1.860 -0.7981 -0.4277  2.5297
  262MOL   H18047682   5.082   4.611   1.852  2.3765 -1.0015  1.4150
  262MOL   H18147683   5.028   4.443   1.798  0.4675 -1.8958  2.2975
  262MOL   H18247684   4.984   4.410   2.064  0.4223  0.1106  1.2170
  263MOL     C147685   3.785   3.930   7.377  0.0815 -0.0003 -0.4080
  263MOL     C247686   3.853   3.959   7.509  0.0597 -0.0886  0.3490
  263MOL     C347687   3.750   3.959   7.619  0.5162  0.3532  0.4878
  263MOL     H447688   3.765   3.823   7.372 -0.6424  0.0567  0.9258
  263MOL     H547689   3.852   3.950   7.294  2.0035 -0.7723  0.9116
  263MOL     H647690   3.903   4.055   7.501 -0.3071 -0.0567 -1.8598
  263MOL     H747691   3.690   4.049   7.608 -1.2111 -0.6933  1.0832
  263MOL     H847692   3.677   3.878   7.628 -0.6821  1.5523  1.7275
  263MOL     H947693   3.796   3.964   0.021  0.7706 -2.0911  0.5282
  263MOL    H1047694   3.703   4.001   7.364 -0.8795 -0.7425  1.3492
  263MOL    C1147695   3.971   3.861   7.534 -0.3839  0.0686 -0.3653
  263MOL    C1247696   4.110   3.883   7.471  0.8632  0.3481  0.5815
  263MOL    C1347697   4.185   4.012   7.512  0.4468  0.1488  0.0570
  263MOL    H1447698   3.985   3.851   7.641  0.6242  0.6048 -0.4361
  263MOL    H1547699   3.928   3.766   7.505  0.4513 -0.1123 -1.0204
  263MOL    H1647700   4.082   3.895   7.367 -0.6820 -1.3018  0.7888
  263MOL    H1747701   4.116   4.083   7.557 -1.6428 -0.6199 -1.7981
  263MOL    H1847702   4.256   3.986   7.590  1.9276  0.5520 -1.1328
  263MOL    H1947703   4.234   4.067   7.431 -1.3134  0.1457 -1.0463
  263MOL    C2047704   4.204   3.758   7.496  0.3424  0.0178  0.3921
  263MOL    C2147705   4.340   3.740   7.417 -0.0328 -0.3533  0.1621
  263MOL    C2247706   4.441   3.673   7.505  0.6121 -0.6973 -0.3851
  263MOL    H2347707   4.227   3.748   7.602  2.5289 -1.0241 -0.1484
  263MOL    H2447708   4.151   3.667   7.466  1.6299 -0.3729 -0.7377
  263MOL    H2547709   4.390   3.836   7.406 -0.7674 -0.0281 -0.3920
  263MOL    H2647710   4.391   3.585   7.545  2.1786 -2.2336 -1.6887
  263MOL    H2747711   4.525   3.638   7.446  1.2367 -2.4562  1.4746
  263MOL    H2847712   4.482   3.733   7.587 -1.2542 -0.1296  0.1708
  263MOL    C2947713   4.335   3.674   7.280 -0.0929 -0.3939  0.0804
  263MOL    C3047714   4.466   3.711   7.205  0.2210 -0.0792 -0.3759
  263MOL    C3147715   4.530   3.583   7.148 -0.2008  0.0062 -0.2623
  263MOL    H3247716   4.307   3.569   7.285 -1.6771 -0.0079 -0.5675
  263MOL    H3347717   4.249   3.709   7.223  0.3995 -0.4861 -0.7366
  263MOL    H3447718   4.537   3.751   7.277 -1.3381 -0.6277  1.5153
  263MOL    H3547719   4.556   3.512   7.227  1.1654 -0.3774 -1.0480
  263MOL    H3647720   4.483   3.525   7.069 -0.4482  0.4683 -0.4573
  263MOL    H3747721   4.627   3.609   7.106  0.0258 -0.3643  0.0240
  263MOL    C3847722   4.453   3.815   7.096 -0.6459 -0.2706 -0.1385
  263MOL    C3947723   4.411   3.964   7.126  1.2040  0.1213  0.5884
  263MOL    C4047724   4.526   4.049   7.188 -0.7595  0.1947  0.5461
  263MOL    H4147725   4.548   3.830   7.044 -0.7089  2.0180  0.3402
  263MOL    H4247726   4.394   3.783   7.010  1.2162 -1.7974 -0.8631
  263MOL    H4347727   4.336   3.964   7.205  0.1694 -0.0441 -0.3852
  263MOL    H4447728   4.605   4.054   7.113 -0.1950  1.1263  1.1895
  263MOL    H4547729   4.502   4.153   7.214 -1.9626  0.1944 -0.4889
  263MOL    H4647730   4.577   4.001   7.271  1.4233  0.5348 -0.5646
  263MOL    C4747731   4.364   4.034   7.001 -0.8730  0.0613 -0.0547
  263MOL    C4847732   4.223   3.991   6.939 -0.6814 -0.3325  0.4331
  263MOL    C4947733   4.123   3.963   7.046 -0.2809  0.1536  0.5394
  263MOL    H5047734   4.354   4.137   7.036 -1.6072 -0.3468  0.9701
  263MOL    H5147735   4.442   4.045   6.925 -0.8970  1.1194  0.0633
  263MOL    H5247736   4.237   3.902   6.877 -0.7366  0.3156 -0.5221
  263MOL    H5347737   4.127   4.027   7.134  0.6490  0.4953  0.2570
  263MOL    H5447738   4.019   3.962   7.012  0.0240  0.9584 -0.4668
  263MOL    H5547739   4.145   3.866   7.089 -0.4347  0.6330  1.7233
  263MOL    C5647740   4.171   4.097   6.844 -1.0715  0.3305 -0.0747
  263MOL    C5747741   4.262   4.149   6.731 -0.1310  0.1450 -0.6258
  263MOL    C5847742   4.273   4.043   6.618 -0.2887 -0.2424 -0.1698
  263MOL    H5947743   4.077   4.071   6.796  0.6839 -2.9213 -1.8765
  263MOL    H6047744   4.159   4.173   6.922  1.2090  0.4495  0.2004
  263MOL    H6147745   4.361   4.158   6.776  0.9083 -0.7492 -2.6556
  263MOL    H6247746   4.176   4.007   6.584 -0.0757 -0.5193 -0.4863
  263MOL    H6347747   4.336   4.080   6.538 -1.3348  1.5426 -0.2138
  263MOL    H6447748   4.316   3.948   6.650  0.2793  1.2608  3.8566
  263MOL    C6547749   4.206   4.280   6.674 -0.2973  1.0115 -0.1063
  263MOL    C6647750   4.300   4.360   6.583  0.4854  0.1369  0.4004
  263MOL    C6747751   4.201   4.440   6.497  0.1498 -0.2685 -0.2128
  263MOL    H6847752   4.111   4.258   6.627 -1.2201  1.6788  1.3996
  263MOL    H6947753   4.174   4.332   6.765  0.9171  0.8637  0.4227
  263MOL    H7047754   4.347   4.292   6.513  0.0851  0.0043  0.2614
  263MOL    H7147755   4.258   4.485   6.416  0.0262  1.8406  0.8420
  263MOL    H7247756   4.124   4.379   6.450 -0.6456 -0.0765  0.8311
  263MOL    H7347757   4.154   4.517   6.559 -1.1980  1.1974 -2.9791
  263MOL    C7447758   4.401   4.447   6.658 -0.4794 -0.1525 -0.2614
  263MOL    C7547759   4.528   4.392   6.718 -1.0820  0.1128  0.1531
  263MOL    C7647760   4.608   4.306   6.625  0.2129 -0.0475  0.8045
  263MOL    H7747761   4.434   4.518   6.581  1.8129 -0.8393  0.0565
  263MOL    H7847762   4.351   4.502   6.738  0.7128  0.3652  0.1324
  263MOL    H7947763   4.505   4.332   6.806  1.0798  0.6269  1.1036
  263MOL    H8047764   4.636   4.366   6.539  0.3956 -1.1558  0.0778
  263MOL    H8147765   4.698   4.276   6.677  0.0187 -2.3091 -0.1077
  263MOL    H8247766   4.556   4.216   6.592 -2.5225  2.5440 -2.4397
  263MOL    C8347767   4.632   4.505   6.761 -0.0281 -0.1800 -0.5465
  263MOL    C8447768   4.572   4.586   6.885 -0.2431 -0.4722  0.1101
  263MOL    C8547769   4.600   4.516   7.018 -0.8306  0.6522 -0.4129
  263MOL    H8647770   4.725   4.456   6.791 -0.2784  0.0967  0.7252
  263MOL    H8747771   4.662   4.570   6.679  0.3329 -0.8912 -0.9906
  263MOL    H8847772   4.465   4.604   6.879 -0.2076 -0.9379 -2.4131
  263MOL    H8947773   4.702   4.487   7.042 -0.8382  1.1796  0.2748
  263MOL    H9047774   4.563   4.574   7.102 -0.2134 -1.0020  1.0227
  263MOL    H9147775   4.552   4.419   7.034 -0.2874  0.1400 -1.8166
  263MOL    C9247776   4.642   4.728   6.894 -0.0865 -0.2232 -0.1500
  263MOL    C9347777   4.604   4.828   6.782 -0.1745  0.2017  0.4366
  263MOL    C9447778   4.453   4.867   6.761  0.5701  0.1034 -0.2080
  263MOL    H9547779   4.619   4.769   6.992 -0.9962 -0.4808 -0.2484
  263MOL    H9647780   4.749   4.716   6.907 -0.4328 -0.3634  3.0569
  263MOL    H9747781   4.627   4.780   6.687  0.0856 -0.1425  0.6730
  263MOL    H9847782   4.405   4.937   6.830  0.7900  1.3395 -1.2948
  263MOL    H9947783   4.441   4.917   6.665  3.0398  1.5420  0.1710
  263MOL   H10047784   4.388   4.781   6.747  0.2386  0.3244 -0.0375
  263MOL   C10147785   4.692   4.952   6.797 -0.2632  0.4530 -0.1474
  263MOL   C10247786   4.841   4.926   6.770 -0.2166  0.1657  0.2291
  263MOL   C10347787   4.877   4.936   6.618  0.4330 -0.3497  0.6352
  263MOL   H10447788   4.661   5.042   6.744  2.5904  0.6650 -1.5739
  263MOL   H10547789   4.678   4.968   6.904  1.9399 -0.1693  0.2760
  263MOL   H10647790   4.861   4.819   6.781 -0.6038 -0.1111 -1.6137
  263MOL   H10747791   4.892   5.042   6.596  0.7254  0.2026  3.2693
  263MOL   H10847792   4.977   4.897   6.599  0.7094  0.1390  1.0630
  263MOL   H10947793   4.811   4.875   6.558 -0.8976  0.1341  1.5865
  263MOL   C11047794   4.933   5.006   6.862 -0.1072  0.3368  0.6987
  263MOL   C11147795   5.070   4.936   6.877  0.7526 -0.2926 -0.4830
  263MOL   C11247796   5.174   5.046   6.902 -0.0854 -0.5087 -0.2402
  263MOL   H11347797   4.946   5.108   6.826 -1.9840  0.0303 -0.9197
  263MOL   H11447798   4.894   5.013   6.963  0.5067  1.7090  0.8556
  263MOL   H11547799   5.109   4.879   6.793 -0.9093 -0.2773 -1.2893
  263MOL   H11647800   5.180   5.107   6.812 -0.8533 -0.7957 -0.4857
  263MOL   H11747801   5.146   5.106   6.989  1.6102  0.2186 -0.1756
  263MOL   H11847802   5.274   5.004   6.914  0.5578  0.7215 -1.1407
  263MOL   C11947803   5.073   4.842   7.001  0.2667  0.1153  0.3556
  263MOL   C12047804   5.178   4.733   6.993  0.0580 -0.2697  0.1336
  263MOL   C12147805   5.211   4.685   7.136  0.2962  0.2659 -0.1128
  263MOL   H12247806   5.065   4.896   7.095  0.6954 -0.1288  0.5305
  263MOL   H12347807   4.981   4.783   7.004  0.5778 -0.3532  0.7495
  263MOL   H12447808   5.270   4.778   6.955  0.1128 -0.2496  0.2928
  263MOL   H12547809   5.127   4.636   7.185 -1.1739  2.0636 -0.8039
  263MOL   H12647810   5.293   4.614   7.132  1.1314  1.2290 -0.3428
  263MOL   H12747811   5.236   4.769   7.201  1.1434 -0.6439  0.7584
  263MOL   C12847812   5.150   4.618   6.890  0.2565 -0.3064 -0.4000
  263MOL   C12947813   5.285   4.550   6.849  0.2828  0.6584  0.6224
  263MOL   C13047814   5.259   4.410   6.783 -0.2814  0.2837 -0.5348
  263MOL   H13147815   5.089   4.541   6.936  0.1267  0.4649  0.7402
  263MOL   H13247816   5.100   4.663   6.804  2.2561  1.3770 -0.7422
  263MOL   H13347817   5.344   4.528   6.938  1.9305  0.5622 -0.4771
  263MOL   H13447818   5.350   4.356   6.755  0.3949  0.4606  1.2909
  263MOL   H13547819   5.196   4.352   6.849 -1.3210 -0.0825 -1.8216
  263MOL   H13647820   5.213   4.412   6.684 -0.0742 -0.5345 -0.6543
  263MOL   C13747821   5.370   4.633   6.748  0.2777 -0.5447 -0.6766
  263MOL   C13847822   5.508   4.571   6.714  0.1877 -0.3578 -0.0964
  263MOL   C13947823   5.567   4.643   6.594 -0.1509 -0.2155  0.3437
  263MOL   H14047824   5.308   4.655   6.661 -1.1529  2.8882  1.1322
  263MOL   H14147825   5.385   4.731   6.793  1.3965 -0.2143 -1.7446
  263MOL   H14247826   5.495   4.468   6.682  1.2882 -0.6075  0.2539
  263MOL   H14347827   5.503   4.625   6.508 -0.2416  0.4985  0.2583
  263MOL   H14447828   5.570   4.751   6.609 -2.4925 -0.2470  1.3229
  263MOL   H14547829   5.665   4.600   6.574  0.0434 -0.9123  2.6274
  263MOL   C14647830   5.616   4.571   6.830  0.6269 -0.7734 -0.2913
  263MOL   C14747831   5.735   4.480   6.817 -0.0690 -0.2139 -0.1133
  263MOL   C14847832   5.848   4.556   6.751  0.2908 -0.4455  0.2615
  263MOL   H14947833   5.637   4.676   6.850  0.5811 -0.4749 -1.7606
  263MOL   H15047834   5.567   4.543   6.924  2.4838 -1.9795  0.3450
  263MOL   H15147835   5.716   4.404   6.741  0.0047 -0.5379  0.1961
  263MOL   H15247836   5.940   4.496   6.750  0.9015  0.4801  0.3658
  263MOL   H15347837   5.843   4.608   6.656  0.0738 -2.3999 -0.8252
  263MOL   H15447838   5.870   4.640   6.817  0.9358  0.3410 -0.9414
  263MOL   C15547839   5.771   4.416   6.950 -0.0291  0.1450 -0.2036
  263MOL   C15647840   5.680   4.302   6.984  0.1240 -0.1786  0.9039
  263MOL   C15747841   5.710   4.173   6.901  0.2449 -0.0618  0.2760
  263MOL   H15847842   5.874   4.392   6.974 -0.1421  1.1974  1.4289
  263MOL   H15947843   5.753   4.498   7.021 -0.7033  0.7116 -1.0119
  263MOL   H16047844   5.581   4.326   6.947  0.8161 -1.1348 -1.6966
  263MOL   H16147845   5.808   4.133   6.929  0.9577  0.7434 -1.0268
  263MOL   H16247846   5.633   4.096   6.908  0.1303  0.0113 -0.1511
  263MOL   H16347847   5.732   4.204   6.799  0.8774 -0.6638  0.2244
  263MOL   C16447848   5.676   4.274   7.132  0.7404  0.2343 -0.5357
  263MOL   C16547849   5.597   4.372   7.227 -0.7379  0.2560 -0.0236
  263MOL   C16647850   5.443   4.363   7.200  0.8379 -0.4477  0.2701
  263MOL   H16747851   5.641   4.174   7.156  0.1972  0.7799  0.9615
  263MOL   H16847852   5.779   4.278   7.168  0.6026  1.7936 -0.3040
  263MOL   H16947853   5.625   4.477   7.219  2.1296 -0.3768  1.1387
  263MOL   H17047854   5.393   4.440   7.258  1.1170 -1.2202  1.5587
  263MOL   H17147855   5.418   4.398   7.100  0.5394  2.0489  1.1796
  263MOL   H17247856   5.388   4.271   7.222  1.5269 -0.6778  1.0759
  263MOL   C17347857   5.620   4.331   7.371 -0.5125 -0.4803  0.3541
  263MOL   C17447858   5.597   4.438   7.477 -0.1870 -0.1711 -0.6652
  263MOL   C17547859   5.579   4.388   7.622  0.6664  0.0053  0.0285
  263MOL   H17647860   5.558   4.245   7.396  3.3081 -3.2876  0.5908
  263MOL   H17747861   5.724   4.303   7.389 -0.6851 -0.7387  0.9703
  263MOL   H17847862   5.499   4.479   7.452 -0.8115 -0.7851  0.6864
  263MOL   H17947863   5.493   4.320   7.624  1.8740 -1.5200  0.4937
  263MOL   H18047864   5.666   4.334   7.658  1.2459  1.2317  0.5008
  263MOL   H18147865   5.553   4.475   7.683  2.9438  1.5401 -1.1085
  263MOL   H18247866   5.675   4.514   7.480  0.2295 -0.6123 -0.1497
  264MOL     C147867   2.882   3.853   1.111 -0.2949 -0.3623  0.0851
  264MOL     C247868   2.765   3.949   1.105 -0.3987  0.2836  0.8582
  264MOL     C347869   2.684   3.953   1.232 -0.4339 -0.1141 -0.3584
  264MOL     H447870   2.934   3.849   1.015 -0.7170  0.5290 -0.1833
  264MOL     H547871   2.852   3.752   1.141  0.6040 -0.6926 -0.1096
  264MOL     H647872   2.694   3.914   1.031  0.1947  1.5563 -0.3334
  264MOL     H747873   2.600   4.022   1.221 -0.6270  0.1716  2.5438
  264MOL     H847874   2.644   3.857   1.266 -0.9896  0.5357  0.8502
  264MOL     H947875   2.753   3.991   1.307  2.0579 -4.1693 -0.4526
  264MOL    H1047876   2.964   3.882   1.177 -1.9865  0.8503  1.6891
  264MOL    C1147877   2.821   4.079   1.049  0.6673  0.0027 -0.3289
  264MOL    C1247878   2.722   4.183   1.001  0.5278 -0.3635 -0.3457
  264MOL    C1347879   2.796   4.307   0.955  0.1541  0.8167 -0.1587
  264MOL    H1447880   2.891   4.125   1.118 -1.5030  1.3517  1.0185
  264MOL    H1547881   2.874   4.064   0.955  1.6622 -0.9671  0.3699
  264MOL    H1647882   2.648   4.215   1.075 -0.9468 -1.3120 -1.3844
  264MOL    H1747883   2.858   4.270   0.873 -1.6749 -1.3073 -0.6514
  264MOL    H1847884   2.726   4.384   0.924  1.4391  2.3123  0.6027
  264MOL    H1947885   2.864   4.351   1.028  1.2398  0.0359 -0.6909
  264MOL    C2047886   2.623   4.133   0.890  0.3944 -0.3633  0.1238
  264MOL    C2147887   2.493   4.222   0.849 -0.0101 -1.1779  0.5383
  264MOL    C2247888   2.531   4.311   0.737 -0.3219 -0.2688 -0.2712
  264MOL    H2347889   2.687   4.110   0.805  0.9780 -0.7287  0.6570
  264MOL    H2447890   2.584   4.035   0.917 -1.2131  0.9051  2.5312
  264MOL    H2547891   2.484   4.284   0.938  0.3404 -0.1501 -0.1378
  264MOL    H2647892   2.447   4.359   0.686 -0.4746 -2.7278 -2.3984
  264MOL    H2747893   2.594   4.395   0.768  1.2100 -1.0424 -1.2605
  264MOL    H2847894   2.593   4.257   0.666 -0.9508 -1.2105 -0.1146
  264MOL    C2947895   2.367   4.139   0.814 -0.0663  0.7003  0.3539
  264MOL    C3047896   2.274   4.122   0.937 -0.1552  0.2719 -0.6614
  264MOL    C3147897   2.340   4.055   1.054 -0.2172  0.9169  0.3619
  264MOL    H3247898   2.305   4.185   0.737 -2.7630 -2.1267  0.7527
  264MOL    H3347899   2.397   4.045   0.767  1.1368  0.8621  0.7831
  264MOL    H3447900   2.186   4.063   0.911 -0.0502 -0.0428 -0.3230
  264MOL    H3547901   2.432   4.095   1.097  0.3601 -0.6338  0.6098
  264MOL    H3647902   2.275   4.063   1.141 -0.2887 -0.5710  0.4498
  264MOL    H3747903   2.348   3.947   1.049 -0.3211  0.8995  0.5779
  264MOL    C3847904   2.216   4.254   0.993  0.2681 -0.4353  0.1233
  264MOL    C3947905   2.142   4.352   0.890 -0.1306 -0.1078  0.8389
  264MOL    C4047906   2.029   4.276   0.810  0.4947 -0.1224 -0.2722
  264MOL    H4147907   2.137   4.226   1.062  0.5922  0.9777  1.0897
  264MOL    H4247908   2.285   4.311   1.056 -2.8776  2.6604  0.9201
  264MOL    H4347909   2.216   4.376   0.814 -0.2927  0.2962  0.8096
  264MOL    H4447910   2.067   4.183   0.768  2.2615  1.1490 -1.6153
  264MOL    H4547911   1.960   4.249   0.889  2.6217 -1.8136  1.0644
  264MOL    H4647912   1.978   4.341   0.738 -0.2327  0.4532  0.7519
  264MOL    C4747913   2.086   4.475   0.972  0.1297  0.2134 -0.0242
  264MOL    C4847914   1.991   4.579   0.901 -0.3394  0.5939 -0.1972
  264MOL    C4947915   1.931   4.666   1.005 -0.2068  0.2522 -0.1595
  264MOL    H5047916   2.034   4.435   1.060 -1.1230  0.8629 -0.4577
  264MOL    H5147917   2.166   4.538   1.011 -0.3386  0.4384  0.5786
  264MOL    H5247918   1.911   4.518   0.860  0.1207 -1.7528  2.2335
  264MOL    H5347919   2.009   4.732   1.043 -0.1866  0.5329 -0.6838
  264MOL    H5447920   1.846   4.725   0.974 -1.3809 -1.1653  0.3095
  264MOL    H5547921   1.886   4.597   1.077 -0.3341  0.5333  0.0281
  264MOL    C5647922   2.065   4.654   0.790  0.8525  0.2506 -0.5186
  264MOL    C5747923   1.977   4.730   0.693  0.2855 -0.2963 -0.0467
  264MOL    C5847924   2.065   4.815   0.602 -0.0580  0.0741 -0.5781
  264MOL    H5947925   2.135   4.721   0.841  0.0944  0.8346 -0.2432
  264MOL    H6047926   2.137   4.594   0.734 -0.0705 -2.1814  0.8202
  264MOL    H6147927   1.920   4.798   0.756 -0.9792  0.5096 -1.9992
  264MOL    H6247928   2.010   4.874   0.529  0.3801  1.1716 -0.0394
  264MOL    H6347929   2.112   4.886   0.670  0.5562 -0.5864 -0.3124
  264MOL    H6447930   2.144   4.755   0.557 -0.1182  0.2676 -0.9405
  264MOL    C6547931   1.871   4.642   0.622 -0.2913 -0.3806 -0.2046
  264MOL    C6647932   1.776   4.711   0.518  0.0258  0.2132  0.0300
  264MOL    C6747933   1.712   4.605   0.434 -0.1616  0.2250 -0.0114
  264MOL    H6847934   1.925   4.558   0.577  0.6874  0.4524 -0.6173
  264MOL    H6947935   1.799   4.605   0.695  0.9048 -0.9693  0.6896
  264MOL    H7047936   1.835   4.763   0.442 -1.3947 -0.9685 -1.9172
  264MOL    H7147937   1.664   4.541   0.509  0.7624  2.2971  2.4071
  264MOL    H7247938   1.636   4.643   0.366  0.8363  0.3609 -1.0594
  264MOL    H7347939   1.774   4.539   0.372  0.6851 -0.0091  1.0596
  264MOL    C7447940   1.676   4.817   0.573 -1.0096  0.0097 -0.0831
  264MOL    C7547941   1.646   4.946   0.494  0.0481 -0.6253 -0.0050
  264MOL    C7647942   1.577   4.927   0.358 -0.4963 -0.1643 -0.0843
  264MOL    H7747943   1.582   4.765   0.592 -0.4106 -2.0048 -2.4468
  264MOL    H7847944   1.708   4.853   0.671 -0.4919 -2.0229  0.5074
  264MOL    H7947945   1.729   5.016   0.491 -0.1592 -0.3072  1.4546
  264MOL    H8047946   1.550   5.026   0.320  1.0578  0.9167  1.5926
  264MOL    H8147947   1.641   4.881   0.282  1.4599 -0.0676  1.4855
  264MOL    H8247948   1.485   4.869   0.367 -0.1875 -0.5836  0.3868
  264MOL    C8347949   1.544   5.031   0.581 -0.2513  0.2454 -0.0951
  264MOL    C8447950   1.591   5.101   0.713 -0.0752  0.8803 -0.7168
  264MOL    C8547951   1.710   5.202   0.693 -0.5220  0.2015 -0.0413
  264MOL    H8647952   1.501   5.114   0.523  0.3708  1.1902  0.7753
  264MOL    H8747953   1.452   4.976   0.603  0.3735 -0.2544  1.2947
  264MOL    H8847954   1.637   5.025   0.777 -0.9180 -0.9718 -2.2454
  264MOL    H8947955   1.728   5.252   0.789  0.1008 -0.8082  0.3724
  264MOL    H9047956   1.806   5.167   0.656 -1.7038 -3.4661  0.1870
  264MOL    H9147957   1.673   5.267   0.613 -0.3241  1.1162  0.5944
  264MOL    C9247958   1.477   5.163   0.788  0.4384 -0.6932 -0.6395
  264MOL    C9347959   1.401   5.286   0.725 -0.3454  0.5235 -0.1640
  264MOL    C9447960   1.252   5.256   0.734  0.3554  0.6509 -0.0824
  264MOL    H9547961   1.400   5.089   0.808  0.5300 -0.4747  0.5405
  264MOL    H9647962   1.499   5.181   0.894 -0.4740  1.0406 -0.7286
  264MOL    H9747963   1.428   5.288   0.620 -0.8330 -1.1841 -0.3446
  264MOL    H9847964   1.234   5.155   0.697 -1.0187  0.6934  0.4726
  264MOL    H9947965   1.219   5.247   0.838  0.3791 -0.7190 -0.1865
  264MOL   H10047966   1.187   5.324   0.679 -3.4406 -1.7669  1.2690
  264MOL   C10147967   1.446   5.415   0.796  0.0200 -0.3555  0.1030
  264MOL   C10247968   1.440   5.545   0.709  0.1913  0.4714 -1.1242
  264MOL   C10347969   1.331   5.646   0.750  0.2640 -0.0689 -0.1375
  264MOL   H10447970   1.385   5.413   0.886 -0.1171 -0.4418  0.0098
  264MOL   H10547971   1.551   5.410   0.824 -0.5727 -2.2060  2.2031
  264MOL   H10647972   1.423   5.515   0.605 -0.6298 -1.3355 -0.4862
  264MOL   H10747973   1.349   5.677   0.853 -1.2810 -0.4076  0.2423
  264MOL   H10847974   1.329   5.741   0.696  1.5089 -0.2851 -0.5784
  264MOL   H10947975   1.231   5.602   0.748  1.0298 -2.0758  2.6755
  264MOL   C11047976   1.580   5.612   0.717  0.0200 -0.4889 -0.0977
  264MOL   C11147977   1.615   5.656   0.870 -0.6835 -0.4633 -0.4683
  264MOL   C11247978   1.740   5.581   0.917  0.1913  0.3023  0.3151
  264MOL   H11347979   1.654   5.549   0.668  0.4700 -0.4564  0.5358
  264MOL   H11447980   1.581   5.694   0.645  0.4369  0.4768  0.9890
  264MOL   H11547981   1.542   5.640   0.948  0.4188 -0.1606  0.6460
  264MOL   H11647982   1.818   5.616   0.849  0.7328  0.5426  1.0525
  264MOL   H11747983   1.768   5.625   1.013  0.1233 -1.0515  0.9677
  264MOL   H11847984   1.735   5.473   0.918 -0.7360  0.2992 -1.7603
  264MOL   C11947985   1.629   5.810   0.874  0.6011 -0.9895 -0.5271
  264MOL   C12047986   1.654   5.872   1.013  0.9913 -0.0148  0.2801
  264MOL   C12147987   1.674   6.023   1.008 -0.1439  0.3765  0.0572
  264MOL   H12247988   1.709   5.832   0.804 -0.5934  0.2668 -1.5191
  264MOL   H12347989   1.540   5.857   0.832  2.2826 -1.1582 -4.5623
  264MOL   H12447990   1.743   5.830   1.060 -0.4782 -2.0146  1.3688
  264MOL   H12547991   1.748   6.046   0.931  1.4960 -1.5369  1.0062
  264MOL   H12647992   1.581   6.072   0.980 -1.1375 -1.4546  0.0508
  264MOL   H12747993   1.696   6.079   1.099 -1.4472  0.1318  0.5311
  264MOL   C12847994   1.528   5.849   1.114 -0.4091 -0.4309  0.3543
  264MOL   C12947995   1.544   5.895   1.260  0.4010 -0.6218 -0.1552
  264MOL   C13047996   1.404   5.884   1.318 -0.8592  0.0341  0.2438
  264MOL   H13147997   1.442   5.902   1.074  1.3335  2.4754  0.2622
  264MOL   H13247998   1.499   5.745   1.122  0.7490 -0.9309 -1.6356
  264MOL   H13347999   1.570   6.001   1.259  2.3228 -1.0833 -2.5570
  264MOL   H13448000   1.383   5.901   1.423 -1.2585  2.9850 -0.2544
  264MOL   H13548001   1.337   5.953   1.265  0.5187  1.5707  0.4777
  264MOL   H13648002   1.362   5.785   1.301  1.1728 -0.5724 -1.4873
  264MOL   C13748003   1.651   5.816   1.338  0.2052 -0.0939  0.5443
  264MOL   C13848004   1.668   5.864   1.484 -0.1301  0.6043  0.1416
  264MOL   C13948005   1.759   5.766   1.559  0.1804 -0.1390 -0.1679
  264MOL   H14048006   1.610   5.716   1.348  0.0861  0.1579  2.9416
  264MOL   H14148007   1.745   5.824   1.282 -0.2947  0.9218 -0.1729
  264MOL   H14248008   1.573   5.855   1.536  0.2202  1.4486  0.9405
  264MOL   H14348009   1.865   5.780   1.536 -0.1255 -2.1297 -3.0778
  264MOL   H14448010   1.748   5.778   1.667  2.8758  1.7045 -0.0427
  264MOL   H14548011   1.731   5.666   1.528  1.3351 -0.4175 -0.3355
  264MOL   C14648012   1.732   6.007   1.497 -0.4786  0.4059  0.3196
  264MOL   C14748013   1.699   6.100   1.613 -0.7226 -0.3932 -0.0791
  264MOL   C14848014   1.789   6.225   1.598 -0.2718 -0.3095  0.3503
  264MOL   H14948015   1.840   5.997   1.488 -0.4281  0.9597  0.3056
  264MOL   H15048016   1.709   6.061   1.405  1.1521  0.9699  0.2277
  264MOL   H15148017   1.720   6.047   1.706 -1.1658 -0.2582  0.0960
  264MOL   H15248018   1.893   6.205   1.575 -0.8494  0.1344 -2.9491
  264MOL   H15348019   1.759   6.272   1.504 -4.0169 -1.1109  1.0552
  264MOL   H15448020   1.756   6.288   1.680  0.4416  0.2974  0.1722
  264MOL   C15548021   1.550   6.143   1.620 -0.0521  0.5376  0.3696
  264MOL   C15648022   1.498   6.135   1.764  0.4394  0.2911  0.2239
  264MOL   C15748023   1.564   6.239   1.862  0.2737  0.7284  0.4210
  264MOL   H15848024   1.513   6.230   1.565  4.2554 -0.2638 -4.1931
  264MOL   H15948025   1.498   6.058   1.574 -1.7225  1.4448  0.5569
  264MOL   H16048026   1.519   6.033   1.795 -2.9561 -0.6300 -0.2766
  264MOL   H16148027   1.510   6.262   1.953  1.3296  1.6859  0.8174
  264MOL   H16248028   1.657   6.196   1.898 -0.3258 -1.4169 -0.5033
  264MOL   H16348029   1.582   6.339   1.822 -1.4607  0.4923 -1.0257
  264MOL   C16448030   1.346   6.167   1.768 -1.2083 -0.4682  0.8448
  264MOL   C16548031   1.262   6.081   1.671  0.3481 -0.8020 -0.5798
  264MOL   C16648032   1.249   5.930   1.711 -0.3552  0.5019 -0.3359
  264MOL   H16748033   1.309   6.159   1.870  2.3974  0.7347  2.3032
  264MOL   H16848034   1.326   6.271   1.740  3.0316 -0.7332 -3.8071
  264MOL   H16948035   1.303   6.089   1.570 -1.7736 -2.4479 -1.6252
  264MOL   H17048036   1.349   5.887   1.721 -0.3485  0.2691 -1.3724
  264MOL   H17148037   1.206   5.924   1.811 -1.4596 -2.9078 -0.9656
  264MOL   H17248038   1.184   5.864   1.654  0.5048 -1.7319  1.2092
  264MOL   C17348039   1.125   6.140   1.649  0.9834  0.5995 -0.0225
  264MOL   C17448040   1.051   6.089   1.527 -0.2116 -0.4642 -0.2271
  264MOL   C17548041   0.899   6.100   1.540 -0.4026 -1.0603  0.4950
  264MOL   H17648042   1.055   6.146   1.733  1.3115 -1.6823  0.4533
  264MOL   H17748043   1.137   6.245   1.626  0.6074  1.6181  4.0738
  264MOL   H17848044   1.057   5.986   1.494 -0.6601  0.1449 -2.2925
  264MOL   H17948045   0.859   6.049   1.627  1.3096 -0.9583  1.3722
  264MOL   H18048046   0.863   6.199   1.569  1.4373 -0.4621  0.7947
  264MOL   H18148047   0.827   6.080   1.461 -0.9521 -1.0445  0.9912
  264MOL   H18248048   1.085   6.144   1.439 -3.7315 -0.9488 -1.9499
  265MOL     C148049   7.002   3.376   2.868 -0.1965  0.1128  0.6645
  265MOL     C248050   7.119   3.468   2.892 -0.0491 -0.1582 -0.1018
  265MOL     C348051   7.105   3.536   3.028 -0.1447  0.6597 -0.3386
  265MOL     H448052   7.012   3.287   2.930  0.9751 -0.5590 -0.4930
  265MOL     H548053   7.005   3.344   2.764 -3.0227  0.2054  0.4936
  265MOL     H648054   7.116   3.548   2.817 -1.7307 -1.2070 -1.2108
  265MOL     H748055   7.162   3.626   3.006 -0.9150  1.1318 -0.4146
  265MOL     H848056   7.002   3.570   3.043 -0.1614  0.0271  1.0256
  265MOL     H948057   7.153   3.470   3.100 -2.7966 -0.9169  0.0494
  265MOL    H1048058   6.905   3.424   2.882 -0.0821  0.9560 -1.3051
  265MOL    C1148059   7.258   3.392   2.876  0.4383  0.4353 -0.0464
  265MOL    C1248060   7.376   3.493   2.876  0.0160  0.3008 -0.2111
  265MOL    C1348061   7.512   3.427   2.940 -0.0635  0.0294 -0.2536
  265MOL    H1448062   7.268   3.320   2.957 -0.1681  1.0554  0.5778
  265MOL    H1548063   7.271   3.333   2.784  1.8451 -1.4638  1.3186
  265MOL    H1648064   7.346   3.578   2.936 -0.4802 -0.9439  1.3452
  265MOL    H1748065   7.539   3.348   2.870  0.1327  0.6828 -0.9205
  265MOL    H1848066   7.597   3.494   2.943  0.4664 -0.6718  1.2725
  265MOL    H1948067   7.487   3.379   3.035 -1.6863 -0.2046 -0.7869
  265MOL    C2048068   7.403   3.547   2.732 -0.1880  0.3579  0.7839
  265MOL    C2148069   7.508   3.654   2.720 -0.7723 -0.5411  0.3799
  265MOL    C2248070   7.625   3.629   2.623  0.2406 -0.1518  0.8344
  265MOL    H2348071   7.415   3.457   2.671 -3.0386  0.7713 -0.5129
  265MOL    H2448072   7.312   3.599   2.701  0.9724  2.4252  0.7874
  265MOL    H2548073   7.554   3.674   2.816 -1.9593 -0.2064  0.8825
  265MOL    H2648074   7.593   3.638   2.519  0.9550 -1.0951  0.5348
  265MOL    H2748075   7.695   3.709   2.645 -0.9601  0.7108  1.5992
  265MOL    H2848076   7.673   3.533   2.641 -1.1323 -0.2081  4.5379
  265MOL    C2948077   7.446   3.794   2.672 -0.3156  0.3316 -0.1883
  265MOL    C3048078   7.530   3.925   2.702 -0.0288  0.2171  0.2190
  265MOL    C3148079   7.467   4.036   2.615  0.5060  0.1902  0.1447
  265MOL    H3248080   7.414   3.785   2.568 -0.4516  0.0179 -0.1216
  265MOL    H3348081   7.349   3.818   2.717 -0.2705  2.9903 -1.4177
  265MOL    H3448082   7.628   3.906   2.658 -0.3389 -1.4597  0.2124
  265MOL    H3548083   7.470   4.017   2.508 -1.8423 -1.4868  0.3311
  265MOL    H3648084   7.362   4.053   2.639  1.3318  1.2387  3.1508
  265MOL    H3748085   7.505   4.135   2.639 -2.1516  1.1131  0.7622
  265MOL    C3848086   7.535   3.958   2.850  0.2753  0.3472 -0.1038
  265MOL    C3948087   7.629   4.087   2.868 -0.1272  0.1230  0.2331
  265MOL    C4048088   7.554   4.208   2.913  0.5265 -0.3796  0.8634
  265MOL    H4148089   7.432   3.979   2.877  0.7493 -0.9779  2.9145
  265MOL    H4248090   7.561   3.873   2.913 -0.6724  0.4822  0.4803
  265MOL    H4348091   7.685   4.123   2.781  0.3025 -0.5764  0.2136
  265MOL    H4448092   7.512   4.196   3.014  0.7050 -0.0283  0.9815
  265MOL    H4548093   7.616   4.296   2.932  0.2684 -0.4202  1.9846
  265MOL    H4648094   7.474   4.234   2.843 -0.0261 -1.3517  1.1256
  265MOL    C4748095   0.032   4.049   2.972 -0.1736  0.1645  0.6149
  265MOL    C4848096   0.145   3.948   2.922 -0.4329 -0.2620  0.2266
  265MOL    C4948097   0.207   3.993   2.790 -0.2637 -0.2626 -0.3358
  265MOL    H5048098   0.087   4.134   3.013 -0.9713  0.3705  1.2788
  265MOL    H5148099   7.684   4.007   3.062 -0.5216  1.2748  0.9748
  265MOL    H5248100   0.092   3.853   2.910 -1.0623  0.1928 -0.6458
  265MOL    H5348101   0.150   3.988   2.697  3.6738  0.4872 -2.9371
  265MOL    H5448102   0.249   4.093   2.802  0.3513 -0.4817 -0.6215
  265MOL    H5548103   0.292   3.927   2.774  0.9671  1.6381 -1.9751
  265MOL    C5648104   0.246   3.910   3.034 -0.2074  0.4548  0.0515
  265MOL    C5748105   0.192   3.862   3.169  0.2936 -0.0899 -0.0439
  265MOL    C5848106   0.105   3.737   3.152  0.0617  0.1419 -0.0434
  265MOL    H5948107   0.295   3.820   2.996 -0.4016 -0.3158  1.6072
  265MOL    H6048108   0.320   3.987   3.053 -0.9855  1.6982 -1.8300
  265MOL    H6148109   0.142   3.943   3.222 -0.9180 -1.4017  0.8431
  265MOL    H6248110   0.013   3.751   3.095  0.8937  2.7823 -0.8011
  265MOL    H6348111   0.160   3.664   3.092  0.4959  1.0471 -0.7501
  265MOL    H6448112   0.077   3.693   3.248 -0.6235  1.0809  0.1842
  265MOL    C6548113   0.308   3.844   3.268  0.0092 -0.0058 -0.9317
  265MOL    C6648114   0.282   3.857   3.422 -0.2997 -0.4392 -0.0684
  265MOL    C6748115   0.418   3.823   3.493 -0.0362  0.1762 -0.4057
  265MOL    H6848116   0.341   3.742   3.244 -2.5045 -0.4944 -2.5226
  265MOL    H6948117   0.392   3.912   3.260  1.1589 -0.9524  2.4964
  265MOL    H7048118   0.211   3.778   3.445 -1.1843  0.7268  1.3616
  265MOL    H7148119   0.482   3.911   3.501 -0.0610  0.0986  0.8746
  265MOL    H7248120   0.400   3.776   3.590 -0.0840 -1.6563 -1.2900
  265MOL    H7348121   0.472   3.746   3.438  0.8022 -0.6391  1.4893
  265MOL    C7448122   0.213   3.996   3.463  0.1551  0.0817  0.4317
  265MOL    C7548123   0.195   4.013   3.617 -0.2222 -0.2588 -0.2848
  265MOL    C7648124   0.181   4.161   3.644  0.5528 -0.5581 -0.3694
  265MOL    H7748125   0.276   4.080   3.432 -0.6411 -0.7506 -3.6814
  265MOL    H7848126   0.116   4.009   3.414  1.3682  4.5451 -1.0521
  265MOL    H7948127   0.285   3.977   3.667 -0.7400 -0.4892  0.4921
  265MOL    H8048128   0.176   4.173   3.752 -0.5395  0.8148 -0.5507
  265MOL    H8148129   0.272   4.214   3.613  2.2900 -2.5842  1.1072
  265MOL    H8248130   0.084   4.200   3.613 -0.0042 -0.9476  0.8668
  265MOL    C8348131   0.073   3.934   3.674  0.4901 -0.3147 -0.3196
  265MOL    C8448132   0.091   3.827   3.789  0.4190 -0.1532 -0.0401
  265MOL    C8548133   0.150   3.900   3.909  0.1047  0.4632 -0.2339
  265MOL    H8648134   7.688   4.001   3.694  0.4834  0.0855 -1.6072
  265MOL    H8748135   0.049   3.880   3.582 -1.9537  1.8154 -0.9757
  265MOL    H8848136   0.171   3.757   3.766 -1.7391 -2.9259  0.5330
  265MOL    H8948137   0.252   3.937   3.897 -0.1422  0.9175 -0.9276
  265MOL    H9048138   0.112   3.999   3.935  1.1524  0.6414  0.6870
  265MOL    H9148139   0.145   3.838   3.999  0.8709 -0.5814 -0.8967
  265MOL    C9248140   7.653   3.750   3.818  0.1714 -0.5696  0.2839
  265MOL    C9348141   7.606   3.651   3.706 -0.1412 -0.7079  0.5094
  265MOL    C9448142   0.006   3.542   3.665 -0.7977  0.2571  0.2596
  265MOL    H9548143   7.652   3.695   3.912 -3.3719 -2.0708 -0.5281
  265MOL    H9648144   7.569   3.815   3.844 -0.1655 -1.2883  1.0208
  265MOL    H9748145   7.578   3.702   3.614 -2.2380  0.0940  1.5606
  265MOL    H9848146   0.105   3.572   3.631 -0.9975  0.3370 -0.2573
  265MOL    H9948147   0.012   3.458   3.734 -0.1857 -0.6308 -0.8705
  265MOL   H10048148   7.675   3.497   3.570 -0.8342  0.1809  0.3063
  265MOL   C10148149   7.470   3.588   3.756 -0.0893  0.1490 -0.5215
  265MOL   C10248150   7.397   3.511   3.643 -0.1012  0.2835  0.1690
  265MOL   C10348151   7.289   3.430   3.719  0.1743  0.3646  0.4242
  265MOL   H10448152   7.480   3.524   3.843 -0.1203  1.7006  0.6276
  265MOL   H10548153   7.394   3.656   3.794 -0.1530 -0.7111  0.9288
  265MOL   H10648154   7.461   3.432   3.604  1.4516  0.7286  1.7644
  265MOL   H10748155   7.228   3.374   3.648 -0.4653  1.2289  0.2921
  265MOL   H10848156   7.334   3.359   3.788 -0.1516 -0.1380  0.1253
  265MOL   H10948157   7.225   3.498   3.774 -0.6705 -0.4666  0.4865
  265MOL   C11048158   7.333   3.605   3.534  0.5209  0.3677  0.6357
  265MOL   C11148159   7.406   3.611   3.399  0.1851 -0.4021  0.1178
  265MOL   C11248160   7.414   3.467   3.334 -0.3129 -0.0309 -0.5879
  265MOL   H11348161   7.229   3.576   3.522 -0.2107  3.1205 -0.0708
  265MOL   H11448162   7.332   3.709   3.566 -1.9876 -0.0703  2.1204
  265MOL   H11548163   7.511   3.634   3.418 -0.4108  1.7796  0.9065
  265MOL   H11648164   7.311   3.437   3.311 -0.7875  1.1364 -0.0479
  265MOL   H11748165   7.471   3.462   3.242 -0.5414  1.4003 -0.8236
  265MOL   H11848166   7.465   3.393   3.396 -0.1536  2.6496  2.6373
  265MOL   C11948167   7.353   3.711   3.293  0.1572  0.0498 -0.1632
  265MOL   C12048168   7.356   3.872   3.320 -0.3768  0.1623 -0.4962
  265MOL   C12148169   7.500   3.921   3.357  0.2524 -0.0480 -0.3420
  265MOL   H12248170   7.410   3.691   3.203  0.1907  2.2763 -0.6519
  265MOL   H12348171   7.247   3.686   3.281  0.0836 -0.2181  0.9326
  265MOL   H12448172   7.293   3.888   3.408 -0.4893 -2.6014 -0.0165
  265MOL   H12548173   7.536   3.856   3.436 -0.6465 -0.8266 -0.5670
  265MOL   H12648174   7.574   3.911   3.277  2.1444  0.9574  1.2362
  265MOL   H12748175   7.509   4.026   3.384  0.0475 -0.0848 -0.1298
  265MOL   C12848176   7.314   3.954   3.196  0.3700 -0.6806  0.3737
  265MOL   C12948177   7.168   3.947   3.144  0.4617 -0.0901 -0.1398
  265MOL   C13048178   7.080   4.059   3.212 -0.6022 -0.0647 -0.2406
  265MOL   H13148179   7.323   4.060   3.219  0.2855 -0.8092  1.0036
  265MOL   H13248180   7.395   3.928   3.128  0.3018  1.1002 -0.4330
  265MOL   H13348181   7.136   3.846   3.173 -0.1493 -0.0527 -0.6752
  265MOL   H13448182   6.975   4.030   3.222 -0.5038  0.5969  3.2192
  265MOL   H13548183   7.107   4.073   3.316 -1.6158 -1.0102  0.1649
  265MOL   H13648184   7.100   4.147   3.152 -2.3452 -0.4132 -1.3898
  265MOL   C13748185   7.168   3.955   2.993  0.2197 -0.0055 -0.6079
  265MOL   C13848186   7.035   3.978   2.911 -0.6202  0.1077 -0.7559
  265MOL   C13948187   7.073   4.006   2.769 -0.4566 -0.1279 -0.3714
  265MOL   H14048188   7.234   4.034   2.960  0.4178  0.1030  0.0384
  265MOL   H14148189   7.227   3.874   2.951  0.8106  0.8085 -1.3532
  265MOL   H14248190   6.992   4.066   2.958 -0.7379 -0.1049 -0.4685
  265MOL   H14348191   6.991   4.054   2.717  0.3788  0.2279 -1.3760
  265MOL   H14448192   7.163   4.066   2.756  0.5007 -1.0585  1.6513
  265MOL   H14548193   7.098   3.921   2.706 -1.4986 -0.3715 -0.4675
  265MOL   C14648194   6.942   3.856   2.919  0.8169  0.0348 -0.2031
  265MOL   C14748195   6.808   3.863   2.834  0.6536 -0.1143 -0.2322
  265MOL   C14848196   6.751   3.721   2.813  0.3642  0.3611 -0.4094
  265MOL   H14948197   6.994   3.770   2.877  0.1414 -0.1541 -0.6497
  265MOL   H15048198   6.912   3.835   3.022  0.1813  0.1391 -0.3654
  265MOL   H15148199   6.826   3.907   2.736  0.4487 -0.9701 -0.6578
  265MOL   H15248200   6.651   3.718   2.770 -0.8711  0.9788  2.3315
  265MOL   H15348201   6.818   3.684   2.735  1.0095 -1.1992  0.8406
  265MOL   H15448202   6.751   3.660   2.903 -0.6131  0.7155 -0.1599
  265MOL   C15548203   6.715   3.957   2.917 -0.0049  0.5607  0.0498
  265MOL   C15648204   6.589   4.009   2.837 -0.5104  0.2953 -0.0966
  265MOL   C15748205   6.481   4.071   2.936 -0.7528  0.0090  0.3749
  265MOL   H15848206   6.684   3.903   3.007  2.2070 -1.5608 -0.3997
  265MOL   H15948207   6.774   4.044   2.947  1.5398 -0.5560  0.3596
  265MOL   H16048208   6.537   3.923   2.793  0.4111 -0.0107 -0.5960
  265MOL   H16148209   6.379   4.067   2.898 -1.6336 -0.7833  2.6950
  265MOL   H16248210   6.476   4.024   3.035  0.6109 -0.6906  0.1196
  265MOL   H16348211   6.500   4.176   2.958 -2.1842  0.7528 -1.8378
  265MOL   C16448212   6.631   4.109   2.727 -0.2682 -0.3897  0.6517
  265MOL   C16548213   6.521   4.170   2.639  0.4558  0.1814  0.0746
  265MOL   C16648214   6.582   4.288   2.555  0.5376  0.0232 -0.2767
  265MOL   H16748215   6.682   4.188   2.783 -0.8380  0.3583  0.1363
  265MOL   H16848216   6.702   4.069   2.654  1.7476  1.4178  1.5375
  265MOL   H16948217   6.452   4.205   2.716 -0.5091  0.5909 -0.9540
  265MOL   H17048218   6.668   4.263   2.493 -0.3072 -1.0918 -1.0113
  265MOL   H17148219   6.502   4.321   2.489 -1.6959 -1.7608  1.4713
  265MOL   H17248220   6.598   4.372   2.623 -0.8047 -1.0674  1.4417
  265MOL   C17348221   6.462   4.060   2.545  0.5438  0.2541 -0.0017
  265MOL   C17448222   6.319   4.094   2.505 -0.0322 -0.3208 -0.0458
  265MOL   C17548223   6.216   4.035   2.606 -0.4376 -0.3962  0.4006
  265MOL   H17648224   6.524   4.039   2.458 -0.2870 -0.9191 -0.3212
  265MOL   H17748225   6.471   3.961   2.588  2.7413  0.9130  1.1800
  265MOL   H17848226   6.303   4.057   2.403  1.4159 -1.2285  0.0350
  265MOL   H17948227   6.241   4.055   2.710 -0.8173  1.8574  0.0735
  265MOL   H18048228   6.119   4.079   2.586 -0.5032 -0.7334 -0.0337
  265MOL   H18148229   6.205   3.928   2.589  2.1849 -0.3493 -1.9206
  265MOL   H18248230   6.313   4.201   2.488 -1.0419 -0.3001  0.4252
  266MOL     C148231   0.737   5.837   0.828  0.0804  0.4461  0.0761
  266MOL     C248232   0.775   5.869   0.683  0.1537 -0.2183 -0.2056
  266MOL     C348233   0.833   5.746   0.615  0.1071  0.0623  0.0692
  266MOL     H448234   0.633   5.804   0.839 -0.7085  2.4948 -0.8775
  266MOL     H548235   0.747   5.921   0.897  2.5607 -0.6110  1.0483
  266MOL     H648236   0.853   5.945   0.686 -1.3966  1.4277 -0.2803
  266MOL     H748237   0.770   5.680   0.555  3.4045 -2.8817 -0.2970
  266MOL     H848238   0.907   5.791   0.549  1.7730 -0.6055  1.4441
  266MOL     H948239   0.896   5.683   0.677  1.3091 -1.3354 -2.4884
  266MOL    H1048240   0.799   5.752   0.857  1.0624  1.2628  0.3729
  266MOL    C1148241   0.666   5.939   0.594  0.5090  0.0200 -0.1568
  266MOL    C1248242   0.627   6.080   0.640 -0.2024  0.1093  0.3310
  266MOL    C1348243   0.702   6.185   0.560 -0.9342  0.4279 -0.0342
  266MOL    H1448244   0.703   5.950   0.492 -0.2126 -0.4202 -0.4665
  266MOL    H1548245   0.580   5.873   0.585  0.5807 -0.2413  0.9698
  266MOL    H1648246   0.667   6.101   0.739  0.2354  0.9428 -0.0154
  266MOL    H1748247   0.638   6.237   0.489  0.0673  0.0287 -1.2456
  266MOL    H1848248   0.746   6.257   0.629  2.4731  0.4669 -2.1398
  266MOL    H1948249   0.788   6.148   0.505  0.1994  0.3988  1.7239
  266MOL    C2048250   0.478   6.104   0.642 -0.4769 -0.2261 -0.3117
  266MOL    C2148251   0.402   6.056   0.764  0.4367 -0.0121  0.0480
  266MOL    C2248252   0.434   6.135   0.889  0.0174  0.1294 -0.1686
  266MOL    H2348253   0.470   6.212   0.636  3.2678  0.2351  1.5763
  266MOL    H2448254   0.440   6.074   0.544  0.7033  0.1782 -0.8920
  266MOL    H2548255   0.429   5.951   0.778  0.8473  0.0112 -0.5639
  266MOL    H2648256   0.413   6.242   0.880 -0.9868  0.0376  0.9796
  266MOL    H2748257   0.387   6.086   0.974 -2.0479  2.0458 -0.1400
  266MOL    H2848258   0.542   6.133   0.903  0.2092 -1.0699 -1.6654
  266MOL    C2948259   0.249   6.064   0.728 -0.4784  0.5518  0.1849
  266MOL    C3048260   0.195   5.941   0.645  0.7311 -0.2006 -0.5792
  266MOL    C3148261   0.209   5.809   0.726  0.3248 -0.6864  0.4295
  266MOL    H3248262   0.195   6.072   0.822 -1.5861  0.3237 -0.4274
  266MOL    H3348263   0.234   6.157   0.674 -0.3728  2.0070  2.5982
  266MOL    H3448264   0.249   5.911   0.555 -1.6465  1.0137 -2.4698
  266MOL    H3548265   0.144   5.731   0.686  1.0392 -1.2373  0.3403
  266MOL    H3648266   0.314   5.781   0.731  1.2016  2.5402  1.6515
  266MOL    H3748267   0.180   5.814   0.831  0.2592  0.2587  0.3721
  266MOL    C3848268   0.043   5.973   0.610 -0.3666  0.1278 -0.6091
  266MOL    C3948269   0.027   6.082   0.506  0.2083  0.2529  0.5240
  266MOL    C4048270   0.061   6.024   0.367  0.5654  0.6319 -0.2306
  266MOL    H4148271   0.001   5.885   0.563 -0.5480 -0.3830  0.5087
  266MOL    H4248272   7.688   5.997   0.702 -0.9642  2.9123 -1.6329
  266MOL    H4348273   0.098   6.161   0.528 -0.4536  1.0006 -0.0086
  266MOL    H4448274   0.168   6.000   0.368  0.2928 -0.6321 -0.3979
  266MOL    H4548275   0.007   5.940   0.324  1.8057  0.1614 -0.8986
  266MOL    H4648276   0.064   6.100   0.290  1.0579  0.2679 -0.5729
  266MOL    C4748277   7.564   6.116   0.507 -0.4990 -0.2441 -0.6418
  266MOL    C4848278   7.518   6.212   0.629 -0.4557  0.4812 -0.4061
  266MOL    C4948279   7.565   6.358   0.607  0.4391  0.5191  0.8726
  266MOL    H5048280   7.530   6.166   0.416 -0.1760  1.9635  0.4149
  266MOL    H5148281   7.506   6.024   0.506 -0.0075 -0.5624 -0.2613
  266MOL    H5248282   7.571   6.176   0.717  0.6869 -0.6018 -1.5214
  266MOL    H5348283   7.491   6.406   0.543  0.6004 -1.6996 -1.0769
  266MOL    H5448284   7.571   6.417   0.698  0.2228 -2.3224  2.7870
  266MOL    H5548285   7.664   6.363   0.561 -0.6518  0.1826 -1.5970
  266MOL    C5648286   7.365   6.202   0.650  0.3221 -0.0527  0.4141
  266MOL    C5748287   7.314   6.242   0.791 -0.9333 -0.2626  0.0458
  266MOL    C5848288   7.170   6.279   0.788 -0.0863 -0.0542 -0.0217
  266MOL    H5948289   7.313   6.271   0.584  0.2330  0.4780  1.0336
  266MOL    H6048290   7.331   6.101   0.629  0.6217  0.1118 -0.9056
  266MOL    H6148291   7.370   6.332   0.818 -0.3370 -1.5708  3.4243
  266MOL    H6248292   7.152   6.363   0.721  1.6606  0.1030 -0.3181
  266MOL    H6348293   7.114   6.195   0.746 -0.9113  0.2949  0.3793
  266MOL    H6448294   7.131   6.306   0.886 -1.6007 -1.9998 -0.0674
  266MOL    C6548295   7.346   6.141   0.899  0.1483  0.4963  0.8386
  266MOL    C6648296   7.352   6.194   1.044 -0.3512  0.0140 -0.8693
  266MOL    C6748297   7.225   6.172   1.128  0.2164 -0.4962 -0.8534
  266MOL    H6848298   7.284   6.052   0.893 -0.5979  1.0713 -0.1492
  266MOL    H6948299   7.446   6.105   0.872 -0.6317  0.6402 -2.4641
  266MOL    H7048300   7.357   6.303   1.046  1.3280 -0.0518  2.4755
  266MOL    H7148301   7.133   6.210   1.085 -0.1106 -0.7627 -0.3894
  266MOL    H7248302   7.211   6.069   1.163  0.9545 -0.1376  0.5245
  266MOL    H7348303   7.238   6.231   1.218 -0.0733 -3.8040  1.4659
  266MOL    C7448304   7.484   6.150   1.125 -0.2602  0.2521 -0.7148
  266MOL    C7548305   7.619   6.188   1.060  0.2134 -0.0872 -0.3155
  266MOL    C7648306   7.629   6.344   1.044  0.2569 -0.0363  0.2179
  266MOL    H7748307   7.486   6.193   1.226  3.7039 -3.2840  0.8247
  266MOL    H7848308   7.480   6.044   1.147 -0.4592  0.5348  0.6566
  266MOL    H7948309   7.638   6.146   0.961 -3.2362 -0.5341 -0.8413
  266MOL    H8048310   7.644   6.395   1.139  3.0583  0.3047 -0.3414
  266MOL    H8148311   0.010   6.372   0.974 -1.0474  0.9994 -0.8472
  266MOL    H8248312   7.534   6.378   1.002  1.0902 -0.4185 -2.0407
  266MOL    C8348313   0.042   6.153   1.149  0.2150  0.7322  0.0017
  266MOL    C8448314   0.059   6.005   1.184 -0.3024  0.3558  0.0887
  266MOL    C8548315   0.043   5.901   1.069  0.0082  0.1502 -0.5090
  266MOL    H8648316   0.128   6.182   1.089  1.3225  0.5252  1.4781
  266MOL    H8748317   0.059   6.219   1.234  2.1704 -0.1035  0.2809
  266MOL    H8848318   7.676   5.976   1.252 -0.6191 -1.6024 -1.1053
  266MOL    H8948319   0.128   5.903   1.000 -0.3425  1.6903 -0.9254
  266MOL    H9048320   0.045   5.801   1.113  1.7828  0.4587  0.1517
  266MOL    H9148321   7.651   5.916   1.008 -0.6823 -1.3989  0.1058
  266MOL    C9248322   0.195   5.972   1.257 -1.0857  0.9503 -0.1373
  266MOL    C9348323   0.239   6.043   1.392 -0.4924 -0.7212 -0.1516
  266MOL    C9448324   0.132   6.039   1.508 -0.0381 -0.0656 -0.5225
  266MOL    H9548325   0.196   5.868   1.289  0.0627  1.5443  1.8304
  266MOL    H9648326   0.284   5.977   1.194 -1.1019 -2.4130 -0.5015
  266MOL    H9748327   0.250   6.149   1.368  1.2346 -1.1776 -1.5209
  266MOL    H9848328   0.142   5.958   1.579 -2.3906  0.9733  1.0370
  266MOL    H9948329   0.129   6.133   1.564  0.0294 -0.5502  0.2955
  266MOL   H10048330   0.036   6.034   1.457 -0.0960 -1.7802 -0.2606
  266MOL   C10148331   0.384   5.995   1.439 -0.3802 -0.1441  0.2914
  266MOL   C10248332   0.428   6.041   1.577  0.7681  0.7086  0.1917
  266MOL   C10348333   0.483   5.922   1.651  0.3075  0.4445 -0.1930
  266MOL   H10448334   0.392   5.886   1.436  0.6991 -0.0452 -0.4420
  266MOL   H10548335   0.457   6.021   1.363  0.1398 -2.2202  0.0368
  266MOL   H10648336   0.339   6.074   1.630  0.3192 -0.2174  0.0307
  266MOL   H10748337   0.571   5.883   1.599  0.7301  0.7736  0.2811
  266MOL   H10848338   0.518   5.955   1.748 -0.0009 -3.4467  1.3163
  266MOL   H10948339   0.405   5.846   1.665  1.5370 -1.3049 -2.4055
  266MOL   C11048340   0.523   6.158   1.583 -0.2648 -0.1447  0.4691
  266MOL   C11148341   0.526   6.245   1.709 -0.1957  0.1552  0.1023
  266MOL   C11248342   0.649   6.228   1.797  0.6989 -0.0210 -0.0559
  266MOL   H11348343   0.626   6.123   1.570 -1.0299 -1.2127 -3.5602
  266MOL   H11448344   0.492   6.222   1.501 -3.1589 -1.9570  0.0935
  266MOL   H11548345   0.440   6.209   1.765  0.3422  1.7595  2.0353
  266MOL   H11648346   0.650   6.295   1.883 -0.8413  2.0556 -1.6184
  266MOL   H11748347   0.653   6.126   1.836 -0.2334 -0.4584 -1.0675
  266MOL   H11848348   0.744   6.244   1.747 -0.1680  0.8953 -1.4249
  266MOL   C11948349   0.487   6.389   1.684 -0.8717 -0.8982  0.3375
  266MOL   C12048350   0.419   6.456   1.799 -0.4209  0.1914 -0.1351
  266MOL   C12148351   0.433   6.608   1.794 -0.6502 -0.6224  0.2659
  266MOL   H12248352   0.584   6.436   1.672 -0.8693 -1.5235 -2.6337
  266MOL   H12348353   0.431   6.398   1.590  0.1871  0.7682 -0.1470
  266MOL   H12448354   0.473   6.416   1.885 -0.2323  1.9847  0.6126
  266MOL   H12548355   0.404   6.654   1.889  0.1291  1.6303 -0.5587
  266MOL   H12648356   0.533   6.638   1.762 -0.2104 -3.1865 -0.8918
  266MOL   H12748357   0.365   6.647   1.718 -0.6156 -0.6911  0.1991
  266MOL   C12848358   0.262   6.419   1.808 -0.1393 -0.3075 -0.4358
  266MOL   C12948359   0.193   6.446   1.942 -0.3977  0.0384 -0.3197
  266MOL   C13048360   0.042   6.466   1.927  0.3875 -0.2492 -0.4761
  266MOL   H13148361   0.201   6.470   1.734  0.7723  0.7479 -0.4782
  266MOL   H13248362   0.240   6.318   1.774  0.0109 -0.5803  0.2668
  266MOL   H13348363   0.234   6.538   1.983 -0.9188 -0.1262  0.5976
  266MOL   H13448364   0.030   6.567   1.888 -1.5744  0.5020  1.9630
  266MOL   H13548365   7.693   6.387   1.869 -0.2649  0.0542 -0.3612
  266MOL   H13648366   7.678   6.488   2.014  0.9376  0.4209 -0.2471
  266MOL   C13748367   0.207   6.337   2.049 -0.1027 -0.2904 -0.4850
  266MOL   C13848368   0.156   6.373   2.195  0.2758  0.0816  0.3295
  266MOL   C13948369   0.053   6.276   2.258  0.2464  0.6887  0.5603
  266MOL   H14048370   0.143   6.255   2.014  0.5740  0.6225 -3.9816
  266MOL   H14148371   0.310   6.302   2.052  0.7937  2.3147 -0.1344
  266MOL   H14248372   0.111   6.472   2.189  1.4666  0.5861 -0.3080
  266MOL   H14348373   7.653   6.320   2.237  0.1800  0.7449  1.0072
  266MOL   H14448374   0.065   6.173   2.222 -0.2025  1.1206 -0.8492
  266MOL   H14548375   0.048   6.256   2.365 -2.4428 -2.1048 -0.0239
  266MOL   C14648376   0.273   6.376   2.289  0.1883 -0.4567 -1.3161
  266MOL   C14748377   0.238   6.456   2.420  0.1967 -0.7838 -0.0285
  266MOL   C14848378   0.269   6.386   2.547 -0.0442 -0.4260  0.3390
  266MOL   H14948379   0.320   6.280   2.309 -1.2723 -0.9153  0.0446
  266MOL   H15048380   0.355   6.437   2.251 -0.6950  1.6227  0.0552
  266MOL   H15148381   0.129   6.457   2.420  0.1886  0.7351  2.1005
  266MOL   H15248382   0.220   6.290   2.532 -1.0274 -0.5418  3.7603
  266MOL   H15348383   0.375   6.365   2.563  0.3934  1.1052 -0.4563
  266MOL   H15448384   0.218   6.432   2.632  0.1135 -0.0221  0.2189
  266MOL   C15548385   0.297   6.596   2.416 -0.6709  0.0324  0.3331
  266MOL   C15648386   0.210   6.705   2.333  0.3570  1.0379  0.9882
  266MOL   C15748387   0.080   6.740   2.401  0.9199  0.1671  0.0034
  266MOL   H15848388   0.300   6.635   2.518  0.6425  3.3667 -0.9384
  266MOL   H15948389   0.398   6.594   2.378 -1.2588 -0.2399 -1.2454
  266MOL   H16048390   0.185   6.662   2.236  0.8085 -2.8448  2.4906
  266MOL   H16148391   0.104   6.785   2.498  1.7442 -2.8210  1.2512
  266MOL   H16248392   0.022   6.803   2.334 -0.5283  0.3276  1.3615
  266MOL   H16348393   0.018   6.652   2.418 -0.5066  1.6022  2.5757
  266MOL   C16448394   0.298   6.833   2.306 -0.2593 -0.2217 -0.4224
  266MOL   C16548395   0.252   6.934   2.205 -0.0277 -0.0420  0.1484
  266MOL   C16648396   0.295   7.077   2.241 -0.0123  0.4915  0.1470
  266MOL   H16748397   0.307   6.882   2.403  1.4658 -1.0632 -0.1357
  266MOL   H16848398   0.402   6.816   2.280 -0.6351 -1.3576 -1.2276
  266MOL   H16948399   0.144   6.939   2.212 -0.0143  3.5848 -1.2010
  266MOL   H17048400   0.255   7.155   2.176  0.0985 -0.8999 -1.6345
  266MOL   H17148401   0.264   7.099   2.343 -0.0954 -0.8329  0.4261
  266MOL   H17248402   0.404   7.074   2.237 -0.0321  0.3651 -0.3994
  266MOL   C17348403   0.281   6.886   2.057  0.3444  0.5437  0.0932
  266MOL   C17448404   0.220   6.975   1.948  0.5549 -0.5983 -0.5364
  266MOL   C17548405   0.246   6.919   1.810  0.0988  0.4214 -0.2454
  266MOL   H17648406   0.385   6.865   2.035  0.3021 -0.3432  0.7010
  266MOL   H17748407   0.226   6.792   2.047  1.2980 -0.0744  0.6156
  266MOL   H17848408   0.261   7.075   1.951  2.7168 -1.4466 -0.9144
  266MOL   H17948409   0.179   6.981   1.752  0.8225  0.8150 -0.6695
  266MOL   H18048410   0.348   6.931   1.771  1.7774 -1.1286  3.4306
  266MOL   H18148411   0.203   6.820   1.794 -0.6276  0.4708  1.3744
  266MOL   H18248412   0.112   6.984   1.960  0.7014  0.7115 -0.1182
  267MOL     C148413   5.550   6.241   6.585  0.0620  0.2064  0.3131
  267MOL     C248414   5.473   6.138   6.490  0.1737  0.2377  0.8820
  267MOL     C348415   5.323   6.181   6.500  0.4883 -0.1787  0.2789
  267MOL     H448416   5.546   6.347   6.560 -0.4746 -0.7140 -3.7081
  267MOL     H548417   5.658   6.230   6.578  0.0102  0.3147 -0.6726
  267MOL     H648418   5.483   6.034   6.522 -0.4805 -0.7373 -1.9842
  267MOL     H748419   5.282   6.190   6.601 -1.7454  0.0776 -0.6361
  267MOL     H848420   5.315   6.275   6.446 -0.1708  0.3719  1.3329
  267MOL     H948421   5.267   6.112   6.437  0.7448  0.7351 -0.9591
  267MOL    H1048422   5.531   6.230   6.692 -0.1449 -0.5786  0.1976
  267MOL    C1148423   5.514   6.149   6.342 -0.2752 -0.1036  0.0133
  267MOL    C1248424   5.645   6.075   6.294  0.3813  0.7039  0.0123
  267MOL    C1348425   5.683   5.958   6.378  0.2345  0.1938 -0.1580
  267MOL    H1448426   5.432   6.109   6.282  1.0757 -0.8620 -1.3572
  267MOL    H1548427   5.525   6.254   6.313 -2.6391  0.2069  0.1589
  267MOL    H1648428   5.716   6.158   6.296 -0.7704  1.7034  1.4905
  267MOL    H1748429   5.687   5.981   6.485  0.7718 -0.6779  0.0125
  267MOL    H1848430   5.613   5.875   6.366 -0.7362  0.9364  0.3440
  267MOL    H1948431   5.785   5.930   6.352  0.2044 -0.4998  0.4404
  267MOL    C2048432   5.637   6.029   6.146 -0.3194 -0.4739 -0.3428
  267MOL    C2148433   5.774   5.990   6.085 -0.2123  0.4795  0.1158
  267MOL    C2248434   5.741   5.923   5.949  0.5569  1.1300  1.0599
  267MOL    H2348435   5.561   5.951   6.139  1.0090 -2.1026  2.3773
  267MOL    H2448436   5.593   6.117   6.100  0.5088  0.8118  1.2833
  267MOL    H2548437   5.825   5.911   6.140 -0.1106  0.7933  0.4718
  267MOL    H2648438   5.825   5.921   5.879 -2.1549  1.6347 -2.3564
  267MOL    H2748439   5.700   5.823   5.964  1.6421  0.6081  0.6243
  267MOL    H2848440   5.668   5.983   5.895  1.1935  0.6487 -0.3624
  267MOL    C2948441   5.865   6.112   6.061 -0.3636  0.2686  0.0027
  267MOL    C3048442   6.016   6.083   6.023 -0.0302  0.1843  0.1524
  267MOL    C3148443   6.062   6.168   5.910 -0.3915 -0.1000 -0.0073
  267MOL    H3248444   5.821   6.171   5.980 -0.2383  0.6185  0.1890
  267MOL    H3348445   5.860   6.185   6.142  4.3142 -0.6050  1.1953
  267MOL    H3448446   6.021   5.980   5.989  0.4557 -0.4428  2.0742
  267MOL    H3548447   6.067   6.276   5.924  2.2931 -0.2610  0.5140
  267MOL    H3648448   6.158   6.128   5.877 -0.3063  0.3251 -0.2772
  267MOL    H3748449   6.001   6.141   5.824  0.6181 -1.2141 -0.3907
  267MOL    C3848450   6.109   6.105   6.145  0.0234 -0.5117 -0.4076
  267MOL    C3948451   6.083   6.028   6.277 -0.1777 -1.0167  0.3713
  267MOL    C4048452   6.118   5.881   6.244  0.5570 -0.1026  0.4692
  267MOL    H4148453   6.213   6.087   6.116  0.8346  0.7442  1.5897
  267MOL    H4248454   6.117   6.210   6.173 -1.4225 -0.6966  0.7508
  267MOL    H4348455   5.979   6.024   6.308 -0.0434  2.7485  1.4521
  267MOL    H4448456   6.221   5.863   6.215  0.4059 -0.3112  0.0725
  267MOL    H4548457   6.087   5.820   6.329 -1.0405  1.4209  1.0210
  267MOL    H4648458   6.054   5.849   6.162  0.3876  2.3007 -0.3823
  267MOL    C4748459   6.178   6.088   6.395 -0.5410 -0.0952  0.0750
  267MOL    C4848460   6.115   6.202   6.480 -0.9368  0.0401 -0.1698
  267MOL    C4948461   6.020   6.150   6.590 -0.1415  0.9507  0.2651
  267MOL    H5048462   6.216   6.007   6.457 -1.2677  0.2891  1.0369
  267MOL    H5148463   6.268   6.122   6.343 -1.3396  1.4665 -0.3243
  267MOL    H5248464   6.063   6.272   6.415  1.2789  1.0605 -0.9047
  267MOL    H5348465   5.947   6.091   6.534 -0.5479  2.0398 -0.3735
  267MOL    H5448466   6.059   6.089   6.671  0.4371  0.0046 -0.7207
  267MOL    H5548467   5.964   6.230   6.638 -0.1190  1.1718 -0.0746
  267MOL    C5648468   6.222   6.292   6.539  0.1850 -0.6671 -0.2799
  267MOL    C5748469   6.311   6.380   6.455 -0.4850  0.3167  0.2991
  267MOL    C5848470   6.324   6.520   6.505 -0.4959  0.2639  0.1140
  267MOL    H5948471   6.175   6.353   6.616 -0.1688  0.3901 -1.3190
  267MOL    H6048472   6.286   6.227   6.598 -2.2926 -1.6267  1.4761
  267MOL    H6148473   6.256   6.379   6.361 -1.4568  2.5603  0.7950
  267MOL    H6248474   6.229   6.568   6.525  0.0562  1.3881  0.0892
  267MOL    H6348475   6.383   6.539   6.595  0.2720 -0.2632 -0.2644
  267MOL    H6448476   6.378   6.577   6.429 -2.6865 -0.0097 -1.7058
  267MOL    C6548477   6.457   6.329   6.427  0.6642  0.1312 -0.6531
  267MOL    C6648478   6.542   6.393   6.321  0.0337  0.1282  0.1295
  267MOL    C6748479   6.642   6.484   6.380  0.1031  0.2916 -0.9386
  267MOL    H6848480   6.505   6.336   6.524 -2.1144 -1.7953  0.9485
  267MOL    H6948481   6.444   6.223   6.407 -0.0984 -0.0141  0.5352
  267MOL    H7048482   6.489   6.448   6.243  0.5059  1.3307  0.6453
  267MOL    H7148483   6.734   6.437   6.414  0.3586  0.5810 -1.2191
  267MOL    H7248484   6.681   6.542   6.296 -0.1562  1.5587 -0.1894
  267MOL    H7348485   6.608   6.564   6.445  0.3317 -0.8113  0.5673
  267MOL    C7448486   6.620   6.290   6.247  0.1897  0.4326 -0.2155
  267MOL    C7548487   6.548   6.190   6.150 -0.2906  0.2740  0.2749
  267MOL    C7648488   6.512   6.262   6.012 -0.6535  0.1136 -0.1359
  267MOL    H7748489   6.681   6.346   6.177  1.3893  0.5699  0.9252
  267MOL    H7848490   6.699   6.239   6.303 -0.4011  0.3852  0.5862
  267MOL    H7948491   6.462   6.144   6.200 -0.6966 -0.0785 -0.7269
  267MOL    H8048492   6.602   6.310   5.973  0.3830 -0.5012  1.4701
  267MOL    H8148493   6.475   6.193   5.936 -3.5053  1.4120  0.0119
  267MOL    H8248494   6.438   6.341   6.024  0.2802  1.3789 -2.5297
  267MOL    C8348495   6.644   6.075   6.107  0.0100  0.7754  0.2727
  267MOL    C8448496   6.580   5.938   6.076  0.2976 -0.4225 -0.5674
  267MOL    C8548497   6.677   5.852   5.990 -0.0590 -0.1889  0.3664
  267MOL    H8648498   6.719   6.111   6.036  1.4130  1.9754  2.3114
  267MOL    H8748499   6.705   6.048   6.194  1.4641  2.6877 -0.1263
  267MOL    H8848500   6.491   5.962   6.018  0.5210 -0.3512 -0.8878
  267MOL    H8948501   6.769   5.828   6.044 -0.3060 -1.2521  0.3167
  267MOL    H9048502   6.640   5.756   5.953 -1.2529  0.8932 -1.2985
  267MOL    H9148503   6.711   5.914   5.907  1.8068  0.2508  1.4065
  267MOL    C9248504   6.528   5.864   6.197  0.3649 -0.2452 -0.2255
  267MOL    C9348505   6.628   5.817   6.304 -0.1962  0.5817 -0.4969
  267MOL    C9448506   6.593   5.879   6.435  0.2850  0.1221  0.2580
  267MOL    H9548507   6.438   5.913   6.235  1.7802  2.8704 -0.6918
  267MOL    H9648508   6.496   5.769   6.154  0.3148 -0.0166 -0.6960
  267MOL    H9748509   6.730   5.849   6.281  0.9911 -1.3207  1.8608
  267MOL    H9848510   6.514   5.816   6.478 -0.8983  0.4008 -1.4666
  267MOL    H9948511   6.679   5.892   6.500 -0.4155  0.0998  1.2054
  267MOL   H10048512   6.556   5.981   6.427  0.2486  0.2462  1.8424
  267MOL   C10148513   6.653   5.667   6.318 -0.7175  0.5098  0.9822
  267MOL   C10248514   6.777   5.621   6.406  0.4781 -0.0297  0.4436
  267MOL   C10348515   6.766   5.472   6.434 -0.0741 -0.2414  0.1555
  267MOL   H10448516   6.557   5.627   6.351 -0.6757  1.2844  2.0753
  267MOL   H10548517   6.667   5.632   6.216  2.5117  0.5909  1.3434
  267MOL   H10648518   6.773   5.671   6.502 -0.9147  1.4843 -0.3695
  267MOL   H10748519   6.837   5.432   6.506 -0.0917 -1.2509 -0.3805
  267MOL   H10848520   6.666   5.443   6.466  0.0674 -1.6153 -0.6014
  267MOL   H10948521   6.800   5.424   6.343  0.9556 -2.9276  1.9070
  267MOL   C11048522   6.915   5.655   6.346 -0.2815  0.6246  0.0372
  267MOL   C11148523   7.036   5.564   6.392 -0.1713  0.5143  0.2635
  267MOL   C11248524   7.151   5.591   6.301 -0.2610 -0.0760 -0.4786
  267MOL   H11348525   6.905   5.626   6.241  0.8371  2.9239 -0.7334
  267MOL   H11448526   6.946   5.759   6.355 -1.8193  1.0483  0.4912
  267MOL   H11548527   7.000   5.467   6.358  0.9883  0.7998 -1.8389
  267MOL   H11648528   7.123   5.602   6.196 -2.6831 -0.8811  0.0692
  267MOL   H11748529   7.204   5.685   6.322 -0.4304  0.0637 -0.6826
  267MOL   H11848530   7.214   5.503   6.287  0.7637  0.9826 -2.8182
  267MOL   C11948531   7.077   5.571   6.539  0.4343 -0.1476 -0.1522
  267MOL   C12048532   7.193   5.474   6.581  0.4308  0.1596  0.8240
  267MOL   C12148533   7.230   5.482   6.730 -0.6201 -0.1508  0.0024
  267MOL   H12248534   7.081   5.676   6.569  0.9682 -1.1232  3.4334
  267MOL   H12348535   6.992   5.546   6.602  0.3758  0.9048  0.2015
  267MOL   H12448536   7.276   5.498   6.515 -1.6843  1.3513 -1.4907
  267MOL   H12548537   7.154   5.505   6.805  0.8042  1.2609  1.0442
  267MOL   H12648538   7.286   5.394   6.761 -0.9130 -1.2523 -2.4927
  267MOL   H12748539   7.299   5.566   6.738 -2.4597  1.4328 -0.3892
  267MOL   C12848540   7.165   5.327   6.540 -0.7994 -0.8857 -0.1014
  267MOL   C12948541   7.057   5.250   6.607  0.1563  0.7776  0.0166
  267MOL   C13048542   6.977   5.159   6.505 -0.2171  0.1089  0.1802
  267MOL   H13148543   7.150   5.321   6.433  1.8853  1.5895 -0.7038
  267MOL   H13248544   7.260   5.274   6.547  0.0997  0.7160  0.2134
  267MOL   H13348545   6.988   5.326   6.644  0.0571  0.3129  0.7975
  267MOL   H13448546   7.026   5.090   6.437  0.7995  0.1293  0.8764
  267MOL   H13548547   6.890   5.113   6.552 -0.8542  0.5244 -0.5829
  267MOL   H13648548   6.916   5.226   6.444 -1.6840  1.1888  2.7378
  267MOL   C13748549   7.099   5.156   6.729  0.1725  0.4482 -0.3331
  267MOL   C13848550   6.989   5.066   6.794 -0.0209 -0.0532 -0.3556
  267MOL   C13948551   7.049   4.987   6.918 -0.2776 -0.1976 -0.4668
  267MOL   H14048552   7.177   5.092   6.689 -0.5325  0.3436 -1.5713
  267MOL   H14148553   7.139   5.216   6.811  1.6221 -1.6899  0.5585
  267MOL   H14248554   6.952   4.991   6.725  2.6156 -0.9305 -0.8849
  267MOL   H14348555   6.997   4.892   6.927  0.4714 -0.5987 -0.3625
  267MOL   H14448556   7.151   4.953   6.898  0.0227  0.4853 -0.0966
  267MOL   H14548557   7.042   5.039   7.013 -0.2013  1.4217 -1.3220
  267MOL   C14648558   6.860   5.144   6.838  0.3650  0.3497 -0.4613
  267MOL   C14748559   6.728   5.067   6.868  0.0838  0.2307 -0.0510
  267MOL   C14848560   6.687   4.969   6.757  0.1541 -0.3343 -0.2350
  267MOL   H14948561   6.886   5.205   6.924  1.4955  0.7415 -1.0723
  267MOL   H15048562   6.843   5.216   6.758  4.2586  0.1082 -1.5902
  267MOL   H15148563   6.649   5.142   6.867 -1.5672 -1.3740  3.2476
  267MOL   H15248564   6.589   4.925   6.772 -0.3600  0.2879 -1.7041
  267MOL   H15348565   6.685   5.020   6.661 -0.9759 -1.5501 -0.8652
  267MOL   H15448566   6.765   4.893   6.749 -0.5538 -1.2851  1.6923
  267MOL   C15548567   6.709   5.005   7.009  1.0335  0.0903  1.2661
  267MOL   C15648568   6.636   5.093   7.120 -0.2171 -0.4437 -0.2702
  267MOL   C15748569   6.711   5.222   7.151  0.3267  1.1145  0.2644
  267MOL   H15848570   6.655   4.910   7.011  0.1867  0.4921 -0.9943
  267MOL   H15948571   6.809   4.976   7.042  0.7111 -1.4975  0.8853
  267MOL   H16048572   6.631   5.027   7.207 -1.4187  0.5665  0.4526
  267MOL   H16148573   6.716   5.287   7.063 -0.5691  2.0987  0.9201
  267MOL   H16248574   6.666   5.293   7.221  0.9452  0.6581  1.1328
  267MOL   H16348575   6.808   5.207   7.196  0.0952  0.5310  0.5681
  267MOL   C16448576   6.492   5.119   7.087 -0.7550 -0.3655 -0.8069
  267MOL   C16548577   6.378   5.009   7.091 -0.2769  1.3330 -0.3241
  267MOL   C16648578   6.366   4.976   7.241  0.6229  0.2312 -0.3162
  267MOL   H16748579   6.469   5.199   7.158  2.0510 -1.5743  1.5605
  267MOL   H16848580   6.489   5.177   6.994  1.1034 -1.0408 -1.3175
  267MOL   H16948581   6.402   4.913   7.046 -0.2653 -0.0106  2.4092
  267MOL   H17048582   6.461   4.941   7.281  0.2124  0.0568  0.5253
  267MOL   H17148583   6.320   5.056   7.298  1.0723 -0.7220  1.4333
  267MOL   H17248584   6.296   4.894   7.259 -2.8986  2.9676 -1.1140
  267MOL   C17348585   6.240   5.043   7.026  0.1978  0.0665  0.0661
  267MOL   C17448586   6.174   5.169   7.073  0.1322 -0.6279 -0.1122
  267MOL   C17548587   6.032   5.187   7.018  0.3735 -0.6320 -0.3645
  267MOL   H17648588   6.267   5.051   6.921 -3.0540  2.9571 -0.6304
  267MOL   H17748589   6.170   4.961   7.039  0.9058 -0.2637  1.9869
  267MOL   H17848590   6.232   5.259   7.050 -0.2852 -1.1569 -3.4834
  267MOL   H17948591   5.985   5.263   7.080 -0.8237 -1.7925  0.1658
  267MOL   H18048592   6.032   5.227   6.916 -0.4214 -0.7385 -0.4137
  267MOL   H18148593   5.978   5.093   7.023  0.6055 -0.8424 -1.5671
  267MOL   H18248594   6.159   5.164   7.181  0.8187 -0.9001 -0.0239
  268MOL     C148595   3.079   1.545   7.207  0.2518 -0.4494  0.2834
  268MOL     C248596   3.041   1.637   7.087  0.1773 -0.4607  0.1639
  268MOL     C348597   3.170   1.720   7.045 -0.4131 -0.3888 -0.3126
  268MOL     H448598   3.176   1.499   7.191  0.4056 -0.7512  1.9751
  268MOL     H548599   3.009   1.464   7.226 -0.9796  0.0324 -2.0477
  268MOL     H648600   2.974   1.703   7.143  0.0516  1.4990 -2.2442
  268MOL     H748601   3.145   1.800   6.976  1.5118  1.2674  0.8303
  268MOL     H848602   3.193   1.778   7.134  0.7917 -1.0420 -0.1942
  268MOL     H948603   3.256   1.657   7.024 -0.2210 -0.8520  1.6924
  268MOL    H1048604   3.079   1.598   7.302 -0.0066 -1.3524  0.7878
  268MOL    C1148605   2.985   1.545   6.963  0.4713 -0.5625  0.8865
  268MOL    C1248606   2.849   1.474   7.003 -0.6240  0.1958  0.5682
  268MOL    C1348607   2.738   1.576   7.010 -0.1408 -0.3075  0.1774
  268MOL    H1448608   2.965   1.609   6.877 -2.3792  0.1183  2.0088
  268MOL    H1548609   3.059   1.470   6.934  1.5119  1.3928 -1.6173
  268MOL    H1648610   2.855   1.428   7.102 -0.2090 -0.9804  0.0037
  268MOL    H1748611   2.653   1.540   7.067 -2.0743  2.5736 -0.7875
  268MOL    H1848612   2.761   1.669   7.062 -1.2956  0.6236 -0.9381
  268MOL    H1948613   2.704   1.622   6.917  3.7323  1.0034 -0.6998
  268MOL    C2048614   2.811   1.362   6.899 -0.6829  0.3004  0.5435
  268MOL    C2148615   2.687   1.276   6.946 -0.4638 -0.5819  0.3627
  268MOL    C2248616   2.636   1.211   6.820  0.5550 -0.2904 -0.2403
  268MOL    H2348617   2.795   1.399   6.797  1.3353  1.5470  0.6527
  268MOL    H2448618   2.895   1.295   6.882 -1.0641 -0.2385  0.7800
  268MOL    H2548619   2.619   1.340   7.002  0.7239 -0.1315  1.3266
  268MOL    H2648620   2.641   1.272   6.731  1.3367  1.2142  0.8117
  268MOL    H2748621   2.693   1.123   6.790  1.8378  0.1911  0.7039
  268MOL    H2848622   2.532   1.183   6.836  0.3852 -0.8340 -2.2692
  268MOL    C2948623   2.727   1.170   7.052 -0.2533  0.3247 -0.0577
  268MOL    C3048624   2.596   1.122   7.122  0.8595  0.5850 -0.1806
  268MOL    C3148625   2.570   0.977   7.112  0.4864 -0.6661  0.1684
  268MOL    H3248626   2.794   1.093   7.017 -1.1194 -0.2350 -0.5025
  268MOL    H3348627   2.782   1.224   7.129  1.9021 -1.1560 -0.5262
  268MOL    H3448628   2.510   1.165   7.071  0.8779 -0.6871 -1.2849
  268MOL    H3548629   2.472   0.948   7.149  0.0742 -1.6247 -1.6723
  268MOL    H3648630   2.581   0.939   7.011 -0.5720 -0.6013  0.0266
  268MOL    H3748631   2.642   0.932   7.181 -0.6626 -1.6051  0.7729
  268MOL    C3848632   2.591   1.172   7.271  0.5515  0.3802 -0.2563
  268MOL    C3948633   2.542   1.316   7.296 -0.6658 -0.3324 -0.0342
  268MOL    C4048634   2.390   1.339   7.282  0.4852 -0.1545  0.4144
  268MOL    H4148635   2.524   1.103   7.322  0.8861  0.4032  0.2163
  268MOL    H4248636   2.690   1.150   7.313  1.7486  0.6845 -2.8059
  268MOL    H4348637   2.595   1.371   7.219  0.7320 -0.0182  1.1316
  268MOL    H4448638   2.336   1.292   7.365  0.6578 -0.0672  0.5748
  268MOL    H4548639   2.368   1.445   7.278  0.0089 -0.2988 -1.0642
  268MOL    H4648640   2.353   1.308   7.184  1.5143  1.4338 -0.4833
  268MOL    C4748641   2.579   1.367   7.441 -0.3653  0.1773 -0.1112
  268MOL    C4848642   2.557   1.516   7.477  0.0278  0.1904  0.6155
  268MOL    C4948643   2.555   1.532   7.627  0.1518 -0.9117  1.0455
  268MOL    H5048644   2.525   1.304   7.512  1.6658  1.7872  3.0074
  268MOL    H5148645   2.686   1.354   7.461 -0.3534  0.2149 -0.1507
  268MOL    H5248646   2.461   1.552   7.440 -0.5270 -1.5392  0.3452
  268MOL    H5348647   2.525   1.631   7.661 -0.0392 -1.8015  3.6478
  268MOL    H5448648   2.473   1.468   7.660  0.4438 -1.4447  0.7316
  268MOL    H5548649   2.654   1.500   7.659  0.6758  1.5440  1.9932
  268MOL    C5648650   2.660   1.603   7.411 -0.8128 -0.2816 -0.1087
  268MOL    C5748651   2.646   1.754   7.428 -0.0809 -0.2006 -0.6915
  268MOL    C5848652   2.778   1.816   7.479  0.0584  0.1858  0.0542
  268MOL    H5948653   2.758   1.580   7.452 -0.3640  0.8731 -0.5154
  268MOL    H6048654   2.659   1.583   7.304 -0.0219  0.4833 -0.2623
  268MOL    H6148655   2.565   1.773   7.498 -0.2042 -1.1946 -0.5464
  268MOL    H6248656   2.787   1.783   7.583  1.5905  0.2611 -0.0570
  268MOL    H6348657   2.861   1.785   7.417 -0.3464 -0.4753 -0.1557
  268MOL    H6448658   2.789   1.923   7.497  3.0276  0.0601 -0.8558
  268MOL    C6548659   2.607   1.830   7.294 -1.1274  0.4190 -0.4081
  268MOL    C6648660   2.460   1.806   7.245 -0.2522  0.6290 -0.1188
  268MOL    C6748661   2.355   1.881   7.319 -0.2212  0.2779 -0.6478
  268MOL    H6848662   2.621   1.938   7.286 -1.8156  0.4932 -0.6220
  268MOL    H6948663   2.681   1.789   7.224 -0.0890  1.4523  0.0654
  268MOL    H7048664   2.434   1.701   7.259 -1.1113  0.6949 -1.1588
  268MOL    H7148665   2.364   1.833   7.417 -1.2322  0.1740 -0.5971
  268MOL    H7248666   2.370   1.989   7.328  0.1856  0.4678 -3.2308
  268MOL    H7348667   2.256   1.868   7.276 -0.5583  1.6125 -0.2889
  268MOL    C7448668   2.447   1.839   7.096  0.1890 -0.0417 -0.0476
  268MOL    C7548669   2.331   1.776   7.017  0.4343  0.1348 -0.2017
  268MOL    C7648670   2.324   1.844   6.880  0.4963 -0.1036 -0.2237
  268MOL    H7748671   2.431   1.947   7.092 -2.5345 -0.4563 -1.8593
  268MOL    H7848672   2.545   1.826   7.049  0.5340  1.0880  0.3164
  268MOL    H7948673   2.237   1.783   7.070  0.3430  1.8854 -0.5534
  268MOL    H8048674   2.233   1.797   6.843  0.6448 -1.4619  1.1330
  268MOL    H8148675   2.321   1.953   6.891 -1.2676 -0.1837  0.1736
  268MOL    H8248676   2.396   1.808   6.807  0.5320  0.1567 -0.3195
  268MOL    C8348677   2.355   1.625   6.996 -0.6897  0.6598  0.0543
  268MOL    C8448678   2.264   1.551   6.902 -0.1908  0.4776 -0.0002
  268MOL    C8548679   2.302   1.402   6.901 -0.5783 -0.1932 -0.0808
  268MOL    H8648680   2.458   1.606   6.966 -1.2248 -1.7454 -0.3803
  268MOL    H8748681   2.364   1.581   7.096  0.4924 -2.2829 -1.2690
  268MOL    H8848682   2.279   1.587   6.800 -2.6019  0.2078 -0.4917
  268MOL    H8948683   2.409   1.383   6.902 -0.5272  0.0925  0.0737
  268MOL    H9048684   2.256   1.340   6.977 -0.7173  0.0615  0.0433
  268MOL    H9148685   2.264   1.356   6.810 -2.6804 -1.3816  1.3710
  268MOL    C9248686   2.118   1.573   6.945  0.4416 -0.1828  0.1855
  268MOL    C9348687   2.027   1.510   6.847  0.1751  0.4900 -0.1638
  268MOL    C9448688   1.983   1.366   6.889  0.5489  0.0599 -0.2167
  268MOL    H9548689   2.104   1.539   7.048 -0.9105 -1.0741 -0.2761
  268MOL    H9648690   2.104   1.681   6.958  0.0342 -0.4107  1.7065
  268MOL    H9748691   2.079   1.481   6.755  1.5490  0.9175  0.4745
  268MOL    H9848692   1.913   1.322   6.818  0.2785 -1.7909  1.1615
  268MOL    H9948693   2.062   1.295   6.908 -0.5543 -1.2036 -0.2571
  268MOL   H10048694   1.925   1.368   6.982 -0.0314 -2.5109 -0.4843
  268MOL   C10148695   1.899   1.591   6.830 -0.8572 -0.2422  0.4470
  268MOL   C10248696   1.907   1.701   6.726 -0.0675 -0.4740  0.8601
  268MOL   C10348697   1.878   1.637   6.580 -0.0467  1.0533  0.2276
  268MOL   H10448698   1.813   1.525   6.815 -0.8761  0.5869 -3.6753
  268MOL   H10548699   1.888   1.644   6.925  1.0144 -1.5525  1.4424
  268MOL   H10648700   2.006   1.745   6.736 -0.5334  1.0404 -1.0001
  268MOL   H10748701   1.893   1.708   6.499 -1.8427  0.0702 -1.0133
  268MOL   H10848702   1.946   1.556   6.551 -2.3568 -0.9695  0.3214
  268MOL   H10948703   1.778   1.596   6.570  1.1777 -1.4715 -2.5120
  268MOL   C11048704   1.800   1.807   6.763  0.1134  0.3572 -0.1872
  268MOL   C11148705   1.825   1.935   6.691 -0.0696  0.4535  0.1787
  268MOL   C11248706   1.690   2.007   6.675 -0.2798  0.1446  0.6940
  268MOL   H11348707   1.701   1.766   6.745 -0.1959  0.7735  0.5385
  268MOL   H11448708   1.787   1.825   6.870 -1.4787  0.7139 -0.4279
  268MOL   H11548709   1.851   1.907   6.590  3.4517  0.5363  1.0068
  268MOL   H11648710   1.706   2.104   6.626 -0.0525 -0.0790  0.3197
  268MOL   H11748711   1.639   1.961   6.590 -1.0397  2.1196  0.0343
  268MOL   H11848712   1.629   2.004   6.765  0.1756  1.4272  1.0572
  268MOL   C11948713   1.945   2.021   6.747 -0.1637 -0.4168  0.6786
  268MOL   C12048714   1.989   2.142   6.662 -0.0702  1.0177  0.2438
  268MOL   C12148715   2.042   2.256   6.761 -0.2351 -0.1969 -0.1641
  268MOL   H12248716   1.916   2.053   6.847 -0.1211 -0.9462  0.8600
  268MOL   H12348717   2.035   1.960   6.759  1.3781  1.6073 -0.2612
  268MOL   H12448718   1.896   2.178   6.618 -1.0964 -1.6959  0.1110
  268MOL   H12548719   1.959   2.298   6.818  0.4316  2.2743 -0.9086
  268MOL   H12648720   2.120   2.213   6.825 -0.3129 -0.5288 -0.2948
  268MOL   H12748721   2.092   2.336   6.706  0.5306  0.5268  1.5237
  268MOL   C12848722   2.104   2.099   6.570  0.2099 -0.0393 -0.2890
  268MOL   C12948723   2.145   2.198   6.455 -0.5548  0.5300 -0.3524
  268MOL   C13048724   2.297   2.235   6.459  0.4610 -0.5225 -0.6131
  268MOL   H13148725   2.191   2.072   6.630 -1.2115 -2.8109  0.6183
  268MOL   H13248726   2.073   2.007   6.519  0.0127 -0.2251  0.1697
  268MOL   H13348727   2.080   2.284   6.471  0.5755  1.2390  0.4746
  268MOL   H13448728   2.318   2.317   6.389  1.4749  0.8560  1.2681
  268MOL   H13548729   2.340   2.263   6.555 -1.7916 -0.5713  0.4301
  268MOL   H13648730   2.358   2.154   6.419  0.7318 -0.1445 -0.9815
  268MOL   C13748731   2.117   2.137   6.318 -0.3392 -0.1209 -0.4616
  268MOL   C13848732   1.967   2.118   6.277 -0.0871 -0.2532 -0.1449
  268MOL   C13948733   1.891   2.251   6.254 -0.8355  0.0877 -0.5297
  268MOL   H14048734   2.166   2.195   6.240  1.3820 -1.2359 -0.2489
  268MOL   H14148735   2.159   2.037   6.311  0.8319  0.5444 -4.0027
  268MOL   H14248736   1.909   2.078   6.360  1.3230 -1.4713  0.2742
  268MOL   H14348737   1.932   2.296   6.164 -3.0912 -0.3854 -1.8423
  268MOL   H14448738   1.787   2.237   6.225 -1.1751  3.4206 -1.1477
  268MOL   H14548739   1.890   2.318   6.340  0.8967 -2.0269  1.1723
  268MOL   C14648740   1.945   2.037   6.145 -0.3018  0.4255  0.2792
  268MOL   C14748741   2.011   1.898   6.135  0.2330  0.0823  0.3205
  268MOL   C14848742   1.982   1.812   6.259 -0.6364 -0.1404  0.3525
  268MOL   H14948743   1.839   2.010   6.145 -0.4618  0.9844  1.6066
  268MOL   H15048744   1.972   2.106   6.066  1.0567  0.4768  0.7750
  268MOL   H15148745   2.119   1.914   6.126 -0.2127  2.6086 -0.6882
  268MOL   H15248746   2.041   1.721   6.251  0.2213  0.4446  0.0101
  268MOL   H15348747   2.004   1.863   6.353 -2.1163  0.7270  0.2532
  268MOL   H15448748   1.881   1.776   6.240 -0.1404 -0.5712 -1.5504
  268MOL   C15548749   1.974   1.821   6.007  0.1302  0.1381 -0.2690
  268MOL   C15648750   2.067   1.701   5.967  0.1454 -0.4648 -0.9885
  268MOL   C15748751   1.998   1.603   5.871  0.5491  0.1943  0.0406
  268MOL   H15848752   1.873   1.780   6.012  0.1762  0.1237  0.5671
  268MOL   H15948753   1.966   1.901   5.933 -0.7377  1.1256  0.8777
  268MOL   H16048754   2.087   1.652   6.063 -0.7946  1.8967  0.4607
  268MOL   H16148755   1.914   1.567   5.930  1.4992 -0.6074  0.9256
  268MOL   H16248756   1.953   1.643   5.780 -2.5959 -1.1082  0.9389
  268MOL   H16348757   2.057   1.516   5.841 -2.1913 -0.8577 -2.6034
  268MOL   C16448758   2.200   1.739   5.901 -0.7348 -0.1248 -0.1500
  268MOL   C16548759   2.326   1.694   5.980 -0.3632  0.3117  0.2791
  268MOL   C16648760   2.330   1.542   5.989  0.3680  0.3847 -0.8483
  268MOL   H16748761   2.216   1.680   5.810  1.4771 -0.4940  0.4428
  268MOL   H16848762   2.199   1.847   5.884 -0.4186 -0.0522  0.2730
  268MOL   H16948763   2.311   1.728   6.082  2.2827  1.1847  0.4141
  268MOL   H17048764   2.262   1.487   6.055 -1.6270  1.1449 -2.2294
  268MOL   H17148765   2.321   1.502   5.888 -1.1854 -0.4297 -0.4013
  268MOL   H17248766   2.423   1.512   6.037 -0.7609 -1.8635  0.0246
  268MOL   C17348767   2.458   1.740   5.914 -1.0544 -0.0395  0.0710
  268MOL   C17448768   2.564   1.783   6.011  0.5248 -0.6564  0.1370
  268MOL   C17548769   2.699   1.813   5.936 -0.2263  0.3869 -0.2546
  268MOL   H17648770   2.495   1.658   5.853  0.2678  0.7775 -0.2307
  268MOL   H17748771   2.434   1.816   5.840  1.1249  1.1273  0.5394
  268MOL   H17848772   2.583   1.700   6.080  1.7685  0.1046  0.7343
  268MOL   H17948773   2.778   1.831   6.009  2.2505  3.2133 -3.4208
  268MOL   H18048774   2.744   1.731   5.880  1.4592  0.5338  0.8317
  268MOL   H18148775   2.687   1.900   5.871  1.0100  1.9706  1.6000
  268MOL   H18248776   2.539   1.867   6.077 -1.6977 -1.7757  0.7682
  269MOL     C148777   6.617   2.417   5.759 -0.0650  0.1953  1.2562
  269MOL     C248778   6.674   2.294   5.835 -0.2692 -0.2791  0.3438
  269MOL     C348779   6.765   2.212   5.739  0.3804  0.2364  0.5231
  269MOL     H448780   6.692   2.495   5.757  1.0939 -0.9039  1.3026
  269MOL     H548781   6.523   2.453   5.799 -0.9832  1.9661 -2.2965
  269MOL     H648782   6.589   2.234   5.868 -0.4062 -0.3978 -0.2289
  269MOL     H748783   6.836   2.270   5.681  1.6690 -1.8919 -0.0660
  269MOL     H848784   6.828   2.139   5.789  1.0059  0.4079 -0.0097
  269MOL     H948785   6.706   2.158   5.665 -1.9611  1.5810  1.3315
  269MOL    H1048786   6.593   2.375   5.661  0.1853  0.7720  0.9509
  269MOL    C1148787   6.747   2.343   5.957 -0.0573 -0.2681  0.2164
  269MOL    C1248788   6.837   2.234   6.025 -0.2662 -0.5544 -0.1631
  269MOL    C1348789   6.911   2.287   6.149  0.5901 -0.3840  0.1424
  269MOL    H1448790   6.810   2.429   5.935  2.2608 -1.8363  0.4705
  269MOL    H1548791   6.669   2.373   6.027  0.0716  0.3016  0.1166
  269MOL    H1648792   6.912   2.209   5.950 -1.4881 -0.8294 -1.3171
  269MOL    H1748793   6.977   2.211   6.191  0.2153 -0.5499  0.4325
  269MOL    H1848794   6.980   2.368   6.122 -1.7035  2.2376  1.8825
  269MOL    H1948795   6.847   2.321   6.230  0.1307 -0.4697 -0.1831
  269MOL    C2048796   6.780   2.095   6.051 -0.5443 -0.7608 -0.1121
  269MOL    C2148797   6.651   2.096   6.139 -0.2714 -0.1857  0.1330
  269MOL    C2248798   6.563   1.977   6.097 -0.1398  0.0829  0.1404
  269MOL    H2348799   6.755   2.037   5.962 -1.7847  0.5976 -0.6738
  269MOL    H2448800   6.860   2.037   6.097  0.8579  0.2254 -1.2645
  269MOL    H2548801   6.596   2.183   6.102  1.0454  0.0196 -1.4276
  269MOL    H2648802   6.468   1.980   6.150 -0.6826 -0.5909 -0.7907
  269MOL    H2748803   6.541   1.983   5.991 -1.2341 -1.2139  0.2798
  269MOL    H2848804   6.604   1.878   6.116 -1.6222 -0.8188 -1.2386
  269MOL    C2948805   6.662   2.092   6.292 -0.0167  0.1676 -0.0504
  269MOL    C3048806   6.544   2.169   6.361 -0.0312  0.6480  1.0883
  269MOL    C3148807   6.508   2.110   6.495  0.5373 -0.6456 -0.5317
  269MOL    H3248808   6.660   1.989   6.327  0.8990  0.6277  1.4297
  269MOL    H3348809   6.754   2.137   6.330  0.2868  0.5819 -1.2493
  269MOL    H3448810   6.452   2.159   6.303  0.9457 -0.9893 -0.2248
  269MOL    H3548811   6.492   2.002   6.494 -3.1273 -0.2134  1.5747
  269MOL    H3648812   6.590   2.130   6.564 -0.9112  3.5374  0.1525
  269MOL    H3748813   6.425   2.168   6.535  1.0122 -1.3967  1.6166
  269MOL    C3848814   6.581   2.320   6.364  0.1088  0.1626  0.1102
  269MOL    C3948815   6.471   2.419   6.414 -0.0360  0.2157 -0.3353
  269MOL    C4048816   6.532   2.563   6.423  0.3216  0.1471  0.2208
  269MOL    H4148817   6.666   2.338   6.430  0.8477 -1.5933 -0.3492
  269MOL    H4248818   6.624   2.365   6.274  1.1044  0.2968  0.6535
  269MOL    H4348819   6.435   2.391   6.513  0.1219 -0.9644 -0.6064
  269MOL    H4448820   6.498   2.610   6.515 -0.2851  0.0016  0.0715
  269MOL    H4548821   6.640   2.561   6.436  0.2164  1.6858  1.5416
  269MOL    H4648822   6.511   2.613   6.328  0.8449 -0.3369 -0.1545
  269MOL    C4748823   6.337   2.410   6.339 -0.2310  0.1685  0.8314
  269MOL    C4848824   6.209   2.482   6.408 -0.2955 -0.8231  0.0282
  269MOL    C4948825   6.136   2.564   6.307 -0.2833 -0.5105 -0.2801
  269MOL    H5048826   6.350   2.461   6.243 -3.5841 -0.5147 -0.0623
  269MOL    H5148827   6.308   2.307   6.318  0.8418 -0.3815  1.9907
  269MOL    H5248828   6.245   2.557   6.479 -0.1734  0.6346 -1.5421
  269MOL    H5348829   6.187   2.657   6.280 -0.9446  0.1008  0.5403
  269MOL    H5448830   6.120   2.526   6.206 -1.3903  0.7779 -0.6089
  269MOL    H5548831   6.041   2.609   6.339 -0.0564  0.2072 -0.6026
  269MOL    C5648832   6.134   2.386   6.490 -0.7709  0.5851  0.1653
  269MOL    C5748833   6.122   2.426   6.646  0.5846 -0.1447  0.1193
  269MOL    C5848834   6.046   2.557   6.674 -0.0415 -0.9298  0.4437
  269MOL    H5948835   6.036   2.373   6.445 -1.2647 -0.1193  1.4058
  269MOL    H6048836   6.170   2.283   6.491  2.1762  1.5299 -1.9294
  269MOL    H6148837   6.225   2.442   6.679  0.3091  2.5700 -0.1961
  269MOL    H6248838   6.051   2.584   6.780 -1.1135  0.4027  0.1649
  269MOL    H6348839   6.069   2.648   6.617 -2.4252 -1.4876 -1.4514
  269MOL    H6448840   5.940   2.536   6.662 -0.0180 -1.2957  0.8529
  269MOL    C6548841   6.087   2.302   6.732  0.8076 -0.7731  0.3839
  269MOL    C6648842   6.191   2.190   6.764  0.1705 -0.4157  0.7939
  269MOL    C6748843   6.320   2.235   6.833 -0.2869 -0.2008  0.4002
  269MOL    H6848844   6.037   2.330   6.824  2.8209  1.6590  0.8048
  269MOL    H6948845   6.004   2.256   6.678  1.0144 -1.5647  0.7300
  269MOL    H7048846   6.219   2.151   6.666  0.0104  1.1390  0.1282
  269MOL    H7148847   6.374   2.308   6.773  0.3723 -1.2270 -0.2647
  269MOL    H7248848   6.312   2.274   6.935  0.0348 -0.2229  0.4336
  269MOL    H7348849   6.391   2.155   6.852 -1.4310 -0.8746  2.0248
  269MOL    C7448850   6.117   2.078   6.841  0.4712 -0.6502  0.4690
  269MOL    C7548851   6.207   1.950   6.881  0.1940 -0.1663  0.7657
  269MOL    C7648852   6.098   1.853   6.922  0.4778 -0.8717  0.4933
  269MOL    H7748853   6.069   2.115   6.932 -1.6189 -0.1512 -0.8081
  269MOL    H7848854   6.040   2.043   6.772 -0.5213  0.2026  1.1375
  269MOL    H7948855   6.268   1.979   6.967  0.4832  1.6065  0.0061
  269MOL    H8048856   6.040   1.889   7.007  0.9622 -0.4364  0.6367
  269MOL    H8148857   6.033   1.825   6.840  0.6115  0.4889 -0.0884
  269MOL    H8248858   6.138   1.758   6.958  0.6755 -0.2138  2.0591
  269MOL    C8348859   6.289   1.893   6.767  0.1967  0.5657 -0.0352
  269MOL    C8448860   6.361   1.758   6.796 -0.1534  0.6661  0.1648
  269MOL    C8548861   6.414   1.703   6.658 -0.5285  0.3726  0.1978
  269MOL    H8648862   6.217   1.876   6.686 -0.4734 -0.3530  0.7376
  269MOL    H8748863   6.362   1.959   6.722  1.2007 -1.0695 -0.8538
  269MOL    H8848864   6.295   1.685   6.841 -0.2583  1.7097  1.7137
  269MOL    H8948865   6.487   1.773   6.618 -0.5961 -0.3702 -1.2572
  269MOL    H9048866   6.462   1.606   6.668 -0.5605  0.3183 -0.1701
  269MOL    H9148867   6.339   1.674   6.584  2.8013 -2.8489 -2.0863
  269MOL    C9248868   6.476   1.788   6.895 -0.1672 -0.0087 -0.0041
  269MOL    C9348869   6.539   1.681   6.994 -0.5336  0.6310 -0.8571
  269MOL    C9448870   6.433   1.635   7.093 -0.0762  1.1590 -0.1543
  269MOL    H9548871   6.551   1.851   6.849  0.9259 -0.9052  0.5309
  269MOL    H9648872   6.444   1.870   6.959  0.0186 -1.3947  1.9164
  269MOL    H9748873   6.608   1.737   7.057 -2.0015  0.9883  0.4787
  269MOL    H9848874   6.346   1.590   7.046  1.4093  0.2694 -2.1524
  269MOL    H9948875   6.481   1.556   7.151 -1.1299 -0.0465 -0.8906
  269MOL   H10048876   6.398   1.718   7.154  2.5667 -0.2709  3.5077
  269MOL   C10148877   6.595   1.560   6.917  0.3597 -0.7513  0.7584
  269MOL   C10248878   6.707   1.595   6.824  0.2041  0.4086 -0.7042
  269MOL   C10348879   6.833   1.646   6.896 -0.1147 -0.3807 -0.2222
  269MOL   H10448880   6.627   1.481   6.986  0.1060 -0.9653  0.6334
  269MOL   H10548881   6.511   1.513   6.866  0.9948 -1.7452  0.6098
  269MOL   H10648882   6.676   1.679   6.762  0.4395  0.4746 -0.7321
  269MOL   H10748883   6.899   1.562   6.915  1.1976  0.0552 -2.6999
  269MOL   H10848884   6.898   1.717   6.845 -0.0946  0.8182  1.4110
  269MOL   H10948885   6.802   1.686   6.993  1.4162  1.4781 -0.4716
  269MOL   C11048886   6.736   1.474   6.730 -0.0916 -0.2777 -1.1080
  269MOL   C11148887   6.829   1.510   6.610  1.1268  0.9515 -0.2012
  269MOL   C11248888   6.871   1.381   6.537  0.2885 -0.5831  0.0189
  269MOL   H11348889   6.782   1.389   6.781  1.4893  1.3136  0.1577
  269MOL   H11448890   6.643   1.436   6.688 -0.4094  0.7517 -1.3346
  269MOL   H11548891   6.928   1.542   6.641  2.4602 -3.1763  0.2126
  269MOL   H11648892   6.947   1.398   6.461 -0.1125 -0.3427 -0.3255
  269MOL   H11748893   6.923   1.309   6.601  0.1034 -0.1614  0.6511
  269MOL   H11848894   6.792   1.314   6.505  0.1590 -0.3793 -0.0850
  269MOL   C11948895   6.760   1.608   6.513 -0.6718 -0.6780  0.0930
  269MOL   C12048896   6.840   1.680   6.401 -0.4170  0.6530  0.1325
  269MOL   C12148897   6.740   1.711   6.287 -0.1529 -0.1640 -0.0207
  269MOL   H12248898   6.667   1.562   6.478  0.2865 -2.4099 -0.2075
  269MOL   H12348899   6.722   1.697   6.564  1.3367  1.5464 -2.1616
  269MOL   H12448900   6.911   1.608   6.359 -0.6707  0.8059 -0.5562
  269MOL   H12548901   6.791   1.746   6.198 -1.5335 -0.4556 -0.9366
  269MOL   H12648902   6.681   1.625   6.254 -0.2287 -0.0316 -0.2243
  269MOL   H12748903   6.666   1.788   6.308  2.1840  2.5287 -1.2966
  269MOL   C12848904   6.926   1.806   6.439  0.2080 -0.1279  0.1985
  269MOL   C12948905   7.032   1.859   6.339  0.1418 -0.0569 -0.5851
  269MOL   C13048906   7.087   1.996   6.387 -0.5752 -0.3329 -0.2780
  269MOL   H13148907   6.862   1.886   6.475  1.3088  1.2668 -0.8727
  269MOL   H13248908   6.983   1.764   6.523 -1.5946 -0.8593  1.0869
  269MOL   H13348909   6.981   1.881   6.245  0.5840 -1.0034 -1.0520
  269MOL   H13448910   7.149   2.049   6.315 -2.0744  1.5537 -0.1967
  269MOL   H13548911   7.004   2.055   6.426 -1.1137 -1.4347  0.3012
  269MOL   H13648912   7.153   1.982   6.473 -0.7152  0.7074 -0.0027
  269MOL   C13748913   7.150   1.767   6.331  0.3651 -0.3191  0.0111
  269MOL   C13848914   7.216   1.788   6.196  0.2837  0.3237 -0.1794
  269MOL   C13948915   7.364   1.807   6.215  0.1140  0.3065 -0.3349
  269MOL   H14048916   7.213   1.777   6.419  3.0946 -0.8644 -1.8377
  269MOL   H14148917   7.109   1.666   6.335 -2.2099  0.5268 -3.2338
  269MOL   H14248918   7.175   1.877   6.150  0.9257  0.8229  0.2079
  269MOL   H14348919   7.384   1.893   6.279  1.0163  0.1366 -0.3701
  269MOL   H14448920   7.402   1.714   6.257  1.5499  1.3550  0.7192
  269MOL   H14548921   7.429   1.826   6.129  0.0247  1.0120 -0.2509
  269MOL   C14648922   7.193   1.665   6.098  0.5641 -0.2035 -0.0903
  269MOL   C14748923   7.048   1.633   6.053 -0.5162  0.0164  0.8228
  269MOL   C14848924   7.004   1.744   5.960 -0.2052 -0.7582  0.0940
  269MOL   H14948925   7.248   1.686   6.006  0.7109 -0.1717  0.0035
  269MOL   H15048926   7.241   1.577   6.141 -2.4116 -2.1409 -0.6134
  269MOL   H15148927   6.983   1.642   6.140  0.4060  2.7190  1.2858
  269MOL   H15248928   7.000   1.835   6.020  0.7301 -0.4392 -0.3218
  269MOL   H15348929   7.045   1.748   5.858 -3.0913 -0.3632 -1.1026
  269MOL   H15448930   6.897   1.731   5.946 -0.7138  2.7503  0.2103
  269MOL   C15548931   7.049   1.497   5.973  0.7465  0.3390 -0.2919
  269MOL   C15648932   6.917   1.426   5.951  0.6786  0.1420 -0.3400
  269MOL   C15748933   6.937   1.310   5.853  0.2101  0.1350 -0.2312
  269MOL   H15848934   7.089   1.533   5.878  3.3860 -0.6600  0.3922
  269MOL   H15948935   7.120   1.426   6.014  0.7832  0.7906  0.4240
  269MOL   H16048936   6.854   1.498   5.899  2.1530  1.5833 -0.1641
  269MOL   H16148937   6.853   1.243   5.837 -0.4727  0.7752  0.5901
  269MOL   H16248938   6.946   1.349   5.752  1.9006  1.0487  0.2597
  269MOL   H16348939   7.025   1.256   5.889 -0.2963 -0.6602 -0.1812
  269MOL   C16448940   6.857   1.373   6.083 -0.4765 -0.2558 -0.2208
  269MOL   C16548941   6.716   1.303   6.082 -0.1902  0.0152  0.7541
  269MOL   C16648942   6.683   1.240   6.219  0.2553  0.0394 -0.6748
  269MOL   H16748943   6.932   1.308   6.129 -0.3091 -0.3762 -0.6661
  269MOL   H16848944   6.858   1.446   6.163  1.1831 -0.9196  0.3804
  269MOL   H16948945   6.719   1.226   6.006 -3.0011  1.2403 -0.6751
  269MOL   H17048946   6.579   1.221   6.244 -0.0954  0.3130 -1.9168
  269MOL   H17148947   6.742   1.149   6.236  0.1494 -0.2429 -1.7717
  269MOL   H17248948   6.708   1.317   6.293 -2.6472  0.1599  0.2268
  269MOL   C17348949   6.607   1.404   6.040  0.3083 -0.7503  0.3167
  269MOL   C17448950   6.474   1.343   5.986 -0.0894 -0.4631  0.0149
  269MOL   C17548951   6.369   1.446   5.956  0.1992 -0.5102  0.0354
  269MOL   H17648952   6.591   1.467   6.128  1.6215 -0.7827  0.5934
  269MOL   H17748953   6.649   1.463   5.958  2.0324 -1.5761  0.5853
  269MOL   H17848954   6.440   1.271   6.060  1.5912 -0.5571  0.7187
  269MOL   H17948955   6.279   1.417   5.902 -0.5318  0.6967  0.5878
  269MOL   H18048956   6.331   1.470   6.055  0.7133  2.1590 -0.3728
  269MOL   H18148957   6.397   1.536   5.900  2.1101  0.3334  2.2462
  269MOL   H18248958   6.497   1.289   5.894 -0.0514 -0.0750 -0.2052
  270MOL     C148959   3.793   6.285   2.257 -0.3278 -0.3052 -0.3470
  270MOL     C248960   3.851   6.218   2.128 -0.3721  0.3322 -0.1471
  270MOL     C348961   3.981   6.292   2.074  0.7957 -0.6417 -0.0133
  270MOL     H448962   3.705   6.235   2.297  0.0561  0.1825  1.1516
  270MOL     H548963   3.770   6.389   2.234 -0.5125 -0.1039  0.7044
  270MOL     H648964   3.770   6.240   2.057  0.3966  1.2910 -0.7345
  270MOL     H748965   3.964   6.390   2.029  0.0893 -0.7865 -0.0809
  270MOL     H848966   4.058   6.298   2.150  1.5007  1.6062 -0.8681
  270MOL     H948967   4.020   6.240   1.987  1.3722  0.9929 -0.7607
  270MOL    H1048968   3.865   6.285   2.340 -1.2352  0.2713  0.4517
  270MOL    C1148969   3.877   6.068   2.149  0.2370 -0.6654 -0.2313
  270MOL    C1248970   3.763   5.965   2.163  0.3735  0.0944  0.7104
  270MOL    C1348971   3.648   5.977   2.057  0.0587  0.0182 -0.0572
  270MOL    H1448972   3.938   6.019   2.073  1.4163 -0.1253  0.3614
  270MOL    H1548973   3.948   6.063   2.231 -0.4909  2.3409  0.6284
  270MOL    H1648974   3.706   5.997   2.250 -1.4566 -2.4927  0.5259
  270MOL    H1748975   3.563   5.913   2.080  1.3491 -1.5406  0.4516
  270MOL    H1848976   3.592   6.069   2.037 -1.8751 -1.3437 -1.1069
  270MOL    H1948977   3.696   5.953   1.963  3.2653  0.4418  1.4238
  270MOL    C2048978   3.809   5.816   2.179  0.0558 -0.8832 -0.1468
  270MOL    C2148979   3.716   5.726   2.262 -0.0563 -0.1196  0.5645
  270MOL    C2248980   3.757   5.581   2.228  0.0809  0.6669  0.0873
  270MOL    H2348981   3.834   5.778   2.079 -0.5349 -0.0005 -0.6337
  270MOL    H2448982   3.901   5.826   2.237 -0.3927  0.4087  0.3461
  270MOL    H2548983   3.615   5.747   2.227  0.1028 -1.1125 -0.5280
  270MOL    H2648984   3.851   5.573   2.283  0.0521 -0.6071 -0.0415
  270MOL    H2748985   3.676   5.517   2.263 -1.1076  2.0080 -0.1606
  270MOL    H2848986   3.786   5.561   2.125 -0.1407 -0.5585  0.2560
  270MOL    C2948987   3.725   5.762   2.419  0.3034 -0.7234 -0.2255
  270MOL    C3048988   3.626   5.692   2.516 -0.2549 -0.2678  0.3327
  270MOL    C3148989   3.690   5.553   2.565  0.3130 -0.5329  0.7344
  270MOL    H3248990   3.825   5.750   2.461  0.1274  0.2637  0.5126
  270MOL    H3348991   3.723   5.871   2.427  0.8148 -0.6723 -0.8284
  270MOL    H3448992   3.530   5.676   2.468 -1.0104  0.6259  1.5208
  270MOL    H3548993   3.762   5.580   2.643  0.9830 -0.3618  0.0598
  270MOL    H3648994   3.609   5.498   2.613  0.8018 -0.4157  1.7007
  270MOL    H3748995   3.736   5.501   2.481 -0.0209 -0.4202  0.4814
  270MOL    C3848996   3.591   5.783   2.633  0.0030  0.2226  0.4464
  270MOL    C3948997   3.488   5.895   2.599 -0.6097  0.3159 -0.0603
  270MOL    C4048998   3.346   5.840   2.571  1.1117 -0.3919 -0.4423
  270MOL    H4148999   3.550   5.720   2.712 -0.4997 -0.1691 -0.1158
  270MOL    H4249000   3.682   5.823   2.677  1.3692 -1.5327 -0.6908
  270MOL    H4349001   3.529   5.939   2.508  0.4572  2.3528  1.3837
  270MOL    H4449002   3.335   5.792   2.474  1.9289  1.4922 -1.4815
  270MOL    H4549003   3.317   5.776   2.654  1.5845  1.1986  0.9716
  270MOL    H4649004   3.282   5.929   2.563  0.9495 -0.4574  0.0734
  270MOL    C4749005   3.475   6.009   2.712 -0.8011  0.0356  0.8523
  270MOL    C4849006   3.596   6.100   2.729  0.3292 -0.1854 -0.5666
  270MOL    C4949007   3.600   6.202   2.616 -0.8450 -0.3571  0.4571
  270MOL    H5049008   3.397   6.079   2.683 -0.5666 -0.6633 -1.5996
  270MOL    H5149009   3.445   5.963   2.806 -0.4146  0.7406  1.3225
  270MOL    H5249010   3.675   6.029   2.705 -1.5587 -2.4137 -0.3040
  270MOL    H5349011   3.532   6.287   2.627  0.4460  0.4636  2.4695
  270MOL    H5449012   3.698   6.244   2.596 -2.9612  4.4109 -0.5347
  270MOL    H5549013   3.581   6.153   2.521 -0.3685 -0.1065  0.2342
  270MOL    C5649014   3.607   6.174   2.867  0.6838  0.2846  0.2632
  270MOL    C5749015   3.652   6.095   2.986 -0.4265  0.9784  0.5902
  270MOL    C5849016   3.793   6.038   2.954  0.5194 -0.1772  0.5645
  270MOL    H5949017   3.679   6.255   2.849  1.1693 -0.4118 -1.0261
  270MOL    H6049018   3.507   6.215   2.876 -0.0174  0.0118 -4.6980
  270MOL    H6149019   3.594   6.004   3.003 -2.1209  2.0430  0.5280
  270MOL    H6249020   3.845   5.992   3.038  1.4358  1.9568  1.1858
  270MOL    H6349021   3.784   5.954   2.886 -0.2188  0.0071  0.4270
  270MOL    H6449022   3.853   6.120   2.916 -2.3429  0.9965 -1.5737
  270MOL    C6549023   3.661   6.182   3.113 -0.4580 -0.7618  0.2926
  270MOL    C6649024   3.523   6.225   3.172  0.3634  0.0654  0.5438
  270MOL    C6749025   3.444   6.106   3.230 -0.2278 -0.2667 -0.5351
  270MOL    H6849026   3.719   6.141   3.196  0.2188  0.0248  0.2161
  270MOL    H6949027   3.718   6.272   3.088 -2.0899  0.3536  0.4932
  270MOL    H7049028   3.465   6.268   3.090  1.4520  0.7372  0.1166
  270MOL    H7149029   3.486   6.066   3.322  0.6871  0.4843 -0.6134
  270MOL    H7249030   3.347   6.140   3.264  0.3289 -0.7580  1.6358
  270MOL    H7349031   3.431   6.037   3.147  1.0456 -3.3335  1.7203
  270MOL    C7449032   3.540   6.334   3.278 -0.5698 -0.1609 -0.1829
  270MOL    C7549033   3.550   6.478   3.214  0.0828  0.1130  0.8723
  270MOL    C7649034   3.412   6.519   3.161  0.4824 -0.1008  0.3242
  270MOL    H7749035   3.459   6.341   3.350 -0.6772 -0.3772 -0.2814
  270MOL    H7849036   3.632   6.316   3.334 -0.3222 -1.0865 -0.8627
  270MOL    H7949037   3.618   6.484   3.129  0.0759  0.1172  0.8671
  270MOL    H8049038   3.397   6.624   3.136 -0.7306 -0.5155 -0.7340
  270MOL    H8149039   3.403   6.466   3.066  0.8657  0.1457  0.1507
  270MOL    H8249040   3.342   6.500   3.242  0.3227  2.4201  0.7965
  270MOL    C8349041   3.595   6.581   3.314  0.1567 -0.2398 -0.0696
  270MOL    C8449042   3.745   6.577   3.366 -0.1970 -0.4865  0.5257
  270MOL    C8549043   3.848   6.559   3.247  0.3082 -0.5864  0.3125
  270MOL    H8649044   3.585   6.675   3.260 -1.5483 -0.9720 -1.0656
  270MOL    H8749045   3.526   6.594   3.397  0.6764  0.5629  0.2465
  270MOL    H8849046   3.765   6.492   3.431 -0.6669 -1.6495 -0.8140
  270MOL    H8949047   3.952   6.544   3.276  1.3639  1.1117 -2.5040
  270MOL    H9049048   3.823   6.467   3.194  0.1694  0.3614 -1.2865
  270MOL    H9149049   3.851   6.645   3.181  1.5535 -1.8607 -1.3500
  270MOL    C9249050   3.776   6.707   3.446  0.2986  0.2508  0.4717
  270MOL    C9349051   3.696   6.733   3.578  0.3124  0.6965 -0.2647
  270MOL    C9449052   3.727   6.612   3.674 -0.5961  0.1101  0.3366
  270MOL    H9549053   3.881   6.698   3.472  0.5667 -1.5582 -1.1641
  270MOL    H9649054   3.773   6.790   3.375 -0.3474 -0.4118 -0.2733
  270MOL    H9749055   3.590   6.726   3.558  0.4051 -0.2126 -0.4770
  270MOL    H9849056   3.820   6.613   3.730 -0.5669  1.0469  0.2816
  270MOL    H9949057   3.650   6.608   3.751 -1.4007  0.9577 -0.4016
  270MOL   H10049058   3.718   6.513   3.629  0.4996  1.1684 -2.3240
  270MOL   C10149059   3.733   6.858   3.649 -0.6093 -0.5600 -0.1860
  270MOL   C10249060   3.728   6.988   3.561  0.1960  0.6180  0.4067
  270MOL   C10349061   3.594   7.005   3.502  0.0600 -0.5197  0.0591
  270MOL   H10449062   3.669   6.865   3.737  0.3643 -1.7447  0.6544
  270MOL   H10549063   3.831   6.848   3.696 -0.5937  0.1621 -0.0675
  270MOL   H10649064   3.799   6.985   3.478 -0.8843  2.3727 -0.5982
  270MOL   H10749065   3.576   7.112   3.496  1.1577 -0.1838  2.2838
  270MOL   H10849066   3.581   6.948   3.409 -0.8885 -1.3197  0.6740
  270MOL   H10949067   3.518   6.982   3.576  0.0633  0.6264  0.4248
  270MOL   C11049068   3.783   7.118   3.629 -0.0514 -0.0750 -0.2535
  270MOL   C11149069   3.931   7.114   3.656  0.0854  0.0807 -0.2405
  270MOL   C11249070   4.017   7.162   3.538  0.0654  0.2722  0.0903
  270MOL   H11349071   3.751   7.208   3.576 -3.1552 -1.8624 -1.4950
  270MOL   H11449072   3.730   7.129   3.723 -0.5338 -0.7918 -0.4445
  270MOL   H11549073   3.952   7.007   3.668  1.4423  0.4588  0.8680
  270MOL   H11649074   4.116   7.189   3.572 -0.7592  0.6411  2.2389
  270MOL   H11749075   4.022   7.082   3.464 -0.7302 -1.6291  2.0377
  270MOL   H11849076   3.977   7.250   3.488  0.0204  1.3111  1.9269
  270MOL   C11949077   3.978   7.201   3.774  0.5284  0.2078 -0.7763
  270MOL   C12049078   3.916   7.171   3.912 -0.4189  0.0073  0.5553
  270MOL   C12149079   3.925   7.022   3.952 -0.1620  0.3762 -0.2352
  270MOL   H12249080   4.085   7.186   3.789  0.1506  0.6136  2.7008
  270MOL   H12349081   3.955   7.303   3.744  1.6246 -0.7457 -5.2032
  270MOL   H12449082   3.809   7.194   3.921 -0.3214  0.3780  0.7777
  270MOL   H12549083   4.015   6.967   3.924  0.0984  0.8175 -0.2733
  270MOL   H12649084   3.919   7.001   4.058  0.5015 -0.6403 -0.3970
  270MOL   H12749085   3.847   6.963   3.905 -0.6644 -1.2798  2.6131
  270MOL   C12849086   3.986   7.250   4.022  0.2485  0.4154 -0.5300
  270MOL   C12949087   3.981   7.401   4.002 -0.0396  0.1669 -0.8719
  270MOL   C13049088   3.844   7.466   3.986 -0.2814 -0.5752  0.4426
  270MOL   H13149089   3.944   7.224   4.120  1.1733  2.5696  0.4788
  270MOL   H13249090   4.087   7.211   4.032  0.1236  0.1378 -0.3261
  270MOL   H13349091   4.036   7.433   3.913 -0.8946  2.5413 -0.5781
  270MOL   H13449092   3.864   7.569   3.956  1.0665  0.1871  3.8023
  270MOL   H13549093   3.777   7.430   3.908  0.0290  0.6031 -0.3772
  270MOL   H13649094   3.791   7.469   4.081  0.1455  1.6504  0.6304
  270MOL   C13749095   4.048   7.478   4.119  0.2825  0.1571 -0.2933
  270MOL   C13849096   4.197   7.448   4.137 -0.0498  0.4422 -0.9746
  270MOL   C13949097   4.287   7.484   4.018 -0.1859  0.2611 -0.0167
  270MOL   H14049098   4.040   7.582   4.089  1.4031 -0.2580 -2.0819
  270MOL   H14149099   3.993   7.467   4.213 -0.8444  0.2206 -0.9323
  270MOL   H14249100   4.217   7.343   4.157 -0.7076  0.5628  0.4334
  270MOL   H14349101   4.386   7.443   4.035 -1.2076 -3.0881 -1.6537
  270MOL   H14449102   4.250   7.432   3.930 -0.1041  0.3645 -0.1112
  270MOL   H14549103   4.280   7.588   3.987 -1.7195  0.3268  0.4705
  270MOL   C14649104   4.247   7.521   4.270 -0.6972 -0.3705 -0.3295
  270MOL   C14749105   4.187   7.486   4.411  0.0086  0.4467 -0.2770
  270MOL   C14849106   4.171   7.336   4.447 -0.6980 -0.1827 -0.0797
  270MOL   H14949107   4.355   7.510   4.280 -0.3164  1.0317 -2.5573
  270MOL   H15049108   4.232   7.628   4.254 -0.0529 -0.2831 -0.3712
  270MOL   H15149109   4.084   7.521   4.413 -0.2753 -0.3342 -1.1687
  270MOL   H15249110   4.111   7.278   4.377  0.7700 -2.5167  0.5714
  270MOL   H15349111   4.270   7.291   4.447 -0.5407  0.1441 -1.0335
  270MOL   H15449112   4.139   7.329   4.551 -2.3078  2.3529 -0.3398
  270MOL   C15549113   4.263   7.563   4.525  0.1851 -0.1516  0.0403
  270MOL   C15649114   4.259   0.023   4.516  0.2378 -0.1366  0.7762
  270MOL   C15749115   4.121   0.088   4.545  0.6099  1.2294  0.4290
  270MOL   H15849116   4.233   7.538   4.627  2.5527  0.0634  0.8179
  270MOL   H15949117   4.367   7.540   4.505  1.0146  2.9656  0.4569
  270MOL   H16049118   4.291   0.053   4.416 -1.7983  0.4866  0.2719
  270MOL   H16149119   4.046   0.049   4.476  2.4284  1.2451 -1.5974
  270MOL   H16249120   4.088   0.079   4.649 -0.2914  1.4059  0.1647
  270MOL   H16349121   4.131   0.196   4.532 -1.1560  1.2836 -0.6321
  270MOL   C16449122   4.366   0.091   4.603 -0.7476 -0.1619 -0.5153
  270MOL   C16549123   4.515   0.101   4.549  0.9445  0.6282 -0.1636
  270MOL   C16649124   4.521   0.209   4.435 -0.9422  0.1993  0.2823
  270MOL   H16749125   4.344   0.193   4.634 -2.3187 -1.0535  1.4786
  270MOL   H16849126   4.371   0.036   4.697 -2.8369  0.6038  0.0639
  270MOL   H16949127   4.534   0.001   4.509  1.4933  0.9607 -0.7448
  270MOL   H17049128   4.530   0.311   4.472 -3.1618  0.5401 -0.0526
  270MOL   H17149129   4.606   0.188   4.370  1.5052 -0.2609  3.5097
  270MOL   H17249130   4.437   0.195   4.366  0.8707  1.1536 -2.1971
  270MOL   C17349131   4.614   0.123   4.655 -0.1555  0.2036  0.3859
  270MOL   C17449132   4.756   0.144   4.601 -0.0180  0.3810 -0.1846
  270MOL   C17549133   4.855   0.164   4.712 -0.1056 -0.1723  0.2872
  270MOL   H17649134   4.587   0.207   4.719 -0.9448  1.0356 -1.0138
  270MOL   H17749135   4.621   0.046   4.732 -0.6932  0.1146  0.3466
  270MOL   H17849136   4.762   0.236   4.543  0.3306  1.4868  1.5698
  270MOL   H17949137   4.858   0.074   4.772  0.6194  0.8170  1.7632
  270MOL   H18049138   4.956   0.188   4.679  1.5606 -1.4284  4.2379
  270MOL   H18149139   4.816   0.236   4.784  2.1778  0.3959  1.0178
  270MOL   H18249140   4.782   0.061   4.535  1.2634 -0.8314  1.7949
  271MOL     C149141   1.066   2.240   7.086  0.0605 -0.1230 -0.3019
  271MOL     C249142   1.043   2.334   6.970  0.3792  0.2757  0.4714
  271MOL     C349143   1.137   2.294   6.859  0.0156 -0.3779 -0.4899
  271MOL     H449144   1.173   2.223   7.098 -0.4133 -2.7176  0.4866
  271MOL     H549145   1.013   2.145   7.085  0.6114 -0.4446  0.1843
  271MOL     H649146   1.061   2.431   7.016  0.2508  0.7098 -0.3740
  271MOL     H749147   1.104   2.353   6.773 -0.7593 -0.0834 -0.0009
  271MOL     H849148   1.241   2.308   6.885  0.0863 -1.9567  0.1724
  271MOL     H949149   1.132   2.187   6.835 -0.7864 -0.3707 -0.3804
  271MOL    H1049150   1.037   2.293   7.177  0.3824  2.0818 -1.4445
  271MOL    C1149151   0.890   2.329   6.918  0.4572  0.6231 -0.2963
  271MOL    C1249152   0.789   2.371   7.024 -0.0825 -0.0746  0.3008
  271MOL    C1349153   0.805   2.521   7.065 -0.6964 -0.0880 -0.0133
  271MOL    H1449154   0.863   2.389   6.831  2.2522  0.3077 -1.1129
  271MOL    H1549155   0.866   2.226   6.891 -0.4277  0.9065 -0.5800
  271MOL    H1649156   0.814   2.319   7.116 -0.7981 -0.9849 -0.0110
  271MOL    H1749157   0.905   2.561   7.084 -0.8513  0.7665 -0.9763
  271MOL    H1849158   0.745   2.569   6.989 -1.6900 -2.2642 -0.6212
  271MOL    H1949159   0.754   2.537   7.160  3.1947 -3.4208  2.8255
  271MOL    C2049160   0.643   2.337   6.978  0.2245  0.0529  1.0273
  271MOL    C2149161   0.615   2.188   6.948 -0.0541 -0.3266  0.1376
  271MOL    C2249162   0.651   2.092   7.063 -1.1153 -0.7771  0.3099
  271MOL    H2349163   0.570   2.378   7.047 -2.0558  1.1220 -1.9202
  271MOL    H2449164   0.618   2.386   6.884 -0.8505 -2.5365 -0.0708
  271MOL    H2549165   0.662   2.151   6.857 -0.1119  0.6022 -0.2829
  271MOL    H2649166   0.605   2.126   7.156  2.9231 -0.0284  2.1139
  271MOL    H2749167   0.630   1.987   7.040  1.9499 -1.6829  1.4085
  271MOL    H2849168   0.759   2.093   7.075 -1.0616  0.9548 -0.1971
  271MOL    C2949169   0.463   2.175   6.921 -0.4654 -0.6447  0.4095
  271MOL    C3049170   0.406   2.229   6.785  0.6694  0.3476  0.9624
  271MOL    C3149171   0.472   2.158   6.661  0.0653  0.1018 -0.3980
  271MOL    H3249172   0.424   2.074   6.932 -0.4873 -1.1758 -3.8144
  271MOL    H3349173   0.413   2.227   7.003 -1.1720  0.0128 -0.4291
  271MOL    H3449174   0.431   2.335   6.775 -2.7894  0.8929 -4.2313
  271MOL    H3549175   0.440   2.054   6.654 -1.2328  0.5478 -1.3552
  271MOL    H3649176   0.449   2.202   6.564 -1.1005 -0.6989 -0.4895
  271MOL    H3749177   0.580   2.147   6.665  0.0458  0.1669  0.4024
  271MOL    C3849178   0.256   2.210   6.765  0.0045  0.0508  0.0617
  271MOL    C3949179   0.151   2.265   6.870 -0.1614 -0.3500 -0.0259
  271MOL    C4049180   0.209   2.405   6.909 -0.3051  0.0354 -0.6388
  271MOL    H4149181   0.231   2.248   6.666  1.2024  1.2843  0.2188
  271MOL    H4249182   0.252   2.102   6.756 -2.2012  0.1191 -0.1219
  271MOL    H4349183   0.154   2.199   6.957 -1.5362 -2.1711 -1.3265
  271MOL    H4449184   0.300   2.400   6.970 -0.8850 -1.1879  0.1360
  271MOL    H4549185   0.241   2.467   6.825 -2.6307  0.3498 -1.3357
  271MOL    H4649186   0.146   2.462   6.978  0.0530 -3.0896  2.4334
  271MOL    C4749187   0.002   2.267   6.823 -0.5731  0.1080  0.4577
  271MOL    C4849188   7.640   2.138   6.769  1.0200 -0.2585 -0.0284
  271MOL    C4949189   7.642   2.025   6.879  0.6342  0.0287  0.0408
  271MOL    H5049190   7.636   2.314   6.899  2.6635  0.0239  3.3379
  271MOL    H5149191   0.015   2.332   6.737 -0.0554 -0.3588  0.1821
  271MOL    H5249192   0.005   2.106   6.686  3.0194  0.4589  1.1709
  271MOL    H5349193   7.581   2.048   6.966  1.2817 -0.3877  0.6103
  271MOL    H5449194   7.596   1.933   6.842 -1.9444  1.4382 -0.3801
  271MOL    H5549195   0.046   1.996   6.904  1.7104  2.4949 -1.3192
  271MOL    C5649196   7.491   2.161   6.724  0.3297  0.4088 -0.4740
  271MOL    C5749197   7.493   2.214   6.578  0.1541  0.2101  0.3434
  271MOL    C5849198   7.518   2.101   6.479  0.4395 -0.0230  0.7141
  271MOL    H5949199   7.441   2.064   6.721  0.6776  0.2266 -0.3946
  271MOL    H6049200   7.431   2.215   6.797 -1.2319 -2.7562  0.6855
  271MOL    H6149201   7.567   2.294   6.571  0.7914 -0.5945 -2.7652
  271MOL    H6249202   7.604   2.035   6.495 -0.6053 -1.4314  0.6571
  271MOL    H6349203   7.434   2.032   6.478  1.3003 -1.0880 -0.1028
  271MOL    H6449204   7.534   2.150   6.383  2.6818 -0.6200  0.7437
  271MOL    C6549205   7.347   2.265   6.535  0.4959  0.1126 -0.0737
  271MOL    C6649206   7.282   2.392   6.597 -0.5310  0.0639  0.2287
  271MOL    C6749207   7.360   2.515   6.546 -0.3849  0.2074  0.2242
  271MOL    H6849208   7.335   2.254   6.427  2.1137 -1.7008 -0.0975
  271MOL    H6949209   7.279   2.188   6.570 -0.7205  1.7300  1.1867
  271MOL    H7049210   7.283   2.403   6.706  0.2516  0.3106  0.1991
  271MOL    H7149211   7.330   2.608   6.594 -0.7290  1.0369 -1.5699
  271MOL    H7249212   7.463   2.523   6.580  0.6373 -1.2788 -2.3919
  271MOL    H7349213   7.358   2.521   6.437  3.0915 -1.0401  0.0176
  271MOL    C7449214   7.134   2.387   6.562  0.5086  0.1310 -1.0684
  271MOL    C7549215   7.046   2.505   6.595  0.4932 -0.7015  0.0171
  271MOL    C7649216   6.905   2.486   6.534 -0.2232  0.6285 -0.7400
  271MOL    H7749217   7.128   2.388   6.453 -0.3763  2.3317 -1.0129
  271MOL    H7849218   7.095   2.292   6.599 -1.2974  0.9621 -0.8192
  271MOL    H7949219   7.088   2.597   6.552  2.8995 -0.8901  1.8685
  271MOL    H8049220   6.852   2.407   6.587 -0.5437 -0.7133 -2.9724
  271MOL    H8149221   6.843   2.574   6.547 -1.4874 -0.2517 -0.6756
  271MOL    H8249222   6.909   2.456   6.429 -1.0956 -1.9219 -0.0853
  271MOL    C8349223   7.036   2.543   6.743 -0.6142 -0.5623 -0.5695
  271MOL    C8449224   7.077   2.692   6.774  0.4945  0.5587 -0.6432
  271MOL    C8549225   7.009   2.801   6.694  0.0449 -0.3045 -0.1992
  271MOL    H8649226   6.941   2.513   6.788 -0.9380 -0.5180 -1.2183
  271MOL    H8749227   7.104   2.482   6.802 -0.3950  2.1461  2.1392
  271MOL    H8849228   7.184   2.687   6.754  0.6776 -0.4009  0.5215
  271MOL    H8949229   6.927   2.761   6.634  0.3666 -1.3927  0.0780
  271MOL    H9049230   6.962   2.870   6.764 -0.0783 -0.9360  0.3521
  271MOL    H9149231   7.081   2.854   6.631 -0.1383 -0.7177 -0.7594
  271MOL    C9249232   7.056   2.721   6.928 -0.6032  0.2016 -0.2815
  271MOL    C9349233   7.140   2.641   7.029  0.0031 -0.4512 -0.3242
  271MOL    C9449234   7.286   2.674   7.005  0.9077 -0.0863  0.0631
  271MOL    H9549235   7.087   2.825   6.936 -0.5896  0.1694  0.0858
  271MOL    H9649236   6.950   2.714   6.950 -0.5022 -1.7124 -0.3247
  271MOL    H9749237   7.108   2.538   7.020  0.7048 -0.6474 -0.6711
  271MOL    H9849238   7.315   2.652   6.903  0.6227 -0.3397  0.0383
  271MOL    H9949239   7.305   2.779   7.028 -1.5928  0.0417  1.7583
  271MOL   H10049240   7.346   2.616   7.075  1.4929 -0.5379 -0.7988
  271MOL   C10149241   7.118   2.692   7.179  0.1309 -0.1888  0.8072
  271MOL   C10249242   6.984   2.652   7.233 -0.1024 -0.1619  0.2700
  271MOL   C10349243   6.986   2.507   7.280  0.4129  0.5541 -0.2524
  271MOL   H10449244   7.193   2.645   7.242  0.8343  1.2749  1.0643
  271MOL   H10549245   7.144   2.797   7.174  0.0421 -0.0790  2.3309
  271MOL   H10649246   6.908   2.661   7.156 -0.1895  1.9055  0.5682
  271MOL   H10749247   7.062   2.499   7.358 -0.9277  2.0114  1.2637
  271MOL   H10849248   6.891   2.497   7.333  0.2118  0.4280 -0.6344
  271MOL   H10949249   6.993   2.435   7.200  2.5230  0.1383  0.2666
  271MOL   C11049250   6.950   2.758   7.341  0.0792  0.1252  0.4743
  271MOL   C11149251   6.927   2.907   7.305 -0.2051 -0.2335 -0.2239
  271MOL   C11249252   6.796   2.924   7.234  0.5399  0.4988  0.4858
  271MOL   H11349253   6.858   2.726   7.391 -0.0545 -0.0767  0.1005
  271MOL   H11449254   7.026   2.745   7.418  0.5442  2.4588  0.4460
  271MOL   H11549255   7.011   2.930   7.240  0.0689  1.7553  0.7852
  271MOL   H11649256   6.788   3.030   7.211  2.3041  0.9992  2.0719
  271MOL   H11749257   6.800   2.867   7.141  1.5654 -0.6747  1.2320
  271MOL   H11849258   6.716   2.884   7.296 -0.1909 -2.1817 -2.0559
  271MOL   C11949259   6.948   3.002   7.424 -0.2020 -0.2750 -0.5116
  271MOL   C12049260   6.971   3.155   7.393  0.0631 -0.1549  0.3781
  271MOL   C12149261   6.988   3.226   7.531  1.0127  0.1582  0.1857
  271MOL   H12249262   6.861   2.997   7.490  0.6549 -0.2084  0.6353
  271MOL   H12349263   7.037   2.970   7.478  1.9921  1.4485 -3.0656
  271MOL   H12449264   6.882   3.199   7.348  0.7807  1.1104  0.1776
  271MOL   H12549265   6.919   3.191   7.608  0.9799  0.2352  0.1922
  271MOL   H12649266   7.088   3.209   7.571  1.5696 -2.2438 -2.0716
  271MOL   H12749267   6.980   3.335   7.529 -2.3284 -0.0155  1.1613
  271MOL   C12849268   7.087   3.186   7.295 -1.3380  0.0576 -0.6704
  271MOL   C12949269   7.061   3.303   7.199  0.5148  0.6317 -0.1997
  271MOL   C13049270   7.067   3.447   7.260  0.6804  0.1378 -0.1389
  271MOL   H13149271   7.175   3.195   7.359  0.6413 -0.2385 -3.2833
  271MOL   H13249272   7.118   3.097   7.242 -3.1204 -0.2036 -1.3107
  271MOL   H13349273   6.960   3.297   7.159  1.2864 -1.0749 -1.9678
  271MOL   H13449274   7.016   3.507   7.184 -0.7273  0.8476  1.3453
  271MOL   H13549275   7.009   3.463   7.351  0.8885  1.7260 -0.2665
  271MOL   H13649276   7.169   3.484   7.267 -0.0367  1.9429  1.1712
  271MOL   C13749277   7.163   3.296   7.087  1.1091 -0.5257 -0.2050
  271MOL   C13849278   7.168   3.183   6.980  0.3598  0.0410 -0.7864
  271MOL   C13949279   7.027   3.140   6.935 -0.0952  0.2851 -0.2334
  271MOL   H14049280   7.147   3.387   7.030 -3.1989  0.1178  1.8421
  271MOL   H14149281   7.261   3.304   7.134 -0.2618  2.3335  2.2612
  271MOL   H14249282   7.215   3.097   7.028  0.5806  0.2254 -0.6710
  271MOL   H14349283   6.988   3.226   6.880 -1.4643  0.7020  1.3413
  271MOL   H14449284   7.022   3.057   6.866 -0.8070 -0.1186  0.3025
  271MOL   H14549285   6.961   3.128   7.021  0.1692  2.1644  0.2756
  271MOL   C14649286   7.245   3.230   6.850 -0.2562  0.2741  0.0859
  271MOL   C14749287   7.389   3.288   6.850  0.4298 -0.1590 -0.4368
  271MOL   C14849288   7.490   3.182   6.895  0.2579  0.6800  0.2154
  271MOL   H14949289   7.255   3.153   6.774 -1.4217  0.2728 -0.0746
  271MOL   H15049290   7.182   3.302   6.798  0.1560  1.4568  1.1810
  271MOL   H15149291   7.381   3.362   6.930 -2.0163 -1.7120  0.8088
  271MOL   H15249292   7.495   3.086   6.842  2.7920  0.5578  0.6167
  271MOL   H15349293   7.596   3.202   6.877  0.5957 -3.0614 -2.6614
  271MOL   H15449294   7.472   3.159   7.000 -0.3682  1.7401  0.3385
  271MOL   C15549295   7.446   3.347   6.718 -0.0923  0.1662 -0.0599
  271MOL   C15649296   7.366   3.441   6.635 -0.2184 -0.5898 -0.1747
  271MOL   C15749297   7.301   3.556   6.712 -0.0017 -0.4443 -0.5170
  271MOL   H15849298   7.548   3.384   6.732  0.2293  0.5308 -2.9057
  271MOL   H15949299   7.472   3.266   6.649  0.1535 -0.7101  1.0620
  271MOL   H16049300   7.298   3.368   6.590  0.5742 -0.4396 -1.6166
  271MOL   H16149301   7.375   3.629   6.744  0.8356 -1.0341 -1.1104
  271MOL   H16249302   7.226   3.610   6.653 -0.4235  1.0841  1.3470
  271MOL   H16349303   7.244   3.519   6.797  0.7209  0.4058  0.3476
  271MOL   C16449304   7.444   3.522   6.534  0.3756  0.6010 -0.4576
  271MOL   C16549305   7.467   3.442   6.405  0.2260  0.5323  0.4172
  271MOL   C16649306   7.352   3.430   6.308  0.3724 -0.7572 -0.5605
  271MOL   H16749307   7.391   3.615   6.515  2.8888  2.8493  2.8563
  271MOL   H16849308   7.539   3.562   6.569  1.0908  0.5389 -2.3206
  271MOL   H16949309   7.492   3.336   6.416 -0.1430  0.2636 -1.2072
  271MOL   H17049310   7.252   3.415   6.349  0.3996  2.2318  0.7354
  271MOL   H17149311   7.332   3.522   6.252  0.5079  0.9525  2.1117
  271MOL   H17249312   7.363   3.358   6.227  0.6735 -0.2360 -0.9816
  271MOL   C17349313   7.584   3.495   6.328  0.0804  0.7024  0.2370
  271MOL   C17449314   0.022   3.473   6.404  0.7417 -0.4286 -1.0472
  271MOL   C17549315   0.150   3.528   6.351 -0.6430  0.8815  0.0853
  271MOL   H17649316   7.584   3.445   6.231 -0.4530  2.3311 -0.6211
  271MOL   H17749317   7.567   3.600   6.306  1.8631  0.6299 -1.6637
  271MOL   H17849318   0.035   3.365   6.417  2.8466 -0.3654 -2.3965
  271MOL   H17949319   0.176   3.504   6.248 -1.2093 -1.2008  0.3979
  271MOL   H18049320   0.140   3.637   6.345  0.2053  0.8422 -2.5345
  271MOL   H18149321   0.246   3.507   6.398 -1.7119 -5.7640 -0.2630
  271MOL   H18249322   0.016   3.506   6.507  0.4771 -0.1258 -1.1581
  272MOL     C149323   1.357   7.660   6.989 -0.7467 -0.5165  0.1180
  272MOL     C249324   1.358   0.115   7.017  0.1794 -0.5991  0.3990
  272MOL     C349325   1.263   0.185   6.925  0.2218  0.4010 -0.4904
  272MOL     H449326   1.382   7.644   6.884  0.6227 -0.7093  0.4557
  272MOL     H549327   1.267   7.605   7.016 -0.7828 -0.3611  0.3085
  272MOL     H649328   1.459   0.146   6.990 -0.0712  0.4728  0.6863
  272MOL     H749329   1.265   0.294   6.934 -0.7727  0.6016 -2.4921
  272MOL     H849330   1.269   0.158   6.820 -0.5338 -0.7198 -0.2518
  272MOL     H949331   1.160   0.169   6.956  1.0528 -1.1135  1.6083
  272MOL    H1049332   1.433   7.612   7.050 -1.2463  0.0055  1.1567
  272MOL    C1149333   1.346   0.142   7.170 -0.1003  0.2156 -0.3262
  272MOL    C1249334   1.465   0.089   7.249  0.0303  0.2668 -0.5878
  272MOL    C1349335   1.598   0.134   7.196  1.1674 -0.1996  0.2630
  272MOL    H1449336   1.355   0.251   7.174  3.4254 -0.0684  1.5575
  272MOL    H1549337   1.251   0.117   7.216 -0.0317  1.7466  0.7012
  272MOL    H1649338   1.452   7.679   7.236  0.1572  0.2869 -0.8972
  272MOL    H1749339   1.632   0.106   7.097  0.5229  1.0816 -0.3288
  272MOL    H1849340   1.605   0.243   7.201  1.5242 -0.2973  2.6044
  272MOL    H1949341   1.684   0.108   7.258  1.6231  1.4798  0.3667
  272MOL    C2049342   1.429   0.108   7.398 -0.1622 -0.3597 -0.8500
  272MOL    C2149343   1.531   0.052   7.496  0.5132  0.2180  0.1587
  272MOL    C2249344   1.514   0.125   7.622  0.2901  0.2247  0.3417
  272MOL    H2349345   1.428   0.213   7.428  2.0403 -1.4712  3.5971
  272MOL    H2449346   1.331   0.068   7.427 -0.8517  0.7694 -1.5892
  272MOL    H2549347   1.632   0.060   7.457 -0.1545 -2.0308 -2.2269
  272MOL    H2649348   1.588   0.095   7.697 -0.0978 -0.7608  0.3490
  272MOL    H2749349   1.535   0.231   7.620  1.3651  0.0169  0.4203
  272MOL    H2849350   1.418   0.106   7.671  0.1925 -0.8335 -0.2423
  272MOL    C2949351   1.494   7.599   7.515  0.2294  0.1577 -0.7403
  272MOL    C3049352   1.570   7.524   7.625  0.0221  0.1260 -0.2987
  272MOL    C3149353   1.505   7.390   7.662 -0.5362 -0.3906  0.0624
  272MOL    H3249354   1.394   7.588   7.556  1.5494 -0.7799  2.3776
  272MOL    H3349355   1.493   7.551   7.417 -1.6931  0.6120 -0.9700
  272MOL    H3449356   1.557   7.582   0.018  0.8116 -0.2972  0.0885
  272MOL    H3549357   1.545   7.349   0.058 -1.1567 -0.2158  0.4021
  272MOL    H3649358   1.401   7.416   7.677 -0.3891 -1.3655  3.3254
  272MOL    H3749359   1.510   7.314   7.584  1.4785 -0.4645  0.2241
  272MOL    C3849360   1.725   7.511   7.602 -0.7665 -0.0745  0.1685
  272MOL    C3949361   1.821   7.560   0.018  0.3811 -0.5159 -0.3510
  272MOL    C4049362   1.813   7.465   0.141  0.3739  0.2626 -0.6519
  272MOL    H4149363   1.744   7.412   7.560 -0.7766 -0.4751  1.1171
  272MOL    H4249364   1.746   7.585   7.524 -2.9064  0.8262  0.4122
  272MOL    H4349365   1.781   7.653   0.058  0.2713 -1.6888  2.3401
  272MOL    H4449366   1.708   7.451   0.170  0.7701 -0.9500  0.2319
  272MOL    H4549367   1.856   7.369   0.115 -0.2817 -0.1341 -0.2966
  272MOL    H4649368   1.857   7.513   0.229 -2.3992  2.2101 -0.2360
  272MOL    C4749369   1.972   7.583   7.688  0.1981 -0.5999  0.1427
  272MOL    C4849370   1.990   7.683   7.569 -0.7928 -0.6181 -0.2934
  272MOL    C4949371   1.931   0.127   7.599 -0.0464  0.2571  0.3583
  272MOL    H5049372   2.023   7.628   0.076  2.7583 -2.0525 -0.5681
  272MOL    H5149373   2.019   7.486   7.675  3.0300  0.6242  1.0130
  272MOL    H5249374   1.939   7.661   7.476 -1.5608  3.4055 -0.9167
  272MOL    H5349375   1.824   0.116   7.618  0.0539 -0.0245  0.7686
  272MOL    H5449376   1.976   0.168   7.689  1.7020 -0.2454 -0.2633
  272MOL    H5549377   1.942   0.210   7.529  0.8535  0.7728  1.1126
  272MOL    C5649378   2.131   7.697   7.520  0.1983  0.3632  0.0170
  272MOL    C5749379   2.202   7.571   7.478 -0.0501 -0.0585 -0.4444
  272MOL    C5849380   2.127   7.491   7.366 -0.7685 -0.3385 -0.3725
  272MOL    H5949381   2.142   0.066   7.435 -0.4303  1.5780  0.8577
  272MOL    H6049382   2.187   0.040   7.605  1.1804  1.3698 -1.0868
  272MOL    H6149383   2.203   7.506   7.565  0.0303 -1.9418 -1.8252
  272MOL    H6249384   2.120   7.530   7.264 -1.0128  0.6751  0.0166
  272MOL    H6349385   2.164   7.389   7.362  0.5369  0.1745 -2.4976
  272MOL    H6449386   2.021   7.480   7.391 -0.2543  1.0943  2.6224
  272MOL    C6549387   2.352   7.596   7.446  0.1045  0.1833 -0.4007
  272MOL    C6649388   2.458   7.503   7.515  0.3655 -0.4375  0.6612
  272MOL    C6749389   2.595   7.549   7.473  0.0296 -0.2888 -0.1014
  272MOL    H6849390   2.366   7.578   7.340  0.3571 -0.7601 -0.2119
  272MOL    H6949391   2.379   0.001   7.472 -0.6177  0.2335  0.1829
  272MOL    H7049392   2.443   7.401   7.481 -0.8734 -0.5650  1.5662
  272MOL    H7149393   2.610   7.550   7.365 -2.3745 -3.4121 -0.5228
  272MOL    H7249394   2.612   7.647   7.519  2.1434 -1.3142  1.3918
  272MOL    H7349395   2.681   7.495   7.513  2.3469  1.2191 -2.8881
  272MOL    C7449396   2.440   7.508   7.671  0.9124  0.0692 -0.2529
  272MOL    C7549397   2.452   7.367   0.048  0.1551  0.1173 -0.3714
  272MOL    C7649398   2.582   7.293   0.012 -0.5069  0.1985 -0.3951
  272MOL    H7749399   2.524   7.565   0.015  0.8992 -0.7983  1.0078
  272MOL    H7849400   2.345   7.553   0.002  1.5942  0.9373  0.7049
  272MOL    H7949401   2.367   7.305   0.020 -0.3168  0.1029  1.0430
  272MOL    H8049402   2.670   7.355   0.028 -1.1719  1.0296  0.0905
  272MOL    H8149403   2.601   7.207   0.075  0.0201  0.0381 -0.7720
  272MOL    H8249404   2.591   7.254   7.608 -0.6198  0.1352 -0.3807
  272MOL    C8349405   2.429   7.385   0.202 -0.6607 -0.2311  0.2884
  272MOL    C8449406   2.300   7.444   0.260 -0.0901  0.0202  0.1855
  272MOL    C8549407   2.174   7.369   0.215 -0.6536 -0.2662 -0.3867
  272MOL    H8649408   2.428   7.281   0.235  1.5743  0.3870  2.4257
  272MOL    H8749409   2.518   7.421   0.253  1.5537 -0.8859 -2.9957
  272MOL    H8849410   2.277   7.544   0.225  1.6287  0.9441  1.6008
  272MOL    H8949411   2.183   7.270   0.258  1.9654 -0.0581 -0.3939
  272MOL    H9049412   2.078   7.411   0.245 -1.4663 -1.7865 -0.8094
  272MOL    H9149413   2.166   7.375   0.106 -1.9184  0.3929 -0.2674
  272MOL    C9249414   2.302   7.459   0.421  0.1118 -0.7452 -0.0574
  272MOL    C9349415   2.387   7.580   0.467 -0.7313 -0.2084  0.2896
  272MOL    C9449416   2.317   0.023   0.460  0.3439  0.0805 -0.1213
  272MOL    H9549417   2.202   7.478   0.460 -0.0682 -0.0256 -0.8561
  272MOL    H9649418   2.328   7.364   0.468  1.8348  0.0298  0.6020
  272MOL    H9749419   2.477   7.598   0.408  0.5020 -2.7662  1.3241
  272MOL    H9849420   2.247   0.037   0.543 -1.2899  0.2939 -1.4959
  272MOL    H9949421   2.392   0.102   0.459 -0.8263  1.2090 -0.4510
  272MOL   H10049422   2.263   0.028   0.365 -0.2426 -1.3583  0.1215
  272MOL   C10149423   2.446   7.559   0.608 -0.0875  0.1172 -0.3048
  272MOL   C10249424   2.543   7.666   0.661 -1.1630 -0.3136  0.0107
  272MOL   C10349425   2.575   7.640   0.807 -0.2351  0.7397  0.5153
  272MOL   H10449426   2.363   7.549   0.678 -0.2344 -2.0138 -0.7441
  272MOL   H10549427   2.499   7.464   0.612  1.3255  0.8156 -1.8850
  272MOL   H10649428   2.488   0.062   0.663 -0.1306  0.3831 -2.3228
  272MOL   H10749429   2.634   7.550   0.824  0.1161  1.2976  2.3245
  272MOL   H10849430   2.633   0.028   0.844 -1.8273  1.4498  1.4295
  272MOL   H10949431   2.488   7.638   0.873  0.8102  1.6761  1.9397
  272MOL   C11049432   2.664   7.678   0.569 -1.1743 -0.0136 -0.4223
  272MOL   C11149433   2.674   0.106   0.472  0.3574  0.2134 -0.5902
  272MOL   C11249434   2.671   0.240   0.547 -0.2600 -0.0227 -0.5462
  272MOL   H11349435   2.750   7.689   0.635 -2.0139 -0.0637  0.6955
  272MOL   H11449436   2.671   7.595   0.498 -1.8273  0.9263 -1.6132
  272MOL   H11549437   2.593   0.099   0.399  0.3093  2.4593 -0.7740
  272MOL   H11649438   2.749   0.244   0.622  1.0711 -2.5118 -1.7316
  272MOL   H11749439   2.677   0.314   0.467  2.3555  1.0277  0.5758
  272MOL   H11849440   2.577   0.272   0.591  0.0679  1.1814 -0.6866
  272MOL   C11949441   2.807   0.082   0.393 -0.0235 -0.9135  0.2192
  272MOL   C12049442   2.824   0.173   0.273  0.4601  1.0349 -0.6340
  272MOL   C12149443   2.962   0.141   0.201 -0.3037 -0.2388  0.5567
  272MOL   H12249444   2.893   0.099   0.457 -0.4898  0.8767  0.3917
  272MOL   H12349445   2.822   7.680   0.351  1.4571 -0.4144 -0.4729
  272MOL   H12449446   2.836   0.277   0.300  1.3363  0.7724 -0.0060
  272MOL   H12549447   2.979   0.218   0.126 -1.4015 -0.9707 -0.4623
  272MOL   H12649448   3.042   0.151   0.275  0.0406 -1.8678  0.4301
  272MOL   H12749449   2.971   0.048   0.146 -0.6189 -0.5158  0.9705
  272MOL   C12849450   2.711   0.157   0.166  0.3543 -0.5309 -0.6207
  272MOL   C12949451   2.619   0.282   0.144  0.5559 -0.7449  0.6284
  272MOL   C13049452   2.686   0.364   0.032 -0.2739  0.2274 -0.0598
  272MOL   H13149453   2.753   0.131   0.069 -0.6664  0.1076 -1.2440
  272MOL   H13249454   2.649   0.068   0.179  0.3294 -0.2633  1.2744
  272MOL   H13349455   2.616   0.337   0.238  0.8624 -0.2715  0.3620
  272MOL   H13449456   2.794   0.365   0.042 -0.3318  0.3061  0.5373
  272MOL   H13549457   2.667   0.323   7.630  1.5463 -1.7785  0.3930
  272MOL   H13649458   2.640   0.463   0.024 -1.8747 -0.6362 -2.2348
  272MOL   C13749459   2.475   0.243   0.100 -0.2104 -0.5174 -0.3993
  272MOL   C13849460   2.382   0.358   0.100 -0.8828 -0.4182 -0.2225
  272MOL   C13949461   2.274   0.332   0.001  0.0675 -0.5422 -0.0471
  272MOL   H14049462   2.481   0.204   7.696  0.7059  0.9862 -0.9463
  272MOL   H14149463   2.433   0.159   0.156  0.4050  0.5386  1.7292
  272MOL   H14249464   2.443   0.443   0.069  1.6407 -2.4932 -1.1590
  272MOL   H14349465   2.323   0.328   7.601 -0.4873  0.9835 -0.4104
  272MOL   H14449466   2.229   0.233   0.011  0.9507 -0.9689 -0.3116
  272MOL   H14549467   2.192   0.405   7.694  0.1819 -0.4212 -0.1747
  272MOL   C14649468   2.326   0.379   0.235 -0.1271  0.1401 -0.2482
  272MOL   C14749469   2.270   0.517   0.262 -0.8144 -0.2500 -0.7011
  272MOL   C14849470   2.185   0.524   0.390  0.0343 -0.4188  0.6684
  272MOL   H14949471   2.243   0.309   0.244 -0.7242  0.7119 -1.2551
  272MOL   H15049472   2.402   0.360   0.311  0.2169  1.8014 -0.1475
  272MOL   H15149473   2.201   0.543   0.181 -1.8697  2.7699  1.0788
  272MOL   H15249474   2.141   0.621   0.414 -0.9306 -0.5969 -0.3573
  272MOL   H15349475   2.109   0.446   0.395 -0.3767 -0.0919 -0.4471
  272MOL   H15449476   2.244   0.491   0.476  2.8960  0.9264 -0.7151
  272MOL   C15549477   2.383   0.629   0.252 -0.5853  0.0672 -0.0939
  272MOL   C15649478   2.378   0.723   0.131  0.4590 -0.0211 -0.3527
  272MOL   C15749479   2.280   0.829   0.167 -0.0784 -0.2230  0.6812
  272MOL   H15849480   2.372   0.684   0.345 -2.0698 -2.6177  1.3651
  272MOL   H15949481   2.482   0.583   0.253  0.8122  2.9004 -1.4308
  272MOL   H16049482   2.330   0.672   0.047  1.2604  0.6959 -1.2625
  272MOL   H16149483   2.263   0.898   0.084  0.1713 -1.2649 -0.2527
  272MOL   H16249484   2.184   0.795   0.205  0.0528  0.1435  1.3350
  272MOL   H16349485   2.330   0.895   0.237 -0.7982  0.3106  0.6989
  272MOL   C16449486   2.513   0.768   0.076 -0.4928  0.2053 -0.5844
  272MOL   C16549487   2.496   0.834   7.637  0.1686 -0.4037 -0.6711
  272MOL   C16649488   2.541   0.978   7.636  0.6871  0.6048  0.2079
  272MOL   H16749489   2.556   0.844   0.141  1.0661 -2.6736  1.8606
  272MOL   H16849490   2.585   0.686   0.071 -0.3368  0.2954  0.0568
  272MOL   H16949491   2.389   0.833   7.615 -0.0379 -1.2114  0.3002
  272MOL   H17049492   2.483   1.042   0.005 -2.3380  0.1052 -1.8052
  272MOL   H17149493   2.649   0.980   7.651  0.6707 -1.7512  0.8408
  272MOL   H17249494   2.533   1.025   7.537  0.8439  1.6725  0.6992
  272MOL   C17349495   2.565   0.750   7.523 -0.0395 -0.0828  0.1707
  272MOL   C17449496   2.510   0.609   7.477  0.0496  0.1610 -0.0585
  272MOL   C17549497   2.574   0.555   7.356  0.4640 -0.1828  0.5138
  272MOL   H17649498   2.562   0.815   7.436  3.7074  1.0189  0.7440
  272MOL   H17749499   2.669   0.740   7.553 -0.0312 -0.7451 -0.0796
  272MOL   H17849500   2.403   0.619   7.461  0.3157 -0.7599 -2.6855
  272MOL   H17949501   2.529   0.598   7.267  1.5825 -0.7493 -0.3294
  272MOL   H18049502   2.683   0.554   7.355  0.4765  0.7486  0.6693
  272MOL   H18149503   2.540   0.452   7.357 -0.3161  0.0623 -0.3525
  272MOL   H18249504   2.510   0.531   7.553 -0.5477 -0.6037 -0.8423
  273MOL     C149505   2.753   1.471   1.624  0.1319  0.4005 -0.0079
  273MOL     C249506   2.793   1.469   1.474  1.0350  0.7146  0.1110
  273MOL     C349507   2.898   1.359   1.451 -0.5315 -0.1905  0.7231
  273MOL     H449508   2.709   1.373   1.643  3.4014 -0.8661  1.2737
  273MOL     H549509   2.678   1.546   1.646  0.7337  1.7700 -2.3784
  273MOL     H649510   2.839   1.566   1.455 -1.4744  1.9960  0.3337
  273MOL     H749511   2.989   1.380   1.506  1.1698 -1.3461 -1.5786
  273MOL     H849512   2.862   1.266   1.495 -1.3720  0.6665  1.8518
  273MOL     H949513   2.917   1.338   1.345 -0.3620  0.7767  0.5654
  273MOL    H1049514   2.841   1.484   1.686 -0.2228 -0.6404  0.7268
  273MOL    C1149515   2.667   1.454   1.388 -0.3394 -0.6212 -0.3770
  273MOL    C1249516   2.668   1.466   1.233  1.3220  0.1740 -0.3212
  273MOL    C1349517   2.526   1.449   1.179  0.0581  0.4310  0.3065
  273MOL    H1449518   2.619   1.360   1.411 -1.2125 -0.1406 -0.2217
  273MOL    H1549519   2.602   1.520   1.446  0.8265  0.1095  0.1226
  273MOL    H1649520   2.731   1.386   1.195  0.6445 -0.1242 -0.8214
  273MOL    H1749521   2.458   1.514   1.236 -0.3880  0.3677 -0.1482
  273MOL    H1849522   2.516   1.477   1.075 -1.1407 -1.9922 -0.2687
  273MOL    H1949523   2.485   1.349   1.193  0.7475  0.1565  0.3484
  273MOL    C2049524   2.730   1.598   1.193  0.4554  0.6229  0.3264
  273MOL    C2149525   2.781   1.620   1.051  0.8328 -0.0433 -0.7167
  273MOL    C2249526   2.763   1.768   1.012  0.5471 -0.5097  0.7487
  273MOL    H2349527   2.660   1.680   1.213  0.3517  0.7720 -0.6457
  273MOL    H2449528   2.823   1.606   1.250 -0.4728 -0.8986  2.1342
  273MOL    H2549529   2.722   1.561   0.982  1.1625  0.8502 -1.7723
  273MOL    H2649530   2.657   1.788   0.994  1.1993  2.7231  0.1807
  273MOL    H2749531   2.791   1.843   1.086  0.9214 -0.9674  1.0706
  273MOL    H2849532   2.803   1.793   0.914 -0.6722  0.3435  0.4560
  273MOL    C2949533   2.934   1.581   1.045 -0.0072  0.0243  0.0860
  273MOL    C3049534   2.990   1.568   0.904  0.0146 -0.4557  0.1646
  273MOL    C3149535   3.119   1.649   0.896  0.5332 -0.0011  0.0256
  273MOL    H3249536   2.980   1.659   1.106  0.6282  1.4424 -2.1376
  273MOL    H3349537   2.942   1.486   1.097 -0.2918  0.1375  0.3330
  273MOL    H3449538   2.920   1.617   0.837 -1.6103  1.2261  2.9550
  273MOL    H3549539   3.196   1.602   0.957  2.3019  0.7697 -1.5727
  273MOL    H3649540   3.158   1.651   0.794 -0.7850  1.4278 -0.4782
  273MOL    H3749541   3.101   1.754   0.921 -2.2948 -0.9093  2.1171
  273MOL    C3849542   3.006   1.426   0.851  0.2125 -0.0036  0.0490
  273MOL    C3949543   2.881   1.358   0.790  0.6313  0.0590 -0.1947
  273MOL    C4049544   2.873   1.378   0.641 -0.6381  0.0736  0.6304
  273MOL    H4149545   3.084   1.433   0.776  0.3054 -0.9238  0.0552
  273MOL    H4249546   3.039   1.361   0.932  3.5508 -0.5057 -1.6365
  273MOL    H4349547   2.796   1.405   0.840  0.2272  0.3028 -1.1024
  273MOL    H4449548   2.772   1.364   0.601 -0.2864 -0.9576  0.0792
  273MOL    H4549549   2.893   1.483   0.619 -0.1783  0.1661  1.4936
  273MOL    H4649550   2.939   1.318   0.578 -0.9979 -0.9219  1.1879
  273MOL    C4749551   2.872   1.209   0.830  0.4253  0.1318  0.1577
  273MOL    C4849552   2.738   1.143   0.794  0.1087  0.6223 -0.3474
  273MOL    C4949553   2.739   0.992   0.834  0.2663 -0.1643  0.0167
  273MOL    H5049554   2.949   1.152   0.779  0.4599 -0.1711  0.5428
  273MOL    H5149555   2.888   1.195   0.937 -1.0119 -0.1346  0.3496
  273MOL    H5249556   2.727   1.146   0.685  1.3698  1.2402 -0.4633
  273MOL    H5349557   2.722   0.978   0.941  0.5541 -0.7541 -0.0094
  273MOL    H5449558   2.660   0.933   0.787  1.3414 -0.8200 -1.0061
  273MOL    H5549559   2.836   0.952   0.805  0.9697 -0.3372  2.5083
  273MOL    C5649560   2.614   1.200   0.864  0.3560  0.4012 -0.1657
  273MOL    C5749561   2.477   1.162   0.799 -0.4534 -0.2484  0.2471
  273MOL    C5849562   2.361   1.224   0.875  0.2358 -0.0322  0.0632
  273MOL    H5949563   2.620   1.207   0.973  0.9021 -0.6975 -0.1137
  273MOL    H6049564   2.615   1.308   0.854  2.6408  0.5188  1.0492
  273MOL    H6149565   2.473   1.054   0.803  0.4084 -0.3472 -1.2255
  273MOL    H6249566   2.263   1.188   0.843  0.4412  1.0243 -1.7929
  273MOL    H6349567   2.360   1.178   0.974  0.5181  0.1969  0.1703
  273MOL    H6449568   2.361   1.333   0.874 -2.0969  0.0057  0.1669
  273MOL    C6549569   2.459   1.211   0.647  0.4193  0.2993 -0.3616
  273MOL    C6649570   2.482   1.111   0.534  0.1904 -0.6052  0.5847
  273MOL    C6749571   2.387   0.997   0.556 -0.1269 -0.2757 -0.4412
  273MOL    H6849572   2.364   1.260   0.627 -0.2034  0.1276  1.9470
  273MOL    H6949573   2.532   1.290   0.629  0.0241  1.2096  1.8421
  273MOL    H7049574   2.586   1.078   0.531  0.3123 -0.1617 -2.1097
  273MOL    H7149575   2.392   0.923   0.476 -0.5484 -0.4316 -0.3216
  273MOL    H7249576   2.408   0.936   0.644 -1.4737  1.6191  1.2402
  273MOL    H7349577   2.281   1.020   0.565 -0.5163 -1.9537 -0.6917
  273MOL    C7449578   2.456   1.171   0.393  0.1168  0.3574  0.2782
  273MOL    C7549579   2.534   1.294   0.337  0.3756 -0.0005 -0.0620
  273MOL    C7649580   2.549   1.276   0.179  0.0957 -0.1431 -0.5630
  273MOL    H7749581   2.468   1.090   0.321 -0.6662  1.0142 -0.5972
  273MOL    H7849582   2.351   1.194   0.377 -0.0492  0.3020  1.2568
  273MOL    H7949583   2.634   1.287   0.380  0.6325 -0.1840 -0.6876
  273MOL    H8049584   2.634   1.326   0.132  1.1593 -0.8581  0.5712
  273MOL    H8149585   2.564   1.170   0.159 -1.3847 -0.2373 -1.2471
  273MOL    H8249586   2.456   1.290   0.125 -1.2956  1.7409  2.1915
  273MOL    C8349587   2.472   1.430   0.369  0.5500 -0.2982 -0.4923
  273MOL    C8449588   2.568   1.545   0.407  0.2109 -0.3116 -0.4948
  273MOL    C8549589   2.645   1.579   0.273  0.0931  0.5992 -0.3295
  273MOL    H8649590   2.396   1.459   0.297  0.3963  0.8015  0.1044
  273MOL    H8749591   2.405   1.409   0.453 -1.4580 -1.7774 -2.4063
  273MOL    H8849592   2.646   1.506   0.472  1.0195 -1.3188 -2.0371
  273MOL    H8949593   2.722   1.509   0.241  0.0385 -0.0736  0.9595
  273MOL    H9049594   2.575   1.590   0.190 -0.5476 -1.0514 -0.0355
  273MOL    H9149595   2.693   1.676   0.280  1.0786  0.1885 -1.2621
  273MOL    C9249596   2.507   1.670   0.475 -0.9795  1.0880  0.5872
  273MOL    C9349597   2.448   1.647   0.618 -0.3244 -0.2353  0.0309
  273MOL    C9449598   2.552   1.580   0.710  0.1056  0.3228  0.0098
  273MOL    H9549599   2.579   1.752   0.477 -0.4459  0.6304  0.6191
  273MOL    H9649600   2.424   1.706   0.415  0.3449  1.1439 -1.2635
  273MOL    H9749601   2.373   1.572   0.593 -2.2691  1.6535  0.1080
  273MOL    H9849602   2.616   1.663   0.742  1.4793 -0.9814  0.7206
  273MOL    H9949603   2.514   1.550   0.808 -1.5005 -0.2545 -0.7707
  273MOL   H10049604   2.596   1.488   0.674  0.4670 -0.4924  2.4105
  273MOL   C10149605   2.372   1.772   0.665 -0.9959  0.7240  0.0126
  273MOL   C10249606   2.287   1.762   0.794 -0.2609 -0.3800 -0.5340
  273MOL   C10349607   2.201   1.885   0.801 -0.5437  0.1755 -0.3078
  273MOL   H10449608   2.445   1.851   0.681  0.5949 -0.8667  0.8213
  273MOL   H10549609   2.304   1.812   0.590 -0.4464  3.3969  0.8837
  273MOL   H10649610   2.366   1.772   0.868 -1.0164 -1.2014  0.4018
  273MOL   H10749611   2.127   1.903   0.723 -3.4923 -3.2853  1.5467
  273MOL   H10849612   2.165   1.892   0.903  1.4061 -2.0893  0.5817
  273MOL   H10949613   2.276   1.964   0.796 -1.1181  0.8085  0.9883
  273MOL   C11049614   2.207   1.632   0.804  0.6839 -0.4004  0.6739
  273MOL   C11149615   2.115   1.611   0.923 -0.3987  0.4323  0.2408
  273MOL   C11249616   2.031   1.484   0.912  0.4462 -0.6079  0.6746
  273MOL   H11349617   2.142   1.630   0.717  1.8559 -1.7608 -0.2049
  273MOL   H11449618   2.270   1.543   0.796 -1.3747 -1.7932 -0.2249
  273MOL   H11549619   2.044   1.693   0.926  1.4713  2.0420  1.9812
  273MOL   H11649620   2.102   1.404   0.929  1.2431 -0.2728 -0.9775
  273MOL   H11749621   1.946   1.480   0.981  1.0557  0.3067  1.4844
  273MOL   H11849622   2.000   1.462   0.810 -0.4624 -1.2300  1.0715
  273MOL   C11949623   2.193   1.624   1.062 -0.4365 -0.3448  0.4732
  273MOL   C12049624   2.109   1.581   1.179 -0.4845 -0.1366  0.2039
  273MOL   C12149625   2.131   1.432   1.205 -1.3798 -0.2940 -0.8055
  273MOL   H12249626   2.286   1.567   1.055  2.7096  4.5020 -0.0207
  273MOL   H12349627   2.234   1.725   1.065  2.2258 -1.3962  0.9877
  273MOL   H12449628   2.002   1.599   1.167 -0.2211  0.6937 -1.0068
  273MOL   H12549629   2.096   1.359   1.132 -1.1647 -0.4108 -0.7922
  273MOL   H12649630   2.239   1.416   1.214 -1.5859 -0.4016  1.8579
  273MOL   H12749631   2.086   1.405   1.300  1.1588  2.2847  1.2312
  273MOL   C12849632   2.141   1.663   1.305 -0.0025  0.7559  0.2185
  273MOL   C12949633   2.106   1.812   1.292 -0.6672  0.0649  0.2738
  273MOL   C13049634   1.955   1.841   1.265  0.4525 -0.4223 -0.8330
  273MOL   H13149635   2.085   1.616   1.385  0.9089 -0.0249  0.4044
  273MOL   H13249636   2.245   1.647   1.332  0.1202 -1.2280 -1.3590
  273MOL   H13349637   2.154   1.854   1.204  2.0038  1.0011  2.0958
  273MOL   H13449638   1.950   1.945   1.233 -2.5794 -0.2379  0.1079
  273MOL   H13549639   1.919   1.785   1.178 -0.5189 -2.5908  0.9399
  273MOL   H13649640   1.892   1.826   1.352  1.6142 -2.0794 -0.2538
  273MOL   C13749641   2.149   1.893   1.422  0.2311  0.0753  0.2757
  273MOL   C13849642   2.303   1.903   1.438  0.2585  0.5669  0.9026
  273MOL   C13949643   2.367   1.998   1.341 -0.9236  0.6299  0.2652
  273MOL   H14049644   2.106   1.993   1.419 -0.7174 -0.3395 -0.5983
  273MOL   H14149645   2.110   1.829   1.502  2.8424 -1.0014  0.7173
  273MOL   H14249646   2.333   1.808   1.394 -0.9465  1.4185 -1.8248
  273MOL   H14349647   2.300   2.028   1.261 -0.4849 -0.7912 -0.6411
  273MOL   H14449648   2.405   2.088   1.390  0.6666 -0.3018  0.7726
  273MOL   H14549649   2.455   1.952   1.298 -0.5363  1.2895  0.3426
  273MOL   C14649650   2.356   1.937   1.576 -0.1954  0.2990 -0.6358
  273MOL   C14749651   2.348   1.823   1.685 -0.8890  0.1211 -0.4066
  273MOL   C14849652   2.457   1.716   1.654 -0.3299 -0.2460  0.3204
  273MOL   H14949653   2.458   1.973   1.586 -0.1072 -0.2202  0.4776
  273MOL   H15049654   2.289   2.006   1.627 -0.9565 -3.0757  3.2357
  273MOL   H15149655   2.254   1.771   1.668 -0.5904 -0.8939  0.9503
  273MOL   H15249656   2.460   1.647   1.738  1.7533  0.6489  0.9959
  273MOL   H15349657   2.436   1.650   1.570  1.1658 -0.1719 -0.1292
  273MOL   H15449658   2.562   1.740   1.635 -0.7575  0.2516 -1.4858
  273MOL   C15549659   2.346   1.875   1.832 -0.1597  0.2245 -0.3003
  273MOL   C15649660   2.200   1.909   1.875  0.3755 -0.2179 -0.2084
  273MOL   C15749661   2.114   1.792   1.915 -0.3679 -0.3952  0.5690
  273MOL   H15849662   2.371   1.800   1.906  0.3123  1.9821  1.3467
  273MOL   H15949663   2.421   1.954   1.836 -0.8966  0.9824 -1.0650
  273MOL   H16049664   2.151   1.959   1.792  2.8990  1.4942 -0.7201
  273MOL   H16149665   2.014   1.826   1.940 -0.6008  0.5035 -1.4513
  273MOL   H16249666   2.095   1.722   1.833  1.7181  0.3478 -0.5867
  273MOL   H16349667   2.167   1.737   1.993 -0.8461  0.3573  1.4374
  273MOL   C16449668   2.194   2.024   1.975  0.2675  0.2864 -0.4264
  273MOL   C16549669   2.233   2.163   1.925 -0.1313 -0.7262  0.0468
  273MOL   C16649670   2.141   2.212   1.802 -0.6728 -0.4283 -0.2446
  273MOL   H16749671   2.093   2.032   2.017  0.7760  0.4247  0.8146
  273MOL   H16849672   2.248   1.980   2.059  2.2858 -0.0665 -1.8883
  273MOL   H16949673   2.334   2.151   1.885  0.4838 -0.2093  1.3998
  273MOL   H17049674   2.165   2.314   1.772 -0.1038 -0.0284  1.4917
  273MOL   H17149675   2.135   2.168   1.702 -0.9866  0.6139 -0.6920
  273MOL   H17249676   2.037   2.204   1.833 -1.0900  0.6590 -1.3169
  273MOL   C17349677   2.251   2.267   2.034  0.2391  0.8606  0.7407
  273MOL   C17449678   2.320   2.399   1.989 -0.2254 -0.8142  0.0767
  273MOL   C17549679   2.278   2.511   2.086  0.0340 -0.1567  0.0446
  273MOL   H17649680   2.148   2.266   2.070 -0.7975 -0.6782 -2.1248
  273MOL   H17749681   2.298   2.214   2.117  1.8039  0.5832 -0.2999
  273MOL   H17849682   2.286   2.425   1.889  1.4014  1.8770  0.1830
  273MOL   H17949683   2.170   2.514   2.105  0.2139 -1.4662  1.3417
  273MOL   H18049684   2.320   2.497   2.185  2.8369  0.4334 -1.0298
  273MOL   H18149685   2.305   2.613   2.058  0.7886  0.1587  1.8708
  273MOL   H18249686   2.428   2.388   1.986 -0.2910 -1.3998 -0.1506
  274MOL     C149687   1.738   7.502   0.775  0.5927  0.1926 -0.3080
  274MOL     C249688   1.596   7.482   0.708  0.6952  0.3080  0.1816
  274MOL     C349689   1.510   7.586   0.771  0.9033 -0.2358  0.0632
  274MOL     H449690   1.738   7.469   0.879 -0.6794 -2.1319 -1.0205
  274MOL     H549691   1.767   7.607   0.776  1.6809 -0.0739 -1.8444
  274MOL     H649692   1.563   7.383   0.738  2.1627  0.0591  1.0229
  274MOL     H749693   1.405   7.570   0.744  1.5055  0.0998 -2.6062
  274MOL     H849694   1.501   7.574   0.879  1.9299  0.7430  0.2607
  274MOL     H949695   1.539   7.684   0.733  2.7912 -0.3943  1.0909
  274MOL    H1049696   1.826   7.457   0.729 -0.1808  0.0926 -1.7189
  274MOL    C1149697   1.603   7.489   0.548 -0.6095  0.6392  0.1936
  274MOL    C1249698   1.486   7.419   0.479 -0.1276 -0.0548  0.0572
  274MOL    C1349699   1.440   7.495   0.352  0.2670  0.3826  0.1500
  274MOL    H1449700   1.614   7.591   0.512  0.5848  0.3871 -0.1722
  274MOL    H1549701   1.697   7.440   0.524 -1.0982  0.0179 -0.4749
  274MOL    H1649702   1.400   7.434   0.544 -0.1872  0.0555 -0.0469
  274MOL    H1749703   1.340   7.463   0.322  0.5569  1.0948 -1.6183
  274MOL    H1849704   1.436   7.603   0.358 -3.1177  0.2807  0.4078
  274MOL    H1949705   1.513   7.483   0.272  1.3622 -0.9825  1.3180
  274MOL    C2049706   1.526   7.273   0.435  0.3287 -0.0432 -0.6277
  274MOL    C2149707   1.412   7.186   0.367 -0.4477  0.1317  0.0574
  274MOL    C2249708   1.459   7.041   0.344 -0.5518  0.0353 -0.1542
  274MOL    H2349709   1.612   7.275   0.368 -0.6619 -0.3753 -1.9303
  274MOL    H2449710   1.554   7.206   0.515 -2.3988  0.7557  1.0722
  274MOL    H2549711   1.386   7.223   0.267 -1.0558 -1.2611 -0.3107
  274MOL    H2649712   1.567   7.041   0.332 -0.4027 -2.8567  0.8127
  274MOL    H2749713   1.443   6.987   0.437 -1.3704  0.5216 -0.0060
  274MOL    H2849714   1.401   7.000   0.261 -2.7813  2.2063  0.2773
  274MOL    C2949715   1.272   7.198   0.433  0.6208 -0.3808  0.0568
  274MOL    C3049716   1.156   7.131   0.355  0.2319 -0.1452 -0.2291
  274MOL    C3149717   1.038   7.100   0.453  0.0397  0.6720  0.3667
  274MOL    H3249718   1.288   7.168   0.537  2.7531 -1.4525 -0.5494
  274MOL    H3349719   1.250   7.304   0.439  1.6552 -0.2203  1.0683
  274MOL    H3449720   1.194   7.032   0.329  0.1212 -0.2705  0.0827
  274MOL    H3549721   1.081   7.046   0.537 -1.7847  0.8695  1.4621
  274MOL    H3649722   1.006   7.196   0.493  1.7096  1.2707  0.2973
  274MOL    H3749723   0.954   7.046   0.409  0.1413  0.4896  0.3993
  274MOL    C3849724   1.112   7.212   0.234 -0.4807 -0.3110  1.0661
  274MOL    C3949725   1.010   7.143   0.138 -0.1599  0.0251  0.6478
  274MOL    C4049726   0.905   7.242   0.091 -0.2345  0.6923  0.6003
  274MOL    H4149727   1.056   7.301   0.265 -0.6775 -0.2120  0.4420
  274MOL    H4249728   1.193   7.252   0.173 -2.6616  0.8428 -1.2075
  274MOL    H4349729   0.955   7.078   0.207 -0.4810  0.4339  0.7797
  274MOL    H4449730   0.839   7.201   0.014  0.7600 -0.8234  0.5398
  274MOL    H4549731   0.840   7.272   0.173 -0.3701 -0.1955  0.8169
  274MOL    H4649732   0.944   7.336   0.054 -1.0127  0.6114 -0.4623
  274MOL    C4749733   1.075   7.062   0.015 -0.5364 -0.2575 -0.2753
  274MOL    C4849734   0.991   6.968   7.633  1.2812  0.0765 -0.3391
  274MOL    C4949735   1.063   6.935   7.503  0.1244 -0.6131 -0.2196
  274MOL    H5049736   1.117   7.140   7.648  0.6009 -0.2257  0.4910
  274MOL    H5149737   1.161   7.005   0.051 -1.6587 -1.0932  1.1443
  274MOL    H5249738   0.904   7.023   7.597  0.5470 -0.5482  0.4879
  274MOL    H5349739   1.017   6.858   7.440 -1.8123  1.3281 -1.2554
  274MOL    H5449740   1.065   7.026   7.444 -0.3409  0.3740  1.2440
  274MOL    H5549741   1.169   6.918   7.520  0.6997  2.7305 -0.2148
  274MOL    C5649742   0.963   6.840   0.016 -0.5444  0.6610  0.3898
  274MOL    C5749743   0.817   6.797   0.037  0.2792  0.2866 -0.2533
  274MOL    C5849744   0.737   6.774   7.608 -0.0026 -0.0321 -0.2237
  274MOL    H5949745   1.020   6.762   7.663 -2.2684  1.1386 -2.4088
  274MOL    H6049746   1.002   6.854   0.117 -0.3134  2.6344  0.0485
  274MOL    H6149747   0.757   6.875   0.084 -2.3281 -1.7198 -0.1339
  274MOL    H6249748   0.639   6.731   7.628  0.1516 -1.4600 -2.3481
  274MOL    H6349749   0.732   6.860   7.540  2.5465 -1.3800 -2.1650
  274MOL    H6449750   0.793   6.693   7.562 -3.2961 -2.9801  0.7476
  274MOL    C6549751   0.821   6.671   0.133 -0.2647  0.5434  0.7719
  274MOL    C6649752   0.697   6.601   0.181  1.5905  0.3344  0.1799
  274MOL    C6749753   0.644   6.495   0.079  0.0054 -0.5586 -0.3613
  274MOL    H6849754   0.888   6.595   0.093 -2.5202 -1.3006  0.4451
  274MOL    H6949755   0.884   6.709   0.213  0.9140  0.3213 -0.0359
  274MOL    H7049756   0.617   6.674   0.195  1.9844  0.6862  0.5839
  274MOL    H7149757   0.632   6.529   7.674 -1.3302 -2.8470 -0.9885
  274MOL    H7249758   0.721   6.419   0.071  2.6357  2.0629 -0.7329
  274MOL    H7349759   0.553   6.440   0.104  0.5739 -0.8581  1.1448
  274MOL    C7449760   0.721   6.523   0.308  0.3241  0.3165 -0.1240
  274MOL    C7549761   0.736   6.610   0.436  0.7731  0.1252  0.3143
  274MOL    C7649762   0.606   6.631   0.510  0.0930  0.4809  0.2626
  274MOL    H7749763   0.641   6.451   0.327 -0.0496  0.9899  0.8718
  274MOL    H7849764   0.814   6.469   0.285 -0.2844 -0.9295  0.2785
  274MOL    H7949765   0.768   6.711   0.410 -0.5999  0.6953  0.7967
  274MOL    H8049766   0.553   6.537   0.521 -0.2055  0.6931  0.6617
  274MOL    H8149767   0.622   6.682   0.605 -0.3483  1.4259 -0.1611
  274MOL    H8249768   0.545   6.693   0.444 -0.3166  0.4738  0.6347
  274MOL    C8349769   0.838   6.547   0.530  0.2488 -0.4370 -0.5842
  274MOL    C8449770   0.986   6.566   0.492  0.5745  0.4598  0.1530
  274MOL    C8549771   1.032   6.708   0.532  0.5749  0.6476  0.0181
  274MOL    H8649772   0.822   6.597   0.626 -1.0858 -1.6890 -0.1339
  274MOL    H8749773   0.812   6.442   0.541  1.2589 -0.5338  0.9754
  274MOL    H8849774   0.997   6.569   0.384 -0.8570  2.0957  0.0392
  274MOL    H8949775   0.988   6.779   0.463 -0.0884  0.6044  0.3943
  274MOL    H9049776   1.010   6.734   0.636 -1.5682 -0.1413 -0.2171
  274MOL    H9149777   1.136   6.735   0.516  1.1723 -2.1124 -1.1385
  274MOL    C9249778   1.072   6.441   0.538 -0.2764 -0.1400  0.1281
  274MOL    C9349779   1.075   6.332   0.432 -0.9255  0.0063  0.5096
  274MOL    C9449780   1.160   6.367   0.305  0.5243  0.1951 -0.2298
  274MOL    H9549781   1.173   6.477   0.554 -1.1951  2.9338 -0.4693
  274MOL    H9649782   1.029   6.403   0.630 -2.2388 -0.6684 -0.9594
  274MOL    H9749783   0.969   6.325   0.407 -0.5214 -0.4398 -1.1693
  274MOL    H9849784   1.125   6.448   0.242  1.0855  0.2206 -0.5107
  274MOL    H9949785   1.258   6.378   0.353  0.2870  0.8807  0.0981
  274MOL   H10049786   1.179   6.287   0.233 -0.8093 -0.4656  0.1384
  274MOL   C10149787   1.109   6.196   0.488  0.6381 -0.5100 -0.0231
  274MOL   C10249788   1.120   6.071   0.395  0.2355  1.4585  0.7499
  274MOL   C10349789   1.183   5.959   0.466 -0.4357 -0.3786  0.2162
  274MOL   H10449790   1.203   6.208   0.543  0.8078  1.9880 -0.7907
  274MOL   H10549791   1.039   6.176   0.569  1.1407 -1.7990  0.0943
  274MOL   H10649792   1.197   6.092   0.321  0.6726  1.1821  1.1280
  274MOL   H10749793   1.209   5.881   0.394  1.2945  1.8378 -1.6263
  274MOL   H10849794   1.275   5.998   0.510 -1.9935  0.8129  2.4980
  274MOL   H10949795   1.127   5.919   0.550  0.2292  0.2707  0.9737
  274MOL   C11049796   0.981   6.038   0.330  0.2281 -0.2262  0.2396
  274MOL   C11149797   0.994   5.944   0.204  0.4021 -0.3529  0.6654
  274MOL   C11249798   0.859   5.899   0.145 -0.1748  0.4641  0.0330
  274MOL   H11349799   0.916   6.001   0.409 -1.6119 -0.9668 -1.5701
  274MOL   H11449800   0.934   6.128   0.292 -0.3960 -0.8694 -0.5456
  274MOL   H11549801   1.042   5.849   0.227 -1.0652 -1.2252  0.2170
  274MOL   H11649802   0.875   5.833   0.060 -1.8668  2.4102 -1.8723
  274MOL   H11749803   0.800   5.845   0.219 -0.0619 -2.1180 -1.7030
  274MOL   H11849804   0.805   5.987   0.110 -2.1031 -0.4740  0.5447
  274MOL   C11949805   1.070   6.016   0.084  0.6751  0.7400 -0.0900
  274MOL   C12049806   1.190   5.947   0.034 -0.1435 -0.4121 -1.1748
  274MOL   C12149807   1.149   5.821   7.659 -0.8420  0.2387 -0.4501
  274MOL   H12249808   1.010   6.043   7.695  0.1959 -0.5284 -0.1545
  274MOL   H12349809   1.099   6.113   0.126  0.8890  0.5687  0.1600
  274MOL   H12449810   1.252   5.919   0.119 -0.8188  0.6646 -0.3043
  274MOL   H12549811   1.085   5.843   7.574 -3.1498  1.3913  1.5366
  274MOL   H12649812   1.236   5.772   7.614 -1.6665 -1.2571 -0.4714
  274MOL   H12749813   1.094   5.758   0.031 -2.0737  0.6818 -1.0147
  274MOL   C12849814   1.277   6.036   7.631  0.4648  0.2998  0.2038
  274MOL   C12949815   1.334   6.165   7.691 -0.2902  0.0731  0.2375
  274MOL   C13049816   1.435   6.142   0.106  0.2823  0.0876  1.0750
  274MOL   H13149817   1.362   5.983   7.588  1.0509  1.0195  0.4800
  274MOL   H13249818   1.210   6.060   7.549 -1.1333  0.8282  1.6350
  274MOL   H13349819   1.252   6.224   0.034  1.2867  1.4784  1.5204
  274MOL   H13449820   1.389   6.087   0.187 -0.7671  1.2598  1.2879
  274MOL   H13549821   1.519   6.082   0.071 -0.3016  0.7060 -1.4999
  274MOL   H13649822   1.476   6.236   0.144  1.0319  1.8007 -3.5661
  274MOL   C13749823   1.394   6.252   7.571 -0.2523 -0.2362 -0.4641
  274MOL   C13849824   1.464   6.385   7.602  0.1123 -0.3544  0.6539
  274MOL   C13949825   1.541   6.438   7.487 -0.2840  0.5665 -0.8573
  274MOL   H14049826   1.459   6.184   7.516 -0.7584  0.8553 -2.4719
  274MOL   H14149827   1.313   6.272   7.501 -1.3873 -0.4010  0.7902
  274MOL   H14249828   1.538   6.357   7.677  1.2185 -0.0470 -0.3073
  274MOL   H14349829   1.584   6.538   7.491  1.9984 -0.3871 -0.7474
  274MOL   H14449830   1.635   6.384   7.489  1.1516  2.9536 -1.5249
  274MOL   H14549831   1.478   6.430   7.398 -1.7681  0.5101  0.1746
  274MOL   C14649832   1.361   6.493   7.665  0.7489  0.6156 -0.9168
  274MOL   C14749833   1.424   6.632   0.002  0.7067  0.4072  0.1829
  274MOL   C14849834   1.313   6.723   0.068 -0.6953 -0.3115 -0.4057
  274MOL   H14949835   1.278   6.518   7.598 -0.4240  1.2136  0.7454
  274MOL   H15049836   1.313   6.459   0.059  0.6782  1.5097 -0.6248
  274MOL   H15149837   1.450   6.683   7.607 -1.5473  1.3251  0.0071
  274MOL   H15249838   1.227   6.758   0.011 -0.3362  0.4022 -0.5080
  274MOL   H15349839   1.286   6.676   0.163  1.8906 -0.5913  0.2221
  274MOL   H15449840   1.359   6.818   0.094  1.5084 -0.8876 -2.0282
  274MOL   C15549841   1.542   6.616   0.103  0.0175 -0.1691  0.3111
  274MOL   C15649842   1.691   6.646   0.066 -0.7402  0.5083 -0.3153
  274MOL   C15749843   1.707   6.793   0.076 -0.0312  0.6400 -0.3160
  274MOL   H15849844   1.522   6.675   0.192 -0.4229 -0.5108  0.4397
  274MOL   H15949845   1.534   6.517   0.148 -0.6549 -0.3077 -0.1063
  274MOL   H16049846   1.680   6.609   7.661 -0.9884  0.2902 -0.2089
  274MOL   H16149847   1.626   6.846   0.027 -0.9837  1.8698  2.4676
  274MOL   H16249848   1.704   6.827   0.180 -2.6762  1.5188 -0.6429
  274MOL   H16349849   1.801   6.833   0.037  1.4172 -2.9306 -0.6326
  274MOL   C16449850   1.798   6.578   0.148  0.1732  0.1368  0.3331
  274MOL   C16549851   1.937   6.601   0.082 -0.0533 -0.1224 -0.2969
  274MOL   C16649852   2.048   6.553   0.176  0.1265 -0.1244  0.7957
  274MOL   H16749853   1.792   6.620   0.248 -1.5080  0.7634 -0.0153
  274MOL   H16849854   1.774   6.473   0.166 -0.1592  0.1068 -0.2594
  274MOL   H16949855   1.965   6.705   0.067 -0.7781  0.2796  1.0256
  274MOL   H17049856   2.042   6.605   0.272  0.1944 -1.3542  1.4734
  274MOL   H17149857   2.043   6.445   0.189 -2.1215 -0.0173  1.0601
  274MOL   H17249858   2.147   6.572   0.133  1.7239 -2.3144  3.3747
  274MOL   C17349859   1.961   6.533   7.638 -0.3878 -0.9416  0.0228
  274MOL   C17449860   1.930   6.383   7.633 -0.0033 -0.2309  0.8167
  274MOL   C17549861   1.942   6.352   7.485  0.1393  0.1828  0.3032
  274MOL   H17649862   1.899   6.588   7.567 -1.3404 -0.0396  1.5273
  274MOL   H17749863   2.058   6.564   7.601  0.0955 -1.4010  0.8837
  274MOL   H17849864   1.826   6.374   7.665 -0.1657 -1.3571 -0.0135
  274MOL   H17949865   1.909   6.249   7.472  2.0286 -0.4287  0.1342
  274MOL   H18049866   1.869   6.400   7.421  1.0367 -0.4898 -1.2657
  274MOL   H18149867   2.039   6.352   7.435  1.4047  2.6727  2.6008
  274MOL   H18249868   1.994   6.327   0.003  3.7714  3.0070  0.1329
   7.69740   7.69740   7.69740
