;
; Gromacs include topology (itp) file.
; For Molecular Group XYZ
; Force field scheme: opls2005
; Produced from DL_FIELD v4.11
;


[ moleculetype ]
; name    nrexcl
XYZ    3

[ atoms ]
; nr   type   resnr   residu    atom    cgnr    charge    mass
    1        CT    1  MOL      C1     1  -0.1800000   12.0115
    2        CT    1  MOL      C2     2  -0.0600000   12.0115
    3        CT    1  MOL      C3     3  -0.1800000   12.0115
    4        HC    1  MOL      H4     4   0.0600000    1.0080
    5        HC    1  MOL      H5     5   0.0600000    1.0080
    6        HC    1  MOL      H6     6   0.0600000    1.0080
    7        HC    1  MOL      H7     7   0.0600000    1.0080
    8        HC    1  MOL      H8     8   0.0600000    1.0080
    9        HC    1  MOL      H9     9   0.0600000    1.0080
   10        HC    1  MOL     H10    10   0.0600000    1.0080
   11        CT    1  MOL     C11    11  -0.1200000   12.0115
   12        CT    1  MOL     C12    12  -0.0600000   12.0115
   13        CT    1  MOL     C13    13  -0.1800000   12.0115
   14        HC    1  MOL     H14    14   0.0600000    1.0080
   15        HC    1  MOL     H15    15   0.0600000    1.0080
   16        HC    1  MOL     H16    16   0.0600000    1.0080
   17        HC    1  MOL     H17    17   0.0600000    1.0080
   18        HC    1  MOL     H18    18   0.0600000    1.0080
   19        HC    1  MOL     H19    19   0.0600000    1.0080
   20        CT    1  MOL     C20    20  -0.1200000   12.0115
   21        CT    1  MOL     C21    21  -0.0600000   12.0115
   22        CT    1  MOL     C22    22  -0.1800000   12.0115
   23        HC    1  MOL     H23    23   0.0600000    1.0080
   24        HC    1  MOL     H24    24   0.0600000    1.0080
   25        HC    1  MOL     H25    25   0.0600000    1.0080
   26        HC    1  MOL     H26    26   0.0600000    1.0080
   27        HC    1  MOL     H27    27   0.0600000    1.0080
   28        HC    1  MOL     H28    28   0.0600000    1.0080
   29        CT    1  MOL     C29    29  -0.1200000   12.0115
   30        CT    1  MOL     C30    30  -0.0600000   12.0115
   31        CT    1  MOL     C31    31  -0.1800000   12.0115
   32        HC    1  MOL     H32    32   0.0600000    1.0080
   33        HC    1  MOL     H33    33   0.0600000    1.0080
   34        HC    1  MOL     H34    34   0.0600000    1.0080
   35        HC    1  MOL     H35    35   0.0600000    1.0080
   36        HC    1  MOL     H36    36   0.0600000    1.0080
   37        HC    1  MOL     H37    37   0.0600000    1.0080
   38        CT    1  MOL     C38    38  -0.1200000   12.0115
   39        CT    1  MOL     C39    39  -0.0600000   12.0115
   40        CT    1  MOL     C40    40  -0.1800000   12.0115
   41        HC    1  MOL     H41    41   0.0600000    1.0080
   42        HC    1  MOL     H42    42   0.0600000    1.0080
   43        HC    1  MOL     H43    43   0.0600000    1.0080
   44        HC    1  MOL     H44    44   0.0600000    1.0080
   45        HC    1  MOL     H45    45   0.0600000    1.0080
   46        HC    1  MOL     H46    46   0.0600000    1.0080
   47        CT    1  MOL     C47    47  -0.1200000   12.0115
   48        CT    1  MOL     C48    48  -0.0600000   12.0115
   49        CT    1  MOL     C49    49  -0.1800000   12.0115
   50        HC    1  MOL     H50    50   0.0600000    1.0080
   51        HC    1  MOL     H51    51   0.0600000    1.0080
   52        HC    1  MOL     H52    52   0.0600000    1.0080
   53        HC    1  MOL     H53    53   0.0600000    1.0080
   54        HC    1  MOL     H54    54   0.0600000    1.0080
   55        HC    1  MOL     H55    55   0.0600000    1.0080
   56        CT    1  MOL     C56    56  -0.1200000   12.0115
   57        CT    1  MOL     C57    57  -0.0600000   12.0115
   58        CT    1  MOL     C58    58  -0.1800000   12.0115
   59        HC    1  MOL     H59    59   0.0600000    1.0080
   60        HC    1  MOL     H60    60   0.0600000    1.0080
   61        HC    1  MOL     H61    61   0.0600000    1.0080
   62        HC    1  MOL     H62    62   0.0600000    1.0080
   63        HC    1  MOL     H63    63   0.0600000    1.0080
   64        HC    1  MOL     H64    64   0.0600000    1.0080
   65        CT    1  MOL     C65    65  -0.1200000   12.0115
   66        CT    1  MOL     C66    66  -0.0600000   12.0115
   67        CT    1  MOL     C67    67  -0.1800000   12.0115
   68        HC    1  MOL     H68    68   0.0600000    1.0080
   69        HC    1  MOL     H69    69   0.0600000    1.0080
   70        HC    1  MOL     H70    70   0.0600000    1.0080
   71        HC    1  MOL     H71    71   0.0600000    1.0080
   72        HC    1  MOL     H72    72   0.0600000    1.0080
   73        HC    1  MOL     H73    73   0.0600000    1.0080
   74        CT    1  MOL     C74    74  -0.1200000   12.0115
   75        CT    1  MOL     C75    75  -0.0600000   12.0115
   76        CT    1  MOL     C76    76  -0.1800000   12.0115
   77        HC    1  MOL     H77    77   0.0600000    1.0080
   78        HC    1  MOL     H78    78   0.0600000    1.0080
   79        HC    1  MOL     H79    79   0.0600000    1.0080
   80        HC    1  MOL     H80    80   0.0600000    1.0080
   81        HC    1  MOL     H81    81   0.0600000    1.0080
   82        HC    1  MOL     H82    82   0.0600000    1.0080
   83        CT    1  MOL     C83    83  -0.1200000   12.0115
   84        CT    1  MOL     C84    84  -0.0600000   12.0115
   85        CT    1  MOL     C85    85  -0.1800000   12.0115
   86        HC    1  MOL     H86    86   0.0600000    1.0080
   87        HC    1  MOL     H87    87   0.0600000    1.0080
   88        HC    1  MOL     H88    88   0.0600000    1.0080
   89        HC    1  MOL     H89    89   0.0600000    1.0080
   90        HC    1  MOL     H90    90   0.0600000    1.0080
   91        HC    1  MOL     H91    91   0.0600000    1.0080
   92        CT    1  MOL     C92    92  -0.1200000   12.0115
   93        CT    1  MOL     C93    93  -0.0600000   12.0115
   94        CT    1  MOL     C94    94  -0.1800000   12.0115
   95        HC    1  MOL     H95    95   0.0600000    1.0080
   96        HC    1  MOL     H96    96   0.0600000    1.0080
   97        HC    1  MOL     H97    97   0.0600000    1.0080
   98        HC    1  MOL     H98    98   0.0600000    1.0080
   99        HC    1  MOL     H99    99   0.0600000    1.0080
  100        HC    1  MOL    H100   100   0.0600000    1.0080
  101        CT    1  MOL    C101   101  -0.1200000   12.0115
  102        CT    1  MOL    C102   102  -0.0600000   12.0115
  103        CT    1  MOL    C103   103  -0.1800000   12.0115
  104        HC    1  MOL    H104   104   0.0600000    1.0080
  105        HC    1  MOL    H105   105   0.0600000    1.0080
  106        HC    1  MOL    H106   106   0.0600000    1.0080
  107        HC    1  MOL    H107   107   0.0600000    1.0080
  108        HC    1  MOL    H108   108   0.0600000    1.0080
  109        HC    1  MOL    H109   109   0.0600000    1.0080
  110        CT    1  MOL    C110   110  -0.1200000   12.0115
  111        CT    1  MOL    C111   111  -0.0600000   12.0115
  112        CT    1  MOL    C112   112  -0.1800000   12.0115
  113        HC    1  MOL    H113   113   0.0600000    1.0080
  114        HC    1  MOL    H114   114   0.0600000    1.0080
  115        HC    1  MOL    H115   115   0.0600000    1.0080
  116        HC    1  MOL    H116   116   0.0600000    1.0080
  117        HC    1  MOL    H117   117   0.0600000    1.0080
  118        HC    1  MOL    H118   118   0.0600000    1.0080
  119        CT    1  MOL    C119   119  -0.1200000   12.0115
  120        CT    1  MOL    C120   120  -0.0600000   12.0115
  121        CT    1  MOL    C121   121  -0.1800000   12.0115
  122        HC    1  MOL    H122   122   0.0600000    1.0080
  123        HC    1  MOL    H123   123   0.0600000    1.0080
  124        HC    1  MOL    H124   124   0.0600000    1.0080
  125        HC    1  MOL    H125   125   0.0600000    1.0080
  126        HC    1  MOL    H126   126   0.0600000    1.0080
  127        HC    1  MOL    H127   127   0.0600000    1.0080
  128        CT    1  MOL    C128   128  -0.1200000   12.0115
  129        CT    1  MOL    C129   129  -0.0600000   12.0115
  130        CT    1  MOL    C130   130  -0.1800000   12.0115
  131        HC    1  MOL    H131   131   0.0600000    1.0080
  132        HC    1  MOL    H132   132   0.0600000    1.0080
  133        HC    1  MOL    H133   133   0.0600000    1.0080
  134        HC    1  MOL    H134   134   0.0600000    1.0080
  135        HC    1  MOL    H135   135   0.0600000    1.0080
  136        HC    1  MOL    H136   136   0.0600000    1.0080
  137        CT    1  MOL    C137   137  -0.1200000   12.0115
  138        CT    1  MOL    C138   138  -0.0600000   12.0115
  139        CT    1  MOL    C139   139  -0.1800000   12.0115
  140        HC    1  MOL    H140   140   0.0600000    1.0080
  141        HC    1  MOL    H141   141   0.0600000    1.0080
  142        HC    1  MOL    H142   142   0.0600000    1.0080
  143        HC    1  MOL    H143   143   0.0600000    1.0080
  144        HC    1  MOL    H144   144   0.0600000    1.0080
  145        HC    1  MOL    H145   145   0.0600000    1.0080
  146        CT    1  MOL    C146   146  -0.1200000   12.0115
  147        CT    1  MOL    C147   147  -0.0600000   12.0115
  148        CT    1  MOL    C148   148  -0.1800000   12.0115
  149        HC    1  MOL    H149   149   0.0600000    1.0080
  150        HC    1  MOL    H150   150   0.0600000    1.0080
  151        HC    1  MOL    H151   151   0.0600000    1.0080
  152        HC    1  MOL    H152   152   0.0600000    1.0080
  153        HC    1  MOL    H153   153   0.0600000    1.0080
  154        HC    1  MOL    H154   154   0.0600000    1.0080
  155        CT    1  MOL    C155   155  -0.1200000   12.0115
  156        CT    1  MOL    C156   156  -0.0600000   12.0115
  157        CT    1  MOL    C157   157  -0.1800000   12.0115
  158        HC    1  MOL    H158   158   0.0600000    1.0080
  159        HC    1  MOL    H159   159   0.0600000    1.0080
  160        HC    1  MOL    H160   160   0.0600000    1.0080
  161        HC    1  MOL    H161   161   0.0600000    1.0080
  162        HC    1  MOL    H162   162   0.0600000    1.0080
  163        HC    1  MOL    H163   163   0.0600000    1.0080
  164        CT    1  MOL    C164   164  -0.1200000   12.0115
  165        CT    1  MOL    C165   165  -0.0600000   12.0115
  166        CT    1  MOL    C166   166  -0.1800000   12.0115
  167        HC    1  MOL    H167   167   0.0600000    1.0080
  168        HC    1  MOL    H168   168   0.0600000    1.0080
  169        HC    1  MOL    H169   169   0.0600000    1.0080
  170        HC    1  MOL    H170   170   0.0600000    1.0080
  171        HC    1  MOL    H171   171   0.0600000    1.0080
  172        HC    1  MOL    H172   172   0.0600000    1.0080
  173        CT    1  MOL    C173   173  -0.1200000   12.0115
  174        CT    1  MOL    C174   174  -0.1200000   12.0115
  175        CT    1  MOL    C175   175  -0.1800000   12.0115
  176        HC    1  MOL    H176   176   0.0600000    1.0080
  177        HC    1  MOL    H177   177   0.0600000    1.0080
  178        HC    1  MOL    H178   178   0.0600000    1.0080
  179        HC    1  MOL    H179   179   0.0600000    1.0080
  180        HC    1  MOL    H180   180   0.0600000    1.0080
  181        HC    1  MOL    H181   181   0.0600000    1.0080
  182        HC    1  MOL    H182   182   0.0600000    1.0080

[ bonds ]
      1      2   1      0.1529 224262.4000
      1      4   1      0.1090 284512.0000
      1      5   1      0.1090 284512.0000
      1     10   1      0.1090 284512.0000
      2      3   1      0.1529 224262.4000
      2      6   1      0.1090 284512.0000
      2     11   1      0.1529 224262.4000
      3      7   1      0.1090 284512.0000
      3      8   1      0.1090 284512.0000
      3      9   1      0.1090 284512.0000
     11     12   1      0.1529 224262.4000
     11     14   1      0.1090 284512.0000
     11     15   1      0.1090 284512.0000
     12     13   1      0.1529 224262.4000
     12     16   1      0.1090 284512.0000
     12     20   1      0.1529 224262.4000
     13     17   1      0.1090 284512.0000
     13     18   1      0.1090 284512.0000
     13     19   1      0.1090 284512.0000
     20     21   1      0.1529 224262.4000
     20     23   1      0.1090 284512.0000
     20     24   1      0.1090 284512.0000
     21     22   1      0.1529 224262.4000
     21     25   1      0.1090 284512.0000
     21     29   1      0.1529 224262.4000
     22     26   1      0.1090 284512.0000
     22     27   1      0.1090 284512.0000
     22     28   1      0.1090 284512.0000
     29     30   1      0.1529 224262.4000
     29     32   1      0.1090 284512.0000
     29     33   1      0.1090 284512.0000
     30     31   1      0.1529 224262.4000
     30     34   1      0.1090 284512.0000
     30     38   1      0.1529 224262.4000
     31     35   1      0.1090 284512.0000
     31     36   1      0.1090 284512.0000
     31     37   1      0.1090 284512.0000
     38     39   1      0.1529 224262.4000
     38     41   1      0.1090 284512.0000
     38     42   1      0.1090 284512.0000
     39     40   1      0.1529 224262.4000
     39     43   1      0.1090 284512.0000
     39     47   1      0.1529 224262.4000
     40     44   1      0.1090 284512.0000
     40     45   1      0.1090 284512.0000
     40     46   1      0.1090 284512.0000
     47     48   1      0.1529 224262.4000
     47     50   1      0.1090 284512.0000
     47     51   1      0.1090 284512.0000
     48     49   1      0.1529 224262.4000
     48     52   1      0.1090 284512.0000
     48     56   1      0.1529 224262.4000
     49     53   1      0.1090 284512.0000
     49     54   1      0.1090 284512.0000
     49     55   1      0.1090 284512.0000
     56     57   1      0.1529 224262.4000
     56     59   1      0.1090 284512.0000
     56     60   1      0.1090 284512.0000
     57     58   1      0.1529 224262.4000
     57     61   1      0.1090 284512.0000
     57     65   1      0.1529 224262.4000
     58     62   1      0.1090 284512.0000
     58     63   1      0.1090 284512.0000
     58     64   1      0.1090 284512.0000
     65     66   1      0.1529 224262.4000
     65     68   1      0.1090 284512.0000
     65     69   1      0.1090 284512.0000
     66     67   1      0.1529 224262.4000
     66     70   1      0.1090 284512.0000
     66     74   1      0.1529 224262.4000
     67     71   1      0.1090 284512.0000
     67     72   1      0.1090 284512.0000
     67     73   1      0.1090 284512.0000
     74     75   1      0.1529 224262.4000
     74     77   1      0.1090 284512.0000
     74     78   1      0.1090 284512.0000
     75     76   1      0.1529 224262.4000
     75     79   1      0.1090 284512.0000
     75     83   1      0.1529 224262.4000
     76     80   1      0.1090 284512.0000
     76     81   1      0.1090 284512.0000
     76     82   1      0.1090 284512.0000
     83     84   1      0.1529 224262.4000
     83     86   1      0.1090 284512.0000
     83     87   1      0.1090 284512.0000
     84     85   1      0.1529 224262.4000
     84     88   1      0.1090 284512.0000
     84     92   1      0.1529 224262.4000
     85     89   1      0.1090 284512.0000
     85     90   1      0.1090 284512.0000
     85     91   1      0.1090 284512.0000
     92     93   1      0.1529 224262.4000
     92     95   1      0.1090 284512.0000
     92     96   1      0.1090 284512.0000
     93     94   1      0.1529 224262.4000
     93     97   1      0.1090 284512.0000
     93    101   1      0.1529 224262.4000
     94     98   1      0.1090 284512.0000
     94     99   1      0.1090 284512.0000
     94    100   1      0.1090 284512.0000
    101    102   1      0.1529 224262.4000
    101    104   1      0.1090 284512.0000
    101    105   1      0.1090 284512.0000
    102    103   1      0.1529 224262.4000
    102    106   1      0.1090 284512.0000
    102    110   1      0.1529 224262.4000
    103    107   1      0.1090 284512.0000
    103    108   1      0.1090 284512.0000
    103    109   1      0.1090 284512.0000
    110    111   1      0.1529 224262.4000
    110    113   1      0.1090 284512.0000
    110    114   1      0.1090 284512.0000
    111    112   1      0.1529 224262.4000
    111    115   1      0.1090 284512.0000
    111    119   1      0.1529 224262.4000
    112    116   1      0.1090 284512.0000
    112    117   1      0.1090 284512.0000
    112    118   1      0.1090 284512.0000
    119    120   1      0.1529 224262.4000
    119    122   1      0.1090 284512.0000
    119    123   1      0.1090 284512.0000
    120    121   1      0.1529 224262.4000
    120    124   1      0.1090 284512.0000
    120    128   1      0.1529 224262.4000
    121    125   1      0.1090 284512.0000
    121    126   1      0.1090 284512.0000
    121    127   1      0.1090 284512.0000
    128    129   1      0.1529 224262.4000
    128    131   1      0.1090 284512.0000
    128    132   1      0.1090 284512.0000
    129    130   1      0.1529 224262.4000
    129    133   1      0.1090 284512.0000
    129    137   1      0.1529 224262.4000
    130    134   1      0.1090 284512.0000
    130    135   1      0.1090 284512.0000
    130    136   1      0.1090 284512.0000
    137    138   1      0.1529 224262.4000
    137    140   1      0.1090 284512.0000
    137    141   1      0.1090 284512.0000
    138    139   1      0.1529 224262.4000
    138    142   1      0.1090 284512.0000
    138    146   1      0.1529 224262.4000
    139    143   1      0.1090 284512.0000
    139    144   1      0.1090 284512.0000
    139    145   1      0.1090 284512.0000
    146    147   1      0.1529 224262.4000
    146    149   1      0.1090 284512.0000
    146    150   1      0.1090 284512.0000
    147    148   1      0.1529 224262.4000
    147    151   1      0.1090 284512.0000
    147    155   1      0.1529 224262.4000
    148    152   1      0.1090 284512.0000
    148    153   1      0.1090 284512.0000
    148    154   1      0.1090 284512.0000
    155    156   1      0.1529 224262.4000
    155    158   1      0.1090 284512.0000
    155    159   1      0.1090 284512.0000
    156    157   1      0.1529 224262.4000
    156    160   1      0.1090 284512.0000
    156    164   1      0.1529 224262.4000
    157    161   1      0.1090 284512.0000
    157    162   1      0.1090 284512.0000
    157    163   1      0.1090 284512.0000
    164    165   1      0.1529 224262.4000
    164    167   1      0.1090 284512.0000
    164    168   1      0.1090 284512.0000
    165    166   1      0.1529 224262.4000
    165    169   1      0.1090 284512.0000
    165    173   1      0.1529 224262.4000
    166    170   1      0.1090 284512.0000
    166    171   1      0.1090 284512.0000
    166    172   1      0.1090 284512.0000
    173    174   1      0.1529 224262.4000
    173    176   1      0.1090 284512.0000
    173    177   1      0.1090 284512.0000
    174    175   1      0.1529 224262.4000
    174    178   1      0.1090 284512.0000
    174    182   1      0.1090 284512.0000
    175    179   1      0.1090 284512.0000
    175    180   1      0.1090 284512.0000
    175    181   1      0.1090 284512.0000

[ pairs ]
; ai   aj   funct   fudge_QQ  charge_i   charge_j   c6    c12
      4      3   2   0.50000     0.0600000   -0.1800000   2.494471e-04  1.671101e-07
      4      6   2   0.50000     0.0600000    0.0600000   6.128906e-05  1.496315e-08
      4     11   2   0.50000     0.0600000   -0.1200000   2.494471e-04  1.671101e-07
      5      3   2   0.50000     0.0600000   -0.1800000   2.494471e-04  1.671101e-07
      5      6   2   0.50000     0.0600000    0.0600000   6.128906e-05  1.496315e-08
      5     11   2   0.50000     0.0600000   -0.1200000   2.494471e-04  1.671101e-07
     10      3   2   0.50000     0.0600000   -0.1800000   2.494471e-04  1.671101e-07
     10      6   2   0.50000     0.0600000    0.0600000   6.128906e-05  1.496315e-08
     10     11   2   0.50000     0.0600000   -0.1200000   2.494471e-04  1.671101e-07
      1      7   2   0.50000    -0.1800000    0.0600000   2.494471e-04  1.671101e-07
      1      8   2   0.50000    -0.1800000    0.0600000   2.494471e-04  1.671101e-07
      1      9   2   0.50000    -0.1800000    0.0600000   2.494471e-04  1.671101e-07
      6      7   2   0.50000     0.0600000    0.0600000   6.128906e-05  1.496315e-08
      6      8   2   0.50000     0.0600000    0.0600000   6.128906e-05  1.496315e-08
      6      9   2   0.50000     0.0600000    0.0600000   6.128906e-05  1.496315e-08
     11      7   2   0.50000    -0.1200000    0.0600000   2.494471e-04  1.671101e-07
     11      8   2   0.50000    -0.1200000    0.0600000   2.494471e-04  1.671101e-07
     11      9   2   0.50000    -0.1200000    0.0600000   2.494471e-04  1.671101e-07
      1     12   2   0.50000    -0.1800000   -0.0600000   1.015252e-03  1.866303e-06
      1     14   2   0.50000    -0.1800000    0.0600000   2.494471e-04  1.671101e-07
      1     15   2   0.50000    -0.1800000    0.0600000   2.494471e-04  1.671101e-07
      3     12   2   0.50000    -0.1800000   -0.0600000   1.015252e-03  1.866303e-06
      3     14   2   0.50000    -0.1800000    0.0600000   2.494471e-04  1.671101e-07
      3     15   2   0.50000    -0.1800000    0.0600000   2.494471e-04  1.671101e-07
      6     12   2   0.50000     0.0600000   -0.0600000   2.494471e-04  1.671101e-07
      6     14   2   0.50000     0.0600000    0.0600000   6.128906e-05  1.496315e-08
      6     15   2   0.50000     0.0600000    0.0600000   6.128906e-05  1.496315e-08
      2     13   2   0.50000    -0.0600000   -0.1800000   1.015252e-03  1.866303e-06
      2     16   2   0.50000    -0.0600000    0.0600000   2.494471e-04  1.671101e-07
      2     20   2   0.50000    -0.0600000   -0.1200000   1.015252e-03  1.866303e-06
     14     13   2   0.50000     0.0600000   -0.1800000   2.494471e-04  1.671101e-07
     14     16   2   0.50000     0.0600000    0.0600000   6.128906e-05  1.496315e-08
     14     20   2   0.50000     0.0600000   -0.1200000   2.494471e-04  1.671101e-07
     15     13   2   0.50000     0.0600000   -0.1800000   2.494471e-04  1.671101e-07
     15     16   2   0.50000     0.0600000    0.0600000   6.128906e-05  1.496315e-08
     15     20   2   0.50000     0.0600000   -0.1200000   2.494471e-04  1.671101e-07
     11     17   2   0.50000    -0.1200000    0.0600000   2.494471e-04  1.671101e-07
     11     18   2   0.50000    -0.1200000    0.0600000   2.494471e-04  1.671101e-07
     11     19   2   0.50000    -0.1200000    0.0600000   2.494471e-04  1.671101e-07
     16     17   2   0.50000     0.0600000    0.0600000   6.128906e-05  1.496315e-08
     16     18   2   0.50000     0.0600000    0.0600000   6.128906e-05  1.496315e-08
     16     19   2   0.50000     0.0600000    0.0600000   6.128906e-05  1.496315e-08
     20     17   2   0.50000    -0.1200000    0.0600000   2.494471e-04  1.671101e-07
     20     18   2   0.50000    -0.1200000    0.0600000   2.494471e-04  1.671101e-07
     20     19   2   0.50000    -0.1200000    0.0600000   2.494471e-04  1.671101e-07
     11     21   2   0.50000    -0.1200000   -0.0600000   1.015252e-03  1.866303e-06
     11     23   2   0.50000    -0.1200000    0.0600000   2.494471e-04  1.671101e-07
     11     24   2   0.50000    -0.1200000    0.0600000   2.494471e-04  1.671101e-07
     13     21   2   0.50000    -0.1800000   -0.0600000   1.015252e-03  1.866303e-06
     13     23   2   0.50000    -0.1800000    0.0600000   2.494471e-04  1.671101e-07
     13     24   2   0.50000    -0.1800000    0.0600000   2.494471e-04  1.671101e-07
     16     21   2   0.50000     0.0600000   -0.0600000   2.494471e-04  1.671101e-07
     16     23   2   0.50000     0.0600000    0.0600000   6.128906e-05  1.496315e-08
     16     24   2   0.50000     0.0600000    0.0600000   6.128906e-05  1.496315e-08
     12     22   2   0.50000    -0.0600000   -0.1800000   1.015252e-03  1.866303e-06
     12     25   2   0.50000    -0.0600000    0.0600000   2.494471e-04  1.671101e-07
     12     29   2   0.50000    -0.0600000   -0.1200000   1.015252e-03  1.866303e-06
     23     22   2   0.50000     0.0600000   -0.1800000   2.494471e-04  1.671101e-07
     23     25   2   0.50000     0.0600000    0.0600000   6.128906e-05  1.496315e-08
     23     29   2   0.50000     0.0600000   -0.1200000   2.494471e-04  1.671101e-07
     24     22   2   0.50000     0.0600000   -0.1800000   2.494471e-04  1.671101e-07
     24     25   2   0.50000     0.0600000    0.0600000   6.128906e-05  1.496315e-08
     24     29   2   0.50000     0.0600000   -0.1200000   2.494471e-04  1.671101e-07
     20     26   2   0.50000    -0.1200000    0.0600000   2.494471e-04  1.671101e-07
     20     27   2   0.50000    -0.1200000    0.0600000   2.494471e-04  1.671101e-07
     20     28   2   0.50000    -0.1200000    0.0600000   2.494471e-04  1.671101e-07
     25     26   2   0.50000     0.0600000    0.0600000   6.128906e-05  1.496315e-08
     25     27   2   0.50000     0.0600000    0.0600000   6.128906e-05  1.496315e-08
     25     28   2   0.50000     0.0600000    0.0600000   6.128906e-05  1.496315e-08
     29     26   2   0.50000    -0.1200000    0.0600000   2.494471e-04  1.671101e-07
     29     27   2   0.50000    -0.1200000    0.0600000   2.494471e-04  1.671101e-07
     29     28   2   0.50000    -0.1200000    0.0600000   2.494471e-04  1.671101e-07
     20     30   2   0.50000    -0.1200000   -0.0600000   1.015252e-03  1.866303e-06
     20     32   2   0.50000    -0.1200000    0.0600000   2.494471e-04  1.671101e-07
     20     33   2   0.50000    -0.1200000    0.0600000   2.494471e-04  1.671101e-07
     22     30   2   0.50000    -0.1800000   -0.0600000   1.015252e-03  1.866303e-06
     22     32   2   0.50000    -0.1800000    0.0600000   2.494471e-04  1.671101e-07
     22     33   2   0.50000    -0.1800000    0.0600000   2.494471e-04  1.671101e-07
     25     30   2   0.50000     0.0600000   -0.0600000   2.494471e-04  1.671101e-07
     25     32   2   0.50000     0.0600000    0.0600000   6.128906e-05  1.496315e-08
     25     33   2   0.50000     0.0600000    0.0600000   6.128906e-05  1.496315e-08
     21     31   2   0.50000    -0.0600000   -0.1800000   1.015252e-03  1.866303e-06
     21     34   2   0.50000    -0.0600000    0.0600000   2.494471e-04  1.671101e-07
     21     38   2   0.50000    -0.0600000   -0.1200000   1.015252e-03  1.866303e-06
     32     31   2   0.50000     0.0600000   -0.1800000   2.494471e-04  1.671101e-07
     32     34   2   0.50000     0.0600000    0.0600000   6.128906e-05  1.496315e-08
     32     38   2   0.50000     0.0600000   -0.1200000   2.494471e-04  1.671101e-07
     33     31   2   0.50000     0.0600000   -0.1800000   2.494471e-04  1.671101e-07
     33     34   2   0.50000     0.0600000    0.0600000   6.128906e-05  1.496315e-08
     33     38   2   0.50000     0.0600000   -0.1200000   2.494471e-04  1.671101e-07
     29     35   2   0.50000    -0.1200000    0.0600000   2.494471e-04  1.671101e-07
     29     36   2   0.50000    -0.1200000    0.0600000   2.494471e-04  1.671101e-07
     29     37   2   0.50000    -0.1200000    0.0600000   2.494471e-04  1.671101e-07
     34     35   2   0.50000     0.0600000    0.0600000   6.128906e-05  1.496315e-08
     34     36   2   0.50000     0.0600000    0.0600000   6.128906e-05  1.496315e-08
     34     37   2   0.50000     0.0600000    0.0600000   6.128906e-05  1.496315e-08
     38     35   2   0.50000    -0.1200000    0.0600000   2.494471e-04  1.671101e-07
     38     36   2   0.50000    -0.1200000    0.0600000   2.494471e-04  1.671101e-07
     38     37   2   0.50000    -0.1200000    0.0600000   2.494471e-04  1.671101e-07
     29     39   2   0.50000    -0.1200000   -0.0600000   1.015252e-03  1.866303e-06
     29     41   2   0.50000    -0.1200000    0.0600000   2.494471e-04  1.671101e-07
     29     42   2   0.50000    -0.1200000    0.0600000   2.494471e-04  1.671101e-07
     31     39   2   0.50000    -0.1800000   -0.0600000   1.015252e-03  1.866303e-06
     31     41   2   0.50000    -0.1800000    0.0600000   2.494471e-04  1.671101e-07
     31     42   2   0.50000    -0.1800000    0.0600000   2.494471e-04  1.671101e-07
     34     39   2   0.50000     0.0600000   -0.0600000   2.494471e-04  1.671101e-07
     34     41   2   0.50000     0.0600000    0.0600000   6.128906e-05  1.496315e-08
     34     42   2   0.50000     0.0600000    0.0600000   6.128906e-05  1.496315e-08
     30     40   2   0.50000    -0.0600000   -0.1800000   1.015252e-03  1.866303e-06
     30     43   2   0.50000    -0.0600000    0.0600000   2.494471e-04  1.671101e-07
     30     47   2   0.50000    -0.0600000   -0.1200000   1.015252e-03  1.866303e-06
     41     40   2   0.50000     0.0600000   -0.1800000   2.494471e-04  1.671101e-07
     41     43   2   0.50000     0.0600000    0.0600000   6.128906e-05  1.496315e-08
     41     47   2   0.50000     0.0600000   -0.1200000   2.494471e-04  1.671101e-07
     42     40   2   0.50000     0.0600000   -0.1800000   2.494471e-04  1.671101e-07
     42     43   2   0.50000     0.0600000    0.0600000   6.128906e-05  1.496315e-08
     42     47   2   0.50000     0.0600000   -0.1200000   2.494471e-04  1.671101e-07
     38     44   2   0.50000    -0.1200000    0.0600000   2.494471e-04  1.671101e-07
     38     45   2   0.50000    -0.1200000    0.0600000   2.494471e-04  1.671101e-07
     38     46   2   0.50000    -0.1200000    0.0600000   2.494471e-04  1.671101e-07
     43     44   2   0.50000     0.0600000    0.0600000   6.128906e-05  1.496315e-08
     43     45   2   0.50000     0.0600000    0.0600000   6.128906e-05  1.496315e-08
     43     46   2   0.50000     0.0600000    0.0600000   6.128906e-05  1.496315e-08
     47     44   2   0.50000    -0.1200000    0.0600000   2.494471e-04  1.671101e-07
     47     45   2   0.50000    -0.1200000    0.0600000   2.494471e-04  1.671101e-07
     47     46   2   0.50000    -0.1200000    0.0600000   2.494471e-04  1.671101e-07
     38     48   2   0.50000    -0.1200000   -0.0600000   1.015252e-03  1.866303e-06
     38     50   2   0.50000    -0.1200000    0.0600000   2.494471e-04  1.671101e-07
     38     51   2   0.50000    -0.1200000    0.0600000   2.494471e-04  1.671101e-07
     40     48   2   0.50000    -0.1800000   -0.0600000   1.015252e-03  1.866303e-06
     40     50   2   0.50000    -0.1800000    0.0600000   2.494471e-04  1.671101e-07
     40     51   2   0.50000    -0.1800000    0.0600000   2.494471e-04  1.671101e-07
     43     48   2   0.50000     0.0600000   -0.0600000   2.494471e-04  1.671101e-07
     43     50   2   0.50000     0.0600000    0.0600000   6.128906e-05  1.496315e-08
     43     51   2   0.50000     0.0600000    0.0600000   6.128906e-05  1.496315e-08
     39     49   2   0.50000    -0.0600000   -0.1800000   1.015252e-03  1.866303e-06
     39     52   2   0.50000    -0.0600000    0.0600000   2.494471e-04  1.671101e-07
     39     56   2   0.50000    -0.0600000   -0.1200000   1.015252e-03  1.866303e-06
     50     49   2   0.50000     0.0600000   -0.1800000   2.494471e-04  1.671101e-07
     50     52   2   0.50000     0.0600000    0.0600000   6.128906e-05  1.496315e-08
     50     56   2   0.50000     0.0600000   -0.1200000   2.494471e-04  1.671101e-07
     51     49   2   0.50000     0.0600000   -0.1800000   2.494471e-04  1.671101e-07
     51     52   2   0.50000     0.0600000    0.0600000   6.128906e-05  1.496315e-08
     51     56   2   0.50000     0.0600000   -0.1200000   2.494471e-04  1.671101e-07
     47     53   2   0.50000    -0.1200000    0.0600000   2.494471e-04  1.671101e-07
     47     54   2   0.50000    -0.1200000    0.0600000   2.494471e-04  1.671101e-07
     47     55   2   0.50000    -0.1200000    0.0600000   2.494471e-04  1.671101e-07
     52     53   2   0.50000     0.0600000    0.0600000   6.128906e-05  1.496315e-08
     52     54   2   0.50000     0.0600000    0.0600000   6.128906e-05  1.496315e-08
     52     55   2   0.50000     0.0600000    0.0600000   6.128906e-05  1.496315e-08
     56     53   2   0.50000    -0.1200000    0.0600000   2.494471e-04  1.671101e-07
     56     54   2   0.50000    -0.1200000    0.0600000   2.494471e-04  1.671101e-07
     56     55   2   0.50000    -0.1200000    0.0600000   2.494471e-04  1.671101e-07
     47     57   2   0.50000    -0.1200000   -0.0600000   1.015252e-03  1.866303e-06
     47     59   2   0.50000    -0.1200000    0.0600000   2.494471e-04  1.671101e-07
     47     60   2   0.50000    -0.1200000    0.0600000   2.494471e-04  1.671101e-07
     49     57   2   0.50000    -0.1800000   -0.0600000   1.015252e-03  1.866303e-06
     49     59   2   0.50000    -0.1800000    0.0600000   2.494471e-04  1.671101e-07
     49     60   2   0.50000    -0.1800000    0.0600000   2.494471e-04  1.671101e-07
     52     57   2   0.50000     0.0600000   -0.0600000   2.494471e-04  1.671101e-07
     52     59   2   0.50000     0.0600000    0.0600000   6.128906e-05  1.496315e-08
     52     60   2   0.50000     0.0600000    0.0600000   6.128906e-05  1.496315e-08
     48     58   2   0.50000    -0.0600000   -0.1800000   1.015252e-03  1.866303e-06
     48     61   2   0.50000    -0.0600000    0.0600000   2.494471e-04  1.671101e-07
     48     65   2   0.50000    -0.0600000   -0.1200000   1.015252e-03  1.866303e-06
     59     58   2   0.50000     0.0600000   -0.1800000   2.494471e-04  1.671101e-07
     59     61   2   0.50000     0.0600000    0.0600000   6.128906e-05  1.496315e-08
     59     65   2   0.50000     0.0600000   -0.1200000   2.494471e-04  1.671101e-07
     60     58   2   0.50000     0.0600000   -0.1800000   2.494471e-04  1.671101e-07
     60     61   2   0.50000     0.0600000    0.0600000   6.128906e-05  1.496315e-08
     60     65   2   0.50000     0.0600000   -0.1200000   2.494471e-04  1.671101e-07
     56     62   2   0.50000    -0.1200000    0.0600000   2.494471e-04  1.671101e-07
     56     63   2   0.50000    -0.1200000    0.0600000   2.494471e-04  1.671101e-07
     56     64   2   0.50000    -0.1200000    0.0600000   2.494471e-04  1.671101e-07
     61     62   2   0.50000     0.0600000    0.0600000   6.128906e-05  1.496315e-08
     61     63   2   0.50000     0.0600000    0.0600000   6.128906e-05  1.496315e-08
     61     64   2   0.50000     0.0600000    0.0600000   6.128906e-05  1.496315e-08
     65     62   2   0.50000    -0.1200000    0.0600000   2.494471e-04  1.671101e-07
     65     63   2   0.50000    -0.1200000    0.0600000   2.494471e-04  1.671101e-07
     65     64   2   0.50000    -0.1200000    0.0600000   2.494471e-04  1.671101e-07
     56     66   2   0.50000    -0.1200000   -0.0600000   1.015252e-03  1.866303e-06
     56     68   2   0.50000    -0.1200000    0.0600000   2.494471e-04  1.671101e-07
     56     69   2   0.50000    -0.1200000    0.0600000   2.494471e-04  1.671101e-07
     58     66   2   0.50000    -0.1800000   -0.0600000   1.015252e-03  1.866303e-06
     58     68   2   0.50000    -0.1800000    0.0600000   2.494471e-04  1.671101e-07
     58     69   2   0.50000    -0.1800000    0.0600000   2.494471e-04  1.671101e-07
     61     66   2   0.50000     0.0600000   -0.0600000   2.494471e-04  1.671101e-07
     61     68   2   0.50000     0.0600000    0.0600000   6.128906e-05  1.496315e-08
     61     69   2   0.50000     0.0600000    0.0600000   6.128906e-05  1.496315e-08
     57     67   2   0.50000    -0.0600000   -0.1800000   1.015252e-03  1.866303e-06
     57     70   2   0.50000    -0.0600000    0.0600000   2.494471e-04  1.671101e-07
     57     74   2   0.50000    -0.0600000   -0.1200000   1.015252e-03  1.866303e-06
     68     67   2   0.50000     0.0600000   -0.1800000   2.494471e-04  1.671101e-07
     68     70   2   0.50000     0.0600000    0.0600000   6.128906e-05  1.496315e-08
     68     74   2   0.50000     0.0600000   -0.1200000   2.494471e-04  1.671101e-07
     69     67   2   0.50000     0.0600000   -0.1800000   2.494471e-04  1.671101e-07
     69     70   2   0.50000     0.0600000    0.0600000   6.128906e-05  1.496315e-08
     69     74   2   0.50000     0.0600000   -0.1200000   2.494471e-04  1.671101e-07
     65     71   2   0.50000    -0.1200000    0.0600000   2.494471e-04  1.671101e-07
     65     72   2   0.50000    -0.1200000    0.0600000   2.494471e-04  1.671101e-07
     65     73   2   0.50000    -0.1200000    0.0600000   2.494471e-04  1.671101e-07
     70     71   2   0.50000     0.0600000    0.0600000   6.128906e-05  1.496315e-08
     70     72   2   0.50000     0.0600000    0.0600000   6.128906e-05  1.496315e-08
     70     73   2   0.50000     0.0600000    0.0600000   6.128906e-05  1.496315e-08
     74     71   2   0.50000    -0.1200000    0.0600000   2.494471e-04  1.671101e-07
     74     72   2   0.50000    -0.1200000    0.0600000   2.494471e-04  1.671101e-07
     74     73   2   0.50000    -0.1200000    0.0600000   2.494471e-04  1.671101e-07
     65     75   2   0.50000    -0.1200000   -0.0600000   1.015252e-03  1.866303e-06
     65     77   2   0.50000    -0.1200000    0.0600000   2.494471e-04  1.671101e-07
     65     78   2   0.50000    -0.1200000    0.0600000   2.494471e-04  1.671101e-07
     67     75   2   0.50000    -0.1800000   -0.0600000   1.015252e-03  1.866303e-06
     67     77   2   0.50000    -0.1800000    0.0600000   2.494471e-04  1.671101e-07
     67     78   2   0.50000    -0.1800000    0.0600000   2.494471e-04  1.671101e-07
     70     75   2   0.50000     0.0600000   -0.0600000   2.494471e-04  1.671101e-07
     70     77   2   0.50000     0.0600000    0.0600000   6.128906e-05  1.496315e-08
     70     78   2   0.50000     0.0600000    0.0600000   6.128906e-05  1.496315e-08
     66     76   2   0.50000    -0.0600000   -0.1800000   1.015252e-03  1.866303e-06
     66     79   2   0.50000    -0.0600000    0.0600000   2.494471e-04  1.671101e-07
     66     83   2   0.50000    -0.0600000   -0.1200000   1.015252e-03  1.866303e-06
     77     76   2   0.50000     0.0600000   -0.1800000   2.494471e-04  1.671101e-07
     77     79   2   0.50000     0.0600000    0.0600000   6.128906e-05  1.496315e-08
     77     83   2   0.50000     0.0600000   -0.1200000   2.494471e-04  1.671101e-07
     78     76   2   0.50000     0.0600000   -0.1800000   2.494471e-04  1.671101e-07
     78     79   2   0.50000     0.0600000    0.0600000   6.128906e-05  1.496315e-08
     78     83   2   0.50000     0.0600000   -0.1200000   2.494471e-04  1.671101e-07
     74     80   2   0.50000    -0.1200000    0.0600000   2.494471e-04  1.671101e-07
     74     81   2   0.50000    -0.1200000    0.0600000   2.494471e-04  1.671101e-07
     74     82   2   0.50000    -0.1200000    0.0600000   2.494471e-04  1.671101e-07
     79     80   2   0.50000     0.0600000    0.0600000   6.128906e-05  1.496315e-08
     79     81   2   0.50000     0.0600000    0.0600000   6.128906e-05  1.496315e-08
     79     82   2   0.50000     0.0600000    0.0600000   6.128906e-05  1.496315e-08
     83     80   2   0.50000    -0.1200000    0.0600000   2.494471e-04  1.671101e-07
     83     81   2   0.50000    -0.1200000    0.0600000   2.494471e-04  1.671101e-07
     83     82   2   0.50000    -0.1200000    0.0600000   2.494471e-04  1.671101e-07
     74     84   2   0.50000    -0.1200000   -0.0600000   1.015252e-03  1.866303e-06
     74     86   2   0.50000    -0.1200000    0.0600000   2.494471e-04  1.671101e-07
     74     87   2   0.50000    -0.1200000    0.0600000   2.494471e-04  1.671101e-07
     76     84   2   0.50000    -0.1800000   -0.0600000   1.015252e-03  1.866303e-06
     76     86   2   0.50000    -0.1800000    0.0600000   2.494471e-04  1.671101e-07
     76     87   2   0.50000    -0.1800000    0.0600000   2.494471e-04  1.671101e-07
     79     84   2   0.50000     0.0600000   -0.0600000   2.494471e-04  1.671101e-07
     79     86   2   0.50000     0.0600000    0.0600000   6.128906e-05  1.496315e-08
     79     87   2   0.50000     0.0600000    0.0600000   6.128906e-05  1.496315e-08
     75     85   2   0.50000    -0.0600000   -0.1800000   1.015252e-03  1.866303e-06
     75     88   2   0.50000    -0.0600000    0.0600000   2.494471e-04  1.671101e-07
     75     92   2   0.50000    -0.0600000   -0.1200000   1.015252e-03  1.866303e-06
     86     85   2   0.50000     0.0600000   -0.1800000   2.494471e-04  1.671101e-07
     86     88   2   0.50000     0.0600000    0.0600000   6.128906e-05  1.496315e-08
     86     92   2   0.50000     0.0600000   -0.1200000   2.494471e-04  1.671101e-07
     87     85   2   0.50000     0.0600000   -0.1800000   2.494471e-04  1.671101e-07
     87     88   2   0.50000     0.0600000    0.0600000   6.128906e-05  1.496315e-08
     87     92   2   0.50000     0.0600000   -0.1200000   2.494471e-04  1.671101e-07
     83     89   2   0.50000    -0.1200000    0.0600000   2.494471e-04  1.671101e-07
     83     90   2   0.50000    -0.1200000    0.0600000   2.494471e-04  1.671101e-07
     83     91   2   0.50000    -0.1200000    0.0600000   2.494471e-04  1.671101e-07
     88     89   2   0.50000     0.0600000    0.0600000   6.128906e-05  1.496315e-08
     88     90   2   0.50000     0.0600000    0.0600000   6.128906e-05  1.496315e-08
     88     91   2   0.50000     0.0600000    0.0600000   6.128906e-05  1.496315e-08
     92     89   2   0.50000    -0.1200000    0.0600000   2.494471e-04  1.671101e-07
     92     90   2   0.50000    -0.1200000    0.0600000   2.494471e-04  1.671101e-07
     92     91   2   0.50000    -0.1200000    0.0600000   2.494471e-04  1.671101e-07
     83     93   2   0.50000    -0.1200000   -0.0600000   1.015252e-03  1.866303e-06
     83     95   2   0.50000    -0.1200000    0.0600000   2.494471e-04  1.671101e-07
     83     96   2   0.50000    -0.1200000    0.0600000   2.494471e-04  1.671101e-07
     85     93   2   0.50000    -0.1800000   -0.0600000   1.015252e-03  1.866303e-06
     85     95   2   0.50000    -0.1800000    0.0600000   2.494471e-04  1.671101e-07
     85     96   2   0.50000    -0.1800000    0.0600000   2.494471e-04  1.671101e-07
     88     93   2   0.50000     0.0600000   -0.0600000   2.494471e-04  1.671101e-07
     88     95   2   0.50000     0.0600000    0.0600000   6.128906e-05  1.496315e-08
     88     96   2   0.50000     0.0600000    0.0600000   6.128906e-05  1.496315e-08
     84     94   2   0.50000    -0.0600000   -0.1800000   1.015252e-03  1.866303e-06
     84     97   2   0.50000    -0.0600000    0.0600000   2.494471e-04  1.671101e-07
     84    101   2   0.50000    -0.0600000   -0.1200000   1.015252e-03  1.866303e-06
     95     94   2   0.50000     0.0600000   -0.1800000   2.494471e-04  1.671101e-07
     95     97   2   0.50000     0.0600000    0.0600000   6.128906e-05  1.496315e-08
     95    101   2   0.50000     0.0600000   -0.1200000   2.494471e-04  1.671101e-07
     96     94   2   0.50000     0.0600000   -0.1800000   2.494471e-04  1.671101e-07
     96     97   2   0.50000     0.0600000    0.0600000   6.128906e-05  1.496315e-08
     96    101   2   0.50000     0.0600000   -0.1200000   2.494471e-04  1.671101e-07
     92     98   2   0.50000    -0.1200000    0.0600000   2.494471e-04  1.671101e-07
     92     99   2   0.50000    -0.1200000    0.0600000   2.494471e-04  1.671101e-07
     92    100   2   0.50000    -0.1200000    0.0600000   2.494471e-04  1.671101e-07
     97     98   2   0.50000     0.0600000    0.0600000   6.128906e-05  1.496315e-08
     97     99   2   0.50000     0.0600000    0.0600000   6.128906e-05  1.496315e-08
     97    100   2   0.50000     0.0600000    0.0600000   6.128906e-05  1.496315e-08
    101     98   2   0.50000    -0.1200000    0.0600000   2.494471e-04  1.671101e-07
    101     99   2   0.50000    -0.1200000    0.0600000   2.494471e-04  1.671101e-07
    101    100   2   0.50000    -0.1200000    0.0600000   2.494471e-04  1.671101e-07
     92    102   2   0.50000    -0.1200000   -0.0600000   1.015252e-03  1.866303e-06
     92    104   2   0.50000    -0.1200000    0.0600000   2.494471e-04  1.671101e-07
     92    105   2   0.50000    -0.1200000    0.0600000   2.494471e-04  1.671101e-07
     94    102   2   0.50000    -0.1800000   -0.0600000   1.015252e-03  1.866303e-06
     94    104   2   0.50000    -0.1800000    0.0600000   2.494471e-04  1.671101e-07
     94    105   2   0.50000    -0.1800000    0.0600000   2.494471e-04  1.671101e-07
     97    102   2   0.50000     0.0600000   -0.0600000   2.494471e-04  1.671101e-07
     97    104   2   0.50000     0.0600000    0.0600000   6.128906e-05  1.496315e-08
     97    105   2   0.50000     0.0600000    0.0600000   6.128906e-05  1.496315e-08
     93    103   2   0.50000    -0.0600000   -0.1800000   1.015252e-03  1.866303e-06
     93    106   2   0.50000    -0.0600000    0.0600000   2.494471e-04  1.671101e-07
     93    110   2   0.50000    -0.0600000   -0.1200000   1.015252e-03  1.866303e-06
    104    103   2   0.50000     0.0600000   -0.1800000   2.494471e-04  1.671101e-07
    104    106   2   0.50000     0.0600000    0.0600000   6.128906e-05  1.496315e-08
    104    110   2   0.50000     0.0600000   -0.1200000   2.494471e-04  1.671101e-07
    105    103   2   0.50000     0.0600000   -0.1800000   2.494471e-04  1.671101e-07
    105    106   2   0.50000     0.0600000    0.0600000   6.128906e-05  1.496315e-08
    105    110   2   0.50000     0.0600000   -0.1200000   2.494471e-04  1.671101e-07
    101    107   2   0.50000    -0.1200000    0.0600000   2.494471e-04  1.671101e-07
    101    108   2   0.50000    -0.1200000    0.0600000   2.494471e-04  1.671101e-07
    101    109   2   0.50000    -0.1200000    0.0600000   2.494471e-04  1.671101e-07
    106    107   2   0.50000     0.0600000    0.0600000   6.128906e-05  1.496315e-08
    106    108   2   0.50000     0.0600000    0.0600000   6.128906e-05  1.496315e-08
    106    109   2   0.50000     0.0600000    0.0600000   6.128906e-05  1.496315e-08
    110    107   2   0.50000    -0.1200000    0.0600000   2.494471e-04  1.671101e-07
    110    108   2   0.50000    -0.1200000    0.0600000   2.494471e-04  1.671101e-07
    110    109   2   0.50000    -0.1200000    0.0600000   2.494471e-04  1.671101e-07
    101    111   2   0.50000    -0.1200000   -0.0600000   1.015252e-03  1.866303e-06
    101    113   2   0.50000    -0.1200000    0.0600000   2.494471e-04  1.671101e-07
    101    114   2   0.50000    -0.1200000    0.0600000   2.494471e-04  1.671101e-07
    103    111   2   0.50000    -0.1800000   -0.0600000   1.015252e-03  1.866303e-06
    103    113   2   0.50000    -0.1800000    0.0600000   2.494471e-04  1.671101e-07
    103    114   2   0.50000    -0.1800000    0.0600000   2.494471e-04  1.671101e-07
    106    111   2   0.50000     0.0600000   -0.0600000   2.494471e-04  1.671101e-07
    106    113   2   0.50000     0.0600000    0.0600000   6.128906e-05  1.496315e-08
    106    114   2   0.50000     0.0600000    0.0600000   6.128906e-05  1.496315e-08
    102    112   2   0.50000    -0.0600000   -0.1800000   1.015252e-03  1.866303e-06
    102    115   2   0.50000    -0.0600000    0.0600000   2.494471e-04  1.671101e-07
    102    119   2   0.50000    -0.0600000   -0.1200000   1.015252e-03  1.866303e-06
    113    112   2   0.50000     0.0600000   -0.1800000   2.494471e-04  1.671101e-07
    113    115   2   0.50000     0.0600000    0.0600000   6.128906e-05  1.496315e-08
    113    119   2   0.50000     0.0600000   -0.1200000   2.494471e-04  1.671101e-07
    114    112   2   0.50000     0.0600000   -0.1800000   2.494471e-04  1.671101e-07
    114    115   2   0.50000     0.0600000    0.0600000   6.128906e-05  1.496315e-08
    114    119   2   0.50000     0.0600000   -0.1200000   2.494471e-04  1.671101e-07
    110    116   2   0.50000    -0.1200000    0.0600000   2.494471e-04  1.671101e-07
    110    117   2   0.50000    -0.1200000    0.0600000   2.494471e-04  1.671101e-07
    110    118   2   0.50000    -0.1200000    0.0600000   2.494471e-04  1.671101e-07
    115    116   2   0.50000     0.0600000    0.0600000   6.128906e-05  1.496315e-08
    115    117   2   0.50000     0.0600000    0.0600000   6.128906e-05  1.496315e-08
    115    118   2   0.50000     0.0600000    0.0600000   6.128906e-05  1.496315e-08
    119    116   2   0.50000    -0.1200000    0.0600000   2.494471e-04  1.671101e-07
    119    117   2   0.50000    -0.1200000    0.0600000   2.494471e-04  1.671101e-07
    119    118   2   0.50000    -0.1200000    0.0600000   2.494471e-04  1.671101e-07
    110    120   2   0.50000    -0.1200000   -0.0600000   1.015252e-03  1.866303e-06
    110    122   2   0.50000    -0.1200000    0.0600000   2.494471e-04  1.671101e-07
    110    123   2   0.50000    -0.1200000    0.0600000   2.494471e-04  1.671101e-07
    112    120   2   0.50000    -0.1800000   -0.0600000   1.015252e-03  1.866303e-06
    112    122   2   0.50000    -0.1800000    0.0600000   2.494471e-04  1.671101e-07
    112    123   2   0.50000    -0.1800000    0.0600000   2.494471e-04  1.671101e-07
    115    120   2   0.50000     0.0600000   -0.0600000   2.494471e-04  1.671101e-07
    115    122   2   0.50000     0.0600000    0.0600000   6.128906e-05  1.496315e-08
    115    123   2   0.50000     0.0600000    0.0600000   6.128906e-05  1.496315e-08
    111    121   2   0.50000    -0.0600000   -0.1800000   1.015252e-03  1.866303e-06
    111    124   2   0.50000    -0.0600000    0.0600000   2.494471e-04  1.671101e-07
    111    128   2   0.50000    -0.0600000   -0.1200000   1.015252e-03  1.866303e-06
    122    121   2   0.50000     0.0600000   -0.1800000   2.494471e-04  1.671101e-07
    122    124   2   0.50000     0.0600000    0.0600000   6.128906e-05  1.496315e-08
    122    128   2   0.50000     0.0600000   -0.1200000   2.494471e-04  1.671101e-07
    123    121   2   0.50000     0.0600000   -0.1800000   2.494471e-04  1.671101e-07
    123    124   2   0.50000     0.0600000    0.0600000   6.128906e-05  1.496315e-08
    123    128   2   0.50000     0.0600000   -0.1200000   2.494471e-04  1.671101e-07
    119    125   2   0.50000    -0.1200000    0.0600000   2.494471e-04  1.671101e-07
    119    126   2   0.50000    -0.1200000    0.0600000   2.494471e-04  1.671101e-07
    119    127   2   0.50000    -0.1200000    0.0600000   2.494471e-04  1.671101e-07
    124    125   2   0.50000     0.0600000    0.0600000   6.128906e-05  1.496315e-08
    124    126   2   0.50000     0.0600000    0.0600000   6.128906e-05  1.496315e-08
    124    127   2   0.50000     0.0600000    0.0600000   6.128906e-05  1.496315e-08
    128    125   2   0.50000    -0.1200000    0.0600000   2.494471e-04  1.671101e-07
    128    126   2   0.50000    -0.1200000    0.0600000   2.494471e-04  1.671101e-07
    128    127   2   0.50000    -0.1200000    0.0600000   2.494471e-04  1.671101e-07
    119    129   2   0.50000    -0.1200000   -0.0600000   1.015252e-03  1.866303e-06
    119    131   2   0.50000    -0.1200000    0.0600000   2.494471e-04  1.671101e-07
    119    132   2   0.50000    -0.1200000    0.0600000   2.494471e-04  1.671101e-07
    121    129   2   0.50000    -0.1800000   -0.0600000   1.015252e-03  1.866303e-06
    121    131   2   0.50000    -0.1800000    0.0600000   2.494471e-04  1.671101e-07
    121    132   2   0.50000    -0.1800000    0.0600000   2.494471e-04  1.671101e-07
    124    129   2   0.50000     0.0600000   -0.0600000   2.494471e-04  1.671101e-07
    124    131   2   0.50000     0.0600000    0.0600000   6.128906e-05  1.496315e-08
    124    132   2   0.50000     0.0600000    0.0600000   6.128906e-05  1.496315e-08
    120    130   2   0.50000    -0.0600000   -0.1800000   1.015252e-03  1.866303e-06
    120    133   2   0.50000    -0.0600000    0.0600000   2.494471e-04  1.671101e-07
    120    137   2   0.50000    -0.0600000   -0.1200000   1.015252e-03  1.866303e-06
    131    130   2   0.50000     0.0600000   -0.1800000   2.494471e-04  1.671101e-07
    131    133   2   0.50000     0.0600000    0.0600000   6.128906e-05  1.496315e-08
    131    137   2   0.50000     0.0600000   -0.1200000   2.494471e-04  1.671101e-07
    132    130   2   0.50000     0.0600000   -0.1800000   2.494471e-04  1.671101e-07
    132    133   2   0.50000     0.0600000    0.0600000   6.128906e-05  1.496315e-08
    132    137   2   0.50000     0.0600000   -0.1200000   2.494471e-04  1.671101e-07
    128    134   2   0.50000    -0.1200000    0.0600000   2.494471e-04  1.671101e-07
    128    135   2   0.50000    -0.1200000    0.0600000   2.494471e-04  1.671101e-07
    128    136   2   0.50000    -0.1200000    0.0600000   2.494471e-04  1.671101e-07
    133    134   2   0.50000     0.0600000    0.0600000   6.128906e-05  1.496315e-08
    133    135   2   0.50000     0.0600000    0.0600000   6.128906e-05  1.496315e-08
    133    136   2   0.50000     0.0600000    0.0600000   6.128906e-05  1.496315e-08
    137    134   2   0.50000    -0.1200000    0.0600000   2.494471e-04  1.671101e-07
    137    135   2   0.50000    -0.1200000    0.0600000   2.494471e-04  1.671101e-07
    137    136   2   0.50000    -0.1200000    0.0600000   2.494471e-04  1.671101e-07
    128    138   2   0.50000    -0.1200000   -0.0600000   1.015252e-03  1.866303e-06
    128    140   2   0.50000    -0.1200000    0.0600000   2.494471e-04  1.671101e-07
    128    141   2   0.50000    -0.1200000    0.0600000   2.494471e-04  1.671101e-07
    130    138   2   0.50000    -0.1800000   -0.0600000   1.015252e-03  1.866303e-06
    130    140   2   0.50000    -0.1800000    0.0600000   2.494471e-04  1.671101e-07
    130    141   2   0.50000    -0.1800000    0.0600000   2.494471e-04  1.671101e-07
    133    138   2   0.50000     0.0600000   -0.0600000   2.494471e-04  1.671101e-07
    133    140   2   0.50000     0.0600000    0.0600000   6.128906e-05  1.496315e-08
    133    141   2   0.50000     0.0600000    0.0600000   6.128906e-05  1.496315e-08
    129    139   2   0.50000    -0.0600000   -0.1800000   1.015252e-03  1.866303e-06
    129    142   2   0.50000    -0.0600000    0.0600000   2.494471e-04  1.671101e-07
    129    146   2   0.50000    -0.0600000   -0.1200000   1.015252e-03  1.866303e-06
    140    139   2   0.50000     0.0600000   -0.1800000   2.494471e-04  1.671101e-07
    140    142   2   0.50000     0.0600000    0.0600000   6.128906e-05  1.496315e-08
    140    146   2   0.50000     0.0600000   -0.1200000   2.494471e-04  1.671101e-07
    141    139   2   0.50000     0.0600000   -0.1800000   2.494471e-04  1.671101e-07
    141    142   2   0.50000     0.0600000    0.0600000   6.128906e-05  1.496315e-08
    141    146   2   0.50000     0.0600000   -0.1200000   2.494471e-04  1.671101e-07
    137    143   2   0.50000    -0.1200000    0.0600000   2.494471e-04  1.671101e-07
    137    144   2   0.50000    -0.1200000    0.0600000   2.494471e-04  1.671101e-07
    137    145   2   0.50000    -0.1200000    0.0600000   2.494471e-04  1.671101e-07
    142    143   2   0.50000     0.0600000    0.0600000   6.128906e-05  1.496315e-08
    142    144   2   0.50000     0.0600000    0.0600000   6.128906e-05  1.496315e-08
    142    145   2   0.50000     0.0600000    0.0600000   6.128906e-05  1.496315e-08
    146    143   2   0.50000    -0.1200000    0.0600000   2.494471e-04  1.671101e-07
    146    144   2   0.50000    -0.1200000    0.0600000   2.494471e-04  1.671101e-07
    146    145   2   0.50000    -0.1200000    0.0600000   2.494471e-04  1.671101e-07
    137    147   2   0.50000    -0.1200000   -0.0600000   1.015252e-03  1.866303e-06
    137    149   2   0.50000    -0.1200000    0.0600000   2.494471e-04  1.671101e-07
    137    150   2   0.50000    -0.1200000    0.0600000   2.494471e-04  1.671101e-07
    139    147   2   0.50000    -0.1800000   -0.0600000   1.015252e-03  1.866303e-06
    139    149   2   0.50000    -0.1800000    0.0600000   2.494471e-04  1.671101e-07
    139    150   2   0.50000    -0.1800000    0.0600000   2.494471e-04  1.671101e-07
    142    147   2   0.50000     0.0600000   -0.0600000   2.494471e-04  1.671101e-07
    142    149   2   0.50000     0.0600000    0.0600000   6.128906e-05  1.496315e-08
    142    150   2   0.50000     0.0600000    0.0600000   6.128906e-05  1.496315e-08
    138    148   2   0.50000    -0.0600000   -0.1800000   1.015252e-03  1.866303e-06
    138    151   2   0.50000    -0.0600000    0.0600000   2.494471e-04  1.671101e-07
    138    155   2   0.50000    -0.0600000   -0.1200000   1.015252e-03  1.866303e-06
    149    148   2   0.50000     0.0600000   -0.1800000   2.494471e-04  1.671101e-07
    149    151   2   0.50000     0.0600000    0.0600000   6.128906e-05  1.496315e-08
    149    155   2   0.50000     0.0600000   -0.1200000   2.494471e-04  1.671101e-07
    150    148   2   0.50000     0.0600000   -0.1800000   2.494471e-04  1.671101e-07
    150    151   2   0.50000     0.0600000    0.0600000   6.128906e-05  1.496315e-08
    150    155   2   0.50000     0.0600000   -0.1200000   2.494471e-04  1.671101e-07
    146    152   2   0.50000    -0.1200000    0.0600000   2.494471e-04  1.671101e-07
    146    153   2   0.50000    -0.1200000    0.0600000   2.494471e-04  1.671101e-07
    146    154   2   0.50000    -0.1200000    0.0600000   2.494471e-04  1.671101e-07
    151    152   2   0.50000     0.0600000    0.0600000   6.128906e-05  1.496315e-08
    151    153   2   0.50000     0.0600000    0.0600000   6.128906e-05  1.496315e-08
    151    154   2   0.50000     0.0600000    0.0600000   6.128906e-05  1.496315e-08
    155    152   2   0.50000    -0.1200000    0.0600000   2.494471e-04  1.671101e-07
    155    153   2   0.50000    -0.1200000    0.0600000   2.494471e-04  1.671101e-07
    155    154   2   0.50000    -0.1200000    0.0600000   2.494471e-04  1.671101e-07
    146    156   2   0.50000    -0.1200000   -0.0600000   1.015252e-03  1.866303e-06
    146    158   2   0.50000    -0.1200000    0.0600000   2.494471e-04  1.671101e-07
    146    159   2   0.50000    -0.1200000    0.0600000   2.494471e-04  1.671101e-07
    148    156   2   0.50000    -0.1800000   -0.0600000   1.015252e-03  1.866303e-06
    148    158   2   0.50000    -0.1800000    0.0600000   2.494471e-04  1.671101e-07
    148    159   2   0.50000    -0.1800000    0.0600000   2.494471e-04  1.671101e-07
    151    156   2   0.50000     0.0600000   -0.0600000   2.494471e-04  1.671101e-07
    151    158   2   0.50000     0.0600000    0.0600000   6.128906e-05  1.496315e-08
    151    159   2   0.50000     0.0600000    0.0600000   6.128906e-05  1.496315e-08
    147    157   2   0.50000    -0.0600000   -0.1800000   1.015252e-03  1.866303e-06
    147    160   2   0.50000    -0.0600000    0.0600000   2.494471e-04  1.671101e-07
    147    164   2   0.50000    -0.0600000   -0.1200000   1.015252e-03  1.866303e-06
    158    157   2   0.50000     0.0600000   -0.1800000   2.494471e-04  1.671101e-07
    158    160   2   0.50000     0.0600000    0.0600000   6.128906e-05  1.496315e-08
    158    164   2   0.50000     0.0600000   -0.1200000   2.494471e-04  1.671101e-07
    159    157   2   0.50000     0.0600000   -0.1800000   2.494471e-04  1.671101e-07
    159    160   2   0.50000     0.0600000    0.0600000   6.128906e-05  1.496315e-08
    159    164   2   0.50000     0.0600000   -0.1200000   2.494471e-04  1.671101e-07
    155    161   2   0.50000    -0.1200000    0.0600000   2.494471e-04  1.671101e-07
    155    162   2   0.50000    -0.1200000    0.0600000   2.494471e-04  1.671101e-07
    155    163   2   0.50000    -0.1200000    0.0600000   2.494471e-04  1.671101e-07
    160    161   2   0.50000     0.0600000    0.0600000   6.128906e-05  1.496315e-08
    160    162   2   0.50000     0.0600000    0.0600000   6.128906e-05  1.496315e-08
    160    163   2   0.50000     0.0600000    0.0600000   6.128906e-05  1.496315e-08
    164    161   2   0.50000    -0.1200000    0.0600000   2.494471e-04  1.671101e-07
    164    162   2   0.50000    -0.1200000    0.0600000   2.494471e-04  1.671101e-07
    164    163   2   0.50000    -0.1200000    0.0600000   2.494471e-04  1.671101e-07
    155    165   2   0.50000    -0.1200000   -0.0600000   1.015252e-03  1.866303e-06
    155    167   2   0.50000    -0.1200000    0.0600000   2.494471e-04  1.671101e-07
    155    168   2   0.50000    -0.1200000    0.0600000   2.494471e-04  1.671101e-07
    157    165   2   0.50000    -0.1800000   -0.0600000   1.015252e-03  1.866303e-06
    157    167   2   0.50000    -0.1800000    0.0600000   2.494471e-04  1.671101e-07
    157    168   2   0.50000    -0.1800000    0.0600000   2.494471e-04  1.671101e-07
    160    165   2   0.50000     0.0600000   -0.0600000   2.494471e-04  1.671101e-07
    160    167   2   0.50000     0.0600000    0.0600000   6.128906e-05  1.496315e-08
    160    168   2   0.50000     0.0600000    0.0600000   6.128906e-05  1.496315e-08
    156    166   2   0.50000    -0.0600000   -0.1800000   1.015252e-03  1.866303e-06
    156    169   2   0.50000    -0.0600000    0.0600000   2.494471e-04  1.671101e-07
    156    173   2   0.50000    -0.0600000   -0.1200000   1.015252e-03  1.866303e-06
    167    166   2   0.50000     0.0600000   -0.1800000   2.494471e-04  1.671101e-07
    167    169   2   0.50000     0.0600000    0.0600000   6.128906e-05  1.496315e-08
    167    173   2   0.50000     0.0600000   -0.1200000   2.494471e-04  1.671101e-07
    168    166   2   0.50000     0.0600000   -0.1800000   2.494471e-04  1.671101e-07
    168    169   2   0.50000     0.0600000    0.0600000   6.128906e-05  1.496315e-08
    168    173   2   0.50000     0.0600000   -0.1200000   2.494471e-04  1.671101e-07
    164    170   2   0.50000    -0.1200000    0.0600000   2.494471e-04  1.671101e-07
    164    171   2   0.50000    -0.1200000    0.0600000   2.494471e-04  1.671101e-07
    164    172   2   0.50000    -0.1200000    0.0600000   2.494471e-04  1.671101e-07
    169    170   2   0.50000     0.0600000    0.0600000   6.128906e-05  1.496315e-08
    169    171   2   0.50000     0.0600000    0.0600000   6.128906e-05  1.496315e-08
    169    172   2   0.50000     0.0600000    0.0600000   6.128906e-05  1.496315e-08
    173    170   2   0.50000    -0.1200000    0.0600000   2.494471e-04  1.671101e-07
    173    171   2   0.50000    -0.1200000    0.0600000   2.494471e-04  1.671101e-07
    173    172   2   0.50000    -0.1200000    0.0600000   2.494471e-04  1.671101e-07
    164    174   2   0.50000    -0.1200000   -0.1200000   1.015252e-03  1.866303e-06
    164    176   2   0.50000    -0.1200000    0.0600000   2.494471e-04  1.671101e-07
    164    177   2   0.50000    -0.1200000    0.0600000   2.494471e-04  1.671101e-07
    166    174   2   0.50000    -0.1800000   -0.1200000   1.015252e-03  1.866303e-06
    166    176   2   0.50000    -0.1800000    0.0600000   2.494471e-04  1.671101e-07
    166    177   2   0.50000    -0.1800000    0.0600000   2.494471e-04  1.671101e-07
    169    174   2   0.50000     0.0600000   -0.1200000   2.494471e-04  1.671101e-07
    169    176   2   0.50000     0.0600000    0.0600000   6.128906e-05  1.496315e-08
    169    177   2   0.50000     0.0600000    0.0600000   6.128906e-05  1.496315e-08
    165    175   2   0.50000    -0.0600000   -0.1800000   1.015252e-03  1.866303e-06
    165    178   2   0.50000    -0.0600000    0.0600000   2.494471e-04  1.671101e-07
    165    182   2   0.50000    -0.0600000    0.0600000   2.494471e-04  1.671101e-07
    176    175   2   0.50000     0.0600000   -0.1800000   2.494471e-04  1.671101e-07
    176    178   2   0.50000     0.0600000    0.0600000   6.128906e-05  1.496315e-08
    176    182   2   0.50000     0.0600000    0.0600000   6.128906e-05  1.496315e-08
    177    175   2   0.50000     0.0600000   -0.1800000   2.494471e-04  1.671101e-07
    177    178   2   0.50000     0.0600000    0.0600000   6.128906e-05  1.496315e-08
    177    182   2   0.50000     0.0600000    0.0600000   6.128906e-05  1.496315e-08
    173    179   2   0.50000    -0.1200000    0.0600000   2.494471e-04  1.671101e-07
    173    180   2   0.50000    -0.1200000    0.0600000   2.494471e-04  1.671101e-07
    173    181   2   0.50000    -0.1200000    0.0600000   2.494471e-04  1.671101e-07
    178    179   2   0.50000     0.0600000    0.0600000   6.128906e-05  1.496315e-08
    178    180   2   0.50000     0.0600000    0.0600000   6.128906e-05  1.496315e-08
    178    181   2   0.50000     0.0600000    0.0600000   6.128906e-05  1.496315e-08
    182    179   2   0.50000     0.0600000    0.0600000   6.128906e-05  1.496315e-08
    182    180   2   0.50000     0.0600000    0.0600000   6.128906e-05  1.496315e-08
    182    181   2   0.50000     0.0600000    0.0600000   6.128906e-05  1.496315e-08

[ angles ]
; ai  aj  ak
      2      1      4   1    110.7000    313.8000
      2      1      5   1    110.7000    313.8000
      2      1     10   1    110.7000    313.8000
      4      1      5   1    107.8000    276.1440
      4      1     10   1    107.8000    276.1440
      5      1     10   1    107.8000    276.1440
      1      2      3   1    112.7000    488.2728
      1      2      6   1    110.7000    313.8000
      1      2     11   1    112.7000    488.2728
      3      2      6   1    110.7000    313.8000
      3      2     11   1    112.7000    488.2728
      6      2     11   1    110.7000    313.8000
      2      3      7   1    110.7000    313.8000
      2      3      8   1    110.7000    313.8000
      2      3      9   1    110.7000    313.8000
      7      3      8   1    107.8000    276.1440
      7      3      9   1    107.8000    276.1440
      8      3      9   1    107.8000    276.1440
      2     11     12   1    112.7000    488.2728
      2     11     14   1    110.7000    313.8000
      2     11     15   1    110.7000    313.8000
     12     11     14   1    110.7000    313.8000
     12     11     15   1    110.7000    313.8000
     14     11     15   1    107.8000    276.1440
     11     12     13   1    112.7000    488.2728
     11     12     16   1    110.7000    313.8000
     11     12     20   1    112.7000    488.2728
     13     12     16   1    110.7000    313.8000
     13     12     20   1    112.7000    488.2728
     16     12     20   1    110.7000    313.8000
     12     13     17   1    110.7000    313.8000
     12     13     18   1    110.7000    313.8000
     12     13     19   1    110.7000    313.8000
     17     13     18   1    107.8000    276.1440
     17     13     19   1    107.8000    276.1440
     18     13     19   1    107.8000    276.1440
     12     20     21   1    112.7000    488.2728
     12     20     23   1    110.7000    313.8000
     12     20     24   1    110.7000    313.8000
     21     20     23   1    110.7000    313.8000
     21     20     24   1    110.7000    313.8000
     23     20     24   1    107.8000    276.1440
     20     21     22   1    112.7000    488.2728
     20     21     25   1    110.7000    313.8000
     20     21     29   1    112.7000    488.2728
     22     21     25   1    110.7000    313.8000
     22     21     29   1    112.7000    488.2728
     25     21     29   1    110.7000    313.8000
     21     22     26   1    110.7000    313.8000
     21     22     27   1    110.7000    313.8000
     21     22     28   1    110.7000    313.8000
     26     22     27   1    107.8000    276.1440
     26     22     28   1    107.8000    276.1440
     27     22     28   1    107.8000    276.1440
     21     29     30   1    112.7000    488.2728
     21     29     32   1    110.7000    313.8000
     21     29     33   1    110.7000    313.8000
     30     29     32   1    110.7000    313.8000
     30     29     33   1    110.7000    313.8000
     32     29     33   1    107.8000    276.1440
     29     30     31   1    112.7000    488.2728
     29     30     34   1    110.7000    313.8000
     29     30     38   1    112.7000    488.2728
     31     30     34   1    110.7000    313.8000
     31     30     38   1    112.7000    488.2728
     34     30     38   1    110.7000    313.8000
     30     31     35   1    110.7000    313.8000
     30     31     36   1    110.7000    313.8000
     30     31     37   1    110.7000    313.8000
     35     31     36   1    107.8000    276.1440
     35     31     37   1    107.8000    276.1440
     36     31     37   1    107.8000    276.1440
     30     38     39   1    112.7000    488.2728
     30     38     41   1    110.7000    313.8000
     30     38     42   1    110.7000    313.8000
     39     38     41   1    110.7000    313.8000
     39     38     42   1    110.7000    313.8000
     41     38     42   1    107.8000    276.1440
     38     39     40   1    112.7000    488.2728
     38     39     43   1    110.7000    313.8000
     38     39     47   1    112.7000    488.2728
     40     39     43   1    110.7000    313.8000
     40     39     47   1    112.7000    488.2728
     43     39     47   1    110.7000    313.8000
     39     40     44   1    110.7000    313.8000
     39     40     45   1    110.7000    313.8000
     39     40     46   1    110.7000    313.8000
     44     40     45   1    107.8000    276.1440
     44     40     46   1    107.8000    276.1440
     45     40     46   1    107.8000    276.1440
     39     47     48   1    112.7000    488.2728
     39     47     50   1    110.7000    313.8000
     39     47     51   1    110.7000    313.8000
     48     47     50   1    110.7000    313.8000
     48     47     51   1    110.7000    313.8000
     50     47     51   1    107.8000    276.1440
     47     48     49   1    112.7000    488.2728
     47     48     52   1    110.7000    313.8000
     47     48     56   1    112.7000    488.2728
     49     48     52   1    110.7000    313.8000
     49     48     56   1    112.7000    488.2728
     52     48     56   1    110.7000    313.8000
     48     49     53   1    110.7000    313.8000
     48     49     54   1    110.7000    313.8000
     48     49     55   1    110.7000    313.8000
     53     49     54   1    107.8000    276.1440
     53     49     55   1    107.8000    276.1440
     54     49     55   1    107.8000    276.1440
     48     56     57   1    112.7000    488.2728
     48     56     59   1    110.7000    313.8000
     48     56     60   1    110.7000    313.8000
     57     56     59   1    110.7000    313.8000
     57     56     60   1    110.7000    313.8000
     59     56     60   1    107.8000    276.1440
     56     57     58   1    112.7000    488.2728
     56     57     61   1    110.7000    313.8000
     56     57     65   1    112.7000    488.2728
     58     57     61   1    110.7000    313.8000
     58     57     65   1    112.7000    488.2728
     61     57     65   1    110.7000    313.8000
     57     58     62   1    110.7000    313.8000
     57     58     63   1    110.7000    313.8000
     57     58     64   1    110.7000    313.8000
     62     58     63   1    107.8000    276.1440
     62     58     64   1    107.8000    276.1440
     63     58     64   1    107.8000    276.1440
     57     65     66   1    112.7000    488.2728
     57     65     68   1    110.7000    313.8000
     57     65     69   1    110.7000    313.8000
     66     65     68   1    110.7000    313.8000
     66     65     69   1    110.7000    313.8000
     68     65     69   1    107.8000    276.1440
     65     66     67   1    112.7000    488.2728
     65     66     70   1    110.7000    313.8000
     65     66     74   1    112.7000    488.2728
     67     66     70   1    110.7000    313.8000
     67     66     74   1    112.7000    488.2728
     70     66     74   1    110.7000    313.8000
     66     67     71   1    110.7000    313.8000
     66     67     72   1    110.7000    313.8000
     66     67     73   1    110.7000    313.8000
     71     67     72   1    107.8000    276.1440
     71     67     73   1    107.8000    276.1440
     72     67     73   1    107.8000    276.1440
     66     74     75   1    112.7000    488.2728
     66     74     77   1    110.7000    313.8000
     66     74     78   1    110.7000    313.8000
     75     74     77   1    110.7000    313.8000
     75     74     78   1    110.7000    313.8000
     77     74     78   1    107.8000    276.1440
     74     75     76   1    112.7000    488.2728
     74     75     79   1    110.7000    313.8000
     74     75     83   1    112.7000    488.2728
     76     75     79   1    110.7000    313.8000
     76     75     83   1    112.7000    488.2728
     79     75     83   1    110.7000    313.8000
     75     76     80   1    110.7000    313.8000
     75     76     81   1    110.7000    313.8000
     75     76     82   1    110.7000    313.8000
     80     76     81   1    107.8000    276.1440
     80     76     82   1    107.8000    276.1440
     81     76     82   1    107.8000    276.1440
     75     83     84   1    112.7000    488.2728
     75     83     86   1    110.7000    313.8000
     75     83     87   1    110.7000    313.8000
     84     83     86   1    110.7000    313.8000
     84     83     87   1    110.7000    313.8000
     86     83     87   1    107.8000    276.1440
     83     84     85   1    112.7000    488.2728
     83     84     88   1    110.7000    313.8000
     83     84     92   1    112.7000    488.2728
     85     84     88   1    110.7000    313.8000
     85     84     92   1    112.7000    488.2728
     88     84     92   1    110.7000    313.8000
     84     85     89   1    110.7000    313.8000
     84     85     90   1    110.7000    313.8000
     84     85     91   1    110.7000    313.8000
     89     85     90   1    107.8000    276.1440
     89     85     91   1    107.8000    276.1440
     90     85     91   1    107.8000    276.1440
     84     92     93   1    112.7000    488.2728
     84     92     95   1    110.7000    313.8000
     84     92     96   1    110.7000    313.8000
     93     92     95   1    110.7000    313.8000
     93     92     96   1    110.7000    313.8000
     95     92     96   1    107.8000    276.1440
     92     93     94   1    112.7000    488.2728
     92     93     97   1    110.7000    313.8000
     92     93    101   1    112.7000    488.2728
     94     93     97   1    110.7000    313.8000
     94     93    101   1    112.7000    488.2728
     97     93    101   1    110.7000    313.8000
     93     94     98   1    110.7000    313.8000
     93     94     99   1    110.7000    313.8000
     93     94    100   1    110.7000    313.8000
     98     94     99   1    107.8000    276.1440
     98     94    100   1    107.8000    276.1440
     99     94    100   1    107.8000    276.1440
     93    101    102   1    112.7000    488.2728
     93    101    104   1    110.7000    313.8000
     93    101    105   1    110.7000    313.8000
    102    101    104   1    110.7000    313.8000
    102    101    105   1    110.7000    313.8000
    104    101    105   1    107.8000    276.1440
    101    102    103   1    112.7000    488.2728
    101    102    106   1    110.7000    313.8000
    101    102    110   1    112.7000    488.2728
    103    102    106   1    110.7000    313.8000
    103    102    110   1    112.7000    488.2728
    106    102    110   1    110.7000    313.8000
    102    103    107   1    110.7000    313.8000
    102    103    108   1    110.7000    313.8000
    102    103    109   1    110.7000    313.8000
    107    103    108   1    107.8000    276.1440
    107    103    109   1    107.8000    276.1440
    108    103    109   1    107.8000    276.1440
    102    110    111   1    112.7000    488.2728
    102    110    113   1    110.7000    313.8000
    102    110    114   1    110.7000    313.8000
    111    110    113   1    110.7000    313.8000
    111    110    114   1    110.7000    313.8000
    113    110    114   1    107.8000    276.1440
    110    111    112   1    112.7000    488.2728
    110    111    115   1    110.7000    313.8000
    110    111    119   1    112.7000    488.2728
    112    111    115   1    110.7000    313.8000
    112    111    119   1    112.7000    488.2728
    115    111    119   1    110.7000    313.8000
    111    112    116   1    110.7000    313.8000
    111    112    117   1    110.7000    313.8000
    111    112    118   1    110.7000    313.8000
    116    112    117   1    107.8000    276.1440
    116    112    118   1    107.8000    276.1440
    117    112    118   1    107.8000    276.1440
    111    119    120   1    112.7000    488.2728
    111    119    122   1    110.7000    313.8000
    111    119    123   1    110.7000    313.8000
    120    119    122   1    110.7000    313.8000
    120    119    123   1    110.7000    313.8000
    122    119    123   1    107.8000    276.1440
    119    120    121   1    112.7000    488.2728
    119    120    124   1    110.7000    313.8000
    119    120    128   1    112.7000    488.2728
    121    120    124   1    110.7000    313.8000
    121    120    128   1    112.7000    488.2728
    124    120    128   1    110.7000    313.8000
    120    121    125   1    110.7000    313.8000
    120    121    126   1    110.7000    313.8000
    120    121    127   1    110.7000    313.8000
    125    121    126   1    107.8000    276.1440
    125    121    127   1    107.8000    276.1440
    126    121    127   1    107.8000    276.1440
    120    128    129   1    112.7000    488.2728
    120    128    131   1    110.7000    313.8000
    120    128    132   1    110.7000    313.8000
    129    128    131   1    110.7000    313.8000
    129    128    132   1    110.7000    313.8000
    131    128    132   1    107.8000    276.1440
    128    129    130   1    112.7000    488.2728
    128    129    133   1    110.7000    313.8000
    128    129    137   1    112.7000    488.2728
    130    129    133   1    110.7000    313.8000
    130    129    137   1    112.7000    488.2728
    133    129    137   1    110.7000    313.8000
    129    130    134   1    110.7000    313.8000
    129    130    135   1    110.7000    313.8000
    129    130    136   1    110.7000    313.8000
    134    130    135   1    107.8000    276.1440
    134    130    136   1    107.8000    276.1440
    135    130    136   1    107.8000    276.1440
    129    137    138   1    112.7000    488.2728
    129    137    140   1    110.7000    313.8000
    129    137    141   1    110.7000    313.8000
    138    137    140   1    110.7000    313.8000
    138    137    141   1    110.7000    313.8000
    140    137    141   1    107.8000    276.1440
    137    138    139   1    112.7000    488.2728
    137    138    142   1    110.7000    313.8000
    137    138    146   1    112.7000    488.2728
    139    138    142   1    110.7000    313.8000
    139    138    146   1    112.7000    488.2728
    142    138    146   1    110.7000    313.8000
    138    139    143   1    110.7000    313.8000
    138    139    144   1    110.7000    313.8000
    138    139    145   1    110.7000    313.8000
    143    139    144   1    107.8000    276.1440
    143    139    145   1    107.8000    276.1440
    144    139    145   1    107.8000    276.1440
    138    146    147   1    112.7000    488.2728
    138    146    149   1    110.7000    313.8000
    138    146    150   1    110.7000    313.8000
    147    146    149   1    110.7000    313.8000
    147    146    150   1    110.7000    313.8000
    149    146    150   1    107.8000    276.1440
    146    147    148   1    112.7000    488.2728
    146    147    151   1    110.7000    313.8000
    146    147    155   1    112.7000    488.2728
    148    147    151   1    110.7000    313.8000
    148    147    155   1    112.7000    488.2728
    151    147    155   1    110.7000    313.8000
    147    148    152   1    110.7000    313.8000
    147    148    153   1    110.7000    313.8000
    147    148    154   1    110.7000    313.8000
    152    148    153   1    107.8000    276.1440
    152    148    154   1    107.8000    276.1440
    153    148    154   1    107.8000    276.1440
    147    155    156   1    112.7000    488.2728
    147    155    158   1    110.7000    313.8000
    147    155    159   1    110.7000    313.8000
    156    155    158   1    110.7000    313.8000
    156    155    159   1    110.7000    313.8000
    158    155    159   1    107.8000    276.1440
    155    156    157   1    112.7000    488.2728
    155    156    160   1    110.7000    313.8000
    155    156    164   1    112.7000    488.2728
    157    156    160   1    110.7000    313.8000
    157    156    164   1    112.7000    488.2728
    160    156    164   1    110.7000    313.8000
    156    157    161   1    110.7000    313.8000
    156    157    162   1    110.7000    313.8000
    156    157    163   1    110.7000    313.8000
    161    157    162   1    107.8000    276.1440
    161    157    163   1    107.8000    276.1440
    162    157    163   1    107.8000    276.1440
    156    164    165   1    112.7000    488.2728
    156    164    167   1    110.7000    313.8000
    156    164    168   1    110.7000    313.8000
    165    164    167   1    110.7000    313.8000
    165    164    168   1    110.7000    313.8000
    167    164    168   1    107.8000    276.1440
    164    165    166   1    112.7000    488.2728
    164    165    169   1    110.7000    313.8000
    164    165    173   1    112.7000    488.2728
    166    165    169   1    110.7000    313.8000
    166    165    173   1    112.7000    488.2728
    169    165    173   1    110.7000    313.8000
    165    166    170   1    110.7000    313.8000
    165    166    171   1    110.7000    313.8000
    165    166    172   1    110.7000    313.8000
    170    166    171   1    107.8000    276.1440
    170    166    172   1    107.8000    276.1440
    171    166    172   1    107.8000    276.1440
    165    173    174   1    112.7000    488.2728
    165    173    176   1    110.7000    313.8000
    165    173    177   1    110.7000    313.8000
    174    173    176   1    110.7000    313.8000
    174    173    177   1    110.7000    313.8000
    176    173    177   1    107.8000    276.1440
    173    174    175   1    112.7000    488.2728
    173    174    178   1    110.7000    313.8000
    173    174    182   1    110.7000    313.8000
    175    174    178   1    110.7000    313.8000
    175    174    182   1    110.7000    313.8000
    178    174    182   1    107.8000    276.1440
    174    175    179   1    110.7000    313.8000
    174    175    180   1    110.7000    313.8000
    174    175    181   1    110.7000    313.8000
    179    175    180   1    107.8000    276.1440
    179    175    181   1    107.8000    276.1440
    180    175    181   1    107.8000    276.1440

[ dihedrals ]
; Proper dihedrals
      4      1      2      3   5     0.00000     0.00000     1.25520  0.0
      4      1      2      6   5     0.00000     0.00000     1.25520  0.0
      4      1      2     11   5     0.00000     0.00000     1.25520  0.0
      5      1      2      3   5     0.00000     0.00000     1.25520  0.0
      5      1      2      6   5     0.00000     0.00000     1.25520  0.0
      5      1      2     11   5     0.00000     0.00000     1.25520  0.0
     10      1      2      3   5     0.00000     0.00000     1.25520  0.0
     10      1      2      6   5     0.00000     0.00000     1.25520  0.0
     10      1      2     11   5     0.00000     0.00000     1.25520  0.0
      1      2      3      7   5     0.00000     0.00000     1.25520  0.0
      1      2      3      8   5     0.00000     0.00000     1.25520  0.0
      1      2      3      9   5     0.00000     0.00000     1.25520  0.0
      6      2      3      7   5     0.00000     0.00000     1.25520  0.0
      6      2      3      8   5     0.00000     0.00000     1.25520  0.0
      6      2      3      9   5     0.00000     0.00000     1.25520  0.0
     11      2      3      7   5     0.00000     0.00000     1.25520  0.0
     11      2      3      8   5     0.00000     0.00000     1.25520  0.0
     11      2      3      9   5     0.00000     0.00000     1.25520  0.0
      1      2     11     12   5     4.74884    -0.63178     1.67360  0.0
      1      2     11     14   5     0.00000     0.00000     1.25520  0.0
      1      2     11     15   5     0.00000     0.00000     1.25520  0.0
      3      2     11     12   5     4.74884    -0.63178     1.67360  0.0
      3      2     11     14   5     0.00000     0.00000     1.25520  0.0
      3      2     11     15   5     0.00000     0.00000     1.25520  0.0
      6      2     11     12   5     0.00000     0.00000     1.25520  0.0
      6      2     11     14   5     0.00000     0.00000     1.25520  0.0
      6      2     11     15   5     0.00000     0.00000     1.25520  0.0
      2     11     12     13   5     4.74884    -0.63178     1.67360  0.0
      2     11     12     16   5     0.00000     0.00000     1.25520  0.0
      2     11     12     20   5     4.74884    -0.63178     1.67360  0.0
     14     11     12     13   5     0.00000     0.00000     1.25520  0.0
     14     11     12     16   5     0.00000     0.00000     1.25520  0.0
     14     11     12     20   5     0.00000     0.00000     1.25520  0.0
     15     11     12     13   5     0.00000     0.00000     1.25520  0.0
     15     11     12     16   5     0.00000     0.00000     1.25520  0.0
     15     11     12     20   5     0.00000     0.00000     1.25520  0.0
     11     12     13     17   5     0.00000     0.00000     1.25520  0.0
     11     12     13     18   5     0.00000     0.00000     1.25520  0.0
     11     12     13     19   5     0.00000     0.00000     1.25520  0.0
     16     12     13     17   5     0.00000     0.00000     1.25520  0.0
     16     12     13     18   5     0.00000     0.00000     1.25520  0.0
     16     12     13     19   5     0.00000     0.00000     1.25520  0.0
     20     12     13     17   5     0.00000     0.00000     1.25520  0.0
     20     12     13     18   5     0.00000     0.00000     1.25520  0.0
     20     12     13     19   5     0.00000     0.00000     1.25520  0.0
     11     12     20     21   5     4.74884    -0.63178     1.67360  0.0
     11     12     20     23   5     0.00000     0.00000     1.25520  0.0
     11     12     20     24   5     0.00000     0.00000     1.25520  0.0
     13     12     20     21   5     4.74884    -0.63178     1.67360  0.0
     13     12     20     23   5     0.00000     0.00000     1.25520  0.0
     13     12     20     24   5     0.00000     0.00000     1.25520  0.0
     16     12     20     21   5     0.00000     0.00000     1.25520  0.0
     16     12     20     23   5     0.00000     0.00000     1.25520  0.0
     16     12     20     24   5     0.00000     0.00000     1.25520  0.0
     12     20     21     22   5     4.74884    -0.63178     1.67360  0.0
     12     20     21     25   5     0.00000     0.00000     1.25520  0.0
     12     20     21     29   5     4.74884    -0.63178     1.67360  0.0
     23     20     21     22   5     0.00000     0.00000     1.25520  0.0
     23     20     21     25   5     0.00000     0.00000     1.25520  0.0
     23     20     21     29   5     0.00000     0.00000     1.25520  0.0
     24     20     21     22   5     0.00000     0.00000     1.25520  0.0
     24     20     21     25   5     0.00000     0.00000     1.25520  0.0
     24     20     21     29   5     0.00000     0.00000     1.25520  0.0
     20     21     22     26   5     0.00000     0.00000     1.25520  0.0
     20     21     22     27   5     0.00000     0.00000     1.25520  0.0
     20     21     22     28   5     0.00000     0.00000     1.25520  0.0
     25     21     22     26   5     0.00000     0.00000     1.25520  0.0
     25     21     22     27   5     0.00000     0.00000     1.25520  0.0
     25     21     22     28   5     0.00000     0.00000     1.25520  0.0
     29     21     22     26   5     0.00000     0.00000     1.25520  0.0
     29     21     22     27   5     0.00000     0.00000     1.25520  0.0
     29     21     22     28   5     0.00000     0.00000     1.25520  0.0
     20     21     29     30   5     4.74884    -0.63178     1.67360  0.0
     20     21     29     32   5     0.00000     0.00000     1.25520  0.0
     20     21     29     33   5     0.00000     0.00000     1.25520  0.0
     22     21     29     30   5     4.74884    -0.63178     1.67360  0.0
     22     21     29     32   5     0.00000     0.00000     1.25520  0.0
     22     21     29     33   5     0.00000     0.00000     1.25520  0.0
     25     21     29     30   5     0.00000     0.00000     1.25520  0.0
     25     21     29     32   5     0.00000     0.00000     1.25520  0.0
     25     21     29     33   5     0.00000     0.00000     1.25520  0.0
     21     29     30     31   5     4.74884    -0.63178     1.67360  0.0
     21     29     30     34   5     0.00000     0.00000     1.25520  0.0
     21     29     30     38   5     4.74884    -0.63178     1.67360  0.0
     32     29     30     31   5     0.00000     0.00000     1.25520  0.0
     32     29     30     34   5     0.00000     0.00000     1.25520  0.0
     32     29     30     38   5     0.00000     0.00000     1.25520  0.0
     33     29     30     31   5     0.00000     0.00000     1.25520  0.0
     33     29     30     34   5     0.00000     0.00000     1.25520  0.0
     33     29     30     38   5     0.00000     0.00000     1.25520  0.0
     29     30     31     35   5     0.00000     0.00000     1.25520  0.0
     29     30     31     36   5     0.00000     0.00000     1.25520  0.0
     29     30     31     37   5     0.00000     0.00000     1.25520  0.0
     34     30     31     35   5     0.00000     0.00000     1.25520  0.0
     34     30     31     36   5     0.00000     0.00000     1.25520  0.0
     34     30     31     37   5     0.00000     0.00000     1.25520  0.0
     38     30     31     35   5     0.00000     0.00000     1.25520  0.0
     38     30     31     36   5     0.00000     0.00000     1.25520  0.0
     38     30     31     37   5     0.00000     0.00000     1.25520  0.0
     29     30     38     39   5     4.74884    -0.63178     1.67360  0.0
     29     30     38     41   5     0.00000     0.00000     1.25520  0.0
     29     30     38     42   5     0.00000     0.00000     1.25520  0.0
     31     30     38     39   5     4.74884    -0.63178     1.67360  0.0
     31     30     38     41   5     0.00000     0.00000     1.25520  0.0
     31     30     38     42   5     0.00000     0.00000     1.25520  0.0
     34     30     38     39   5     0.00000     0.00000     1.25520  0.0
     34     30     38     41   5     0.00000     0.00000     1.25520  0.0
     34     30     38     42   5     0.00000     0.00000     1.25520  0.0
     30     38     39     40   5     4.74884    -0.63178     1.67360  0.0
     30     38     39     43   5     0.00000     0.00000     1.25520  0.0
     30     38     39     47   5     4.74884    -0.63178     1.67360  0.0
     41     38     39     40   5     0.00000     0.00000     1.25520  0.0
     41     38     39     43   5     0.00000     0.00000     1.25520  0.0
     41     38     39     47   5     0.00000     0.00000     1.25520  0.0
     42     38     39     40   5     0.00000     0.00000     1.25520  0.0
     42     38     39     43   5     0.00000     0.00000     1.25520  0.0
     42     38     39     47   5     0.00000     0.00000     1.25520  0.0
     38     39     40     44   5     0.00000     0.00000     1.25520  0.0
     38     39     40     45   5     0.00000     0.00000     1.25520  0.0
     38     39     40     46   5     0.00000     0.00000     1.25520  0.0
     43     39     40     44   5     0.00000     0.00000     1.25520  0.0
     43     39     40     45   5     0.00000     0.00000     1.25520  0.0
     43     39     40     46   5     0.00000     0.00000     1.25520  0.0
     47     39     40     44   5     0.00000     0.00000     1.25520  0.0
     47     39     40     45   5     0.00000     0.00000     1.25520  0.0
     47     39     40     46   5     0.00000     0.00000     1.25520  0.0
     38     39     47     48   5     4.74884    -0.63178     1.67360  0.0
     38     39     47     50   5     0.00000     0.00000     1.25520  0.0
     38     39     47     51   5     0.00000     0.00000     1.25520  0.0
     40     39     47     48   5     4.74884    -0.63178     1.67360  0.0
     40     39     47     50   5     0.00000     0.00000     1.25520  0.0
     40     39     47     51   5     0.00000     0.00000     1.25520  0.0
     43     39     47     48   5     0.00000     0.00000     1.25520  0.0
     43     39     47     50   5     0.00000     0.00000     1.25520  0.0
     43     39     47     51   5     0.00000     0.00000     1.25520  0.0
     39     47     48     49   5     4.74884    -0.63178     1.67360  0.0
     39     47     48     52   5     0.00000     0.00000     1.25520  0.0
     39     47     48     56   5     4.74884    -0.63178     1.67360  0.0
     50     47     48     49   5     0.00000     0.00000     1.25520  0.0
     50     47     48     52   5     0.00000     0.00000     1.25520  0.0
     50     47     48     56   5     0.00000     0.00000     1.25520  0.0
     51     47     48     49   5     0.00000     0.00000     1.25520  0.0
     51     47     48     52   5     0.00000     0.00000     1.25520  0.0
     51     47     48     56   5     0.00000     0.00000     1.25520  0.0
     47     48     49     53   5     0.00000     0.00000     1.25520  0.0
     47     48     49     54   5     0.00000     0.00000     1.25520  0.0
     47     48     49     55   5     0.00000     0.00000     1.25520  0.0
     52     48     49     53   5     0.00000     0.00000     1.25520  0.0
     52     48     49     54   5     0.00000     0.00000     1.25520  0.0
     52     48     49     55   5     0.00000     0.00000     1.25520  0.0
     56     48     49     53   5     0.00000     0.00000     1.25520  0.0
     56     48     49     54   5     0.00000     0.00000     1.25520  0.0
     56     48     49     55   5     0.00000     0.00000     1.25520  0.0
     47     48     56     57   5     4.74884    -0.63178     1.67360  0.0
     47     48     56     59   5     0.00000     0.00000     1.25520  0.0
     47     48     56     60   5     0.00000     0.00000     1.25520  0.0
     49     48     56     57   5     4.74884    -0.63178     1.67360  0.0
     49     48     56     59   5     0.00000     0.00000     1.25520  0.0
     49     48     56     60   5     0.00000     0.00000     1.25520  0.0
     52     48     56     57   5     0.00000     0.00000     1.25520  0.0
     52     48     56     59   5     0.00000     0.00000     1.25520  0.0
     52     48     56     60   5     0.00000     0.00000     1.25520  0.0
     48     56     57     58   5     4.74884    -0.63178     1.67360  0.0
     48     56     57     61   5     0.00000     0.00000     1.25520  0.0
     48     56     57     65   5     4.74884    -0.63178     1.67360  0.0
     59     56     57     58   5     0.00000     0.00000     1.25520  0.0
     59     56     57     61   5     0.00000     0.00000     1.25520  0.0
     59     56     57     65   5     0.00000     0.00000     1.25520  0.0
     60     56     57     58   5     0.00000     0.00000     1.25520  0.0
     60     56     57     61   5     0.00000     0.00000     1.25520  0.0
     60     56     57     65   5     0.00000     0.00000     1.25520  0.0
     56     57     58     62   5     0.00000     0.00000     1.25520  0.0
     56     57     58     63   5     0.00000     0.00000     1.25520  0.0
     56     57     58     64   5     0.00000     0.00000     1.25520  0.0
     61     57     58     62   5     0.00000     0.00000     1.25520  0.0
     61     57     58     63   5     0.00000     0.00000     1.25520  0.0
     61     57     58     64   5     0.00000     0.00000     1.25520  0.0
     65     57     58     62   5     0.00000     0.00000     1.25520  0.0
     65     57     58     63   5     0.00000     0.00000     1.25520  0.0
     65     57     58     64   5     0.00000     0.00000     1.25520  0.0
     56     57     65     66   5     4.74884    -0.63178     1.67360  0.0
     56     57     65     68   5     0.00000     0.00000     1.25520  0.0
     56     57     65     69   5     0.00000     0.00000     1.25520  0.0
     58     57     65     66   5     4.74884    -0.63178     1.67360  0.0
     58     57     65     68   5     0.00000     0.00000     1.25520  0.0
     58     57     65     69   5     0.00000     0.00000     1.25520  0.0
     61     57     65     66   5     0.00000     0.00000     1.25520  0.0
     61     57     65     68   5     0.00000     0.00000     1.25520  0.0
     61     57     65     69   5     0.00000     0.00000     1.25520  0.0
     57     65     66     67   5     4.74884    -0.63178     1.67360  0.0
     57     65     66     70   5     0.00000     0.00000     1.25520  0.0
     57     65     66     74   5     4.74884    -0.63178     1.67360  0.0
     68     65     66     67   5     0.00000     0.00000     1.25520  0.0
     68     65     66     70   5     0.00000     0.00000     1.25520  0.0
     68     65     66     74   5     0.00000     0.00000     1.25520  0.0
     69     65     66     67   5     0.00000     0.00000     1.25520  0.0
     69     65     66     70   5     0.00000     0.00000     1.25520  0.0
     69     65     66     74   5     0.00000     0.00000     1.25520  0.0
     65     66     67     71   5     0.00000     0.00000     1.25520  0.0
     65     66     67     72   5     0.00000     0.00000     1.25520  0.0
     65     66     67     73   5     0.00000     0.00000     1.25520  0.0
     70     66     67     71   5     0.00000     0.00000     1.25520  0.0
     70     66     67     72   5     0.00000     0.00000     1.25520  0.0
     70     66     67     73   5     0.00000     0.00000     1.25520  0.0
     74     66     67     71   5     0.00000     0.00000     1.25520  0.0
     74     66     67     72   5     0.00000     0.00000     1.25520  0.0
     74     66     67     73   5     0.00000     0.00000     1.25520  0.0
     65     66     74     75   5     4.74884    -0.63178     1.67360  0.0
     65     66     74     77   5     0.00000     0.00000     1.25520  0.0
     65     66     74     78   5     0.00000     0.00000     1.25520  0.0
     67     66     74     75   5     4.74884    -0.63178     1.67360  0.0
     67     66     74     77   5     0.00000     0.00000     1.25520  0.0
     67     66     74     78   5     0.00000     0.00000     1.25520  0.0
     70     66     74     75   5     0.00000     0.00000     1.25520  0.0
     70     66     74     77   5     0.00000     0.00000     1.25520  0.0
     70     66     74     78   5     0.00000     0.00000     1.25520  0.0
     66     74     75     76   5     4.74884    -0.63178     1.67360  0.0
     66     74     75     79   5     0.00000     0.00000     1.25520  0.0
     66     74     75     83   5     4.74884    -0.63178     1.67360  0.0
     77     74     75     76   5     0.00000     0.00000     1.25520  0.0
     77     74     75     79   5     0.00000     0.00000     1.25520  0.0
     77     74     75     83   5     0.00000     0.00000     1.25520  0.0
     78     74     75     76   5     0.00000     0.00000     1.25520  0.0
     78     74     75     79   5     0.00000     0.00000     1.25520  0.0
     78     74     75     83   5     0.00000     0.00000     1.25520  0.0
     74     75     76     80   5     0.00000     0.00000     1.25520  0.0
     74     75     76     81   5     0.00000     0.00000     1.25520  0.0
     74     75     76     82   5     0.00000     0.00000     1.25520  0.0
     79     75     76     80   5     0.00000     0.00000     1.25520  0.0
     79     75     76     81   5     0.00000     0.00000     1.25520  0.0
     79     75     76     82   5     0.00000     0.00000     1.25520  0.0
     83     75     76     80   5     0.00000     0.00000     1.25520  0.0
     83     75     76     81   5     0.00000     0.00000     1.25520  0.0
     83     75     76     82   5     0.00000     0.00000     1.25520  0.0
     74     75     83     84   5     4.74884    -0.63178     1.67360  0.0
     74     75     83     86   5     0.00000     0.00000     1.25520  0.0
     74     75     83     87   5     0.00000     0.00000     1.25520  0.0
     76     75     83     84   5     4.74884    -0.63178     1.67360  0.0
     76     75     83     86   5     0.00000     0.00000     1.25520  0.0
     76     75     83     87   5     0.00000     0.00000     1.25520  0.0
     79     75     83     84   5     0.00000     0.00000     1.25520  0.0
     79     75     83     86   5     0.00000     0.00000     1.25520  0.0
     79     75     83     87   5     0.00000     0.00000     1.25520  0.0
     75     83     84     85   5     4.74884    -0.63178     1.67360  0.0
     75     83     84     88   5     0.00000     0.00000     1.25520  0.0
     75     83     84     92   5     4.74884    -0.63178     1.67360  0.0
     86     83     84     85   5     0.00000     0.00000     1.25520  0.0
     86     83     84     88   5     0.00000     0.00000     1.25520  0.0
     86     83     84     92   5     0.00000     0.00000     1.25520  0.0
     87     83     84     85   5     0.00000     0.00000     1.25520  0.0
     87     83     84     88   5     0.00000     0.00000     1.25520  0.0
     87     83     84     92   5     0.00000     0.00000     1.25520  0.0
     83     84     85     89   5     0.00000     0.00000     1.25520  0.0
     83     84     85     90   5     0.00000     0.00000     1.25520  0.0
     83     84     85     91   5     0.00000     0.00000     1.25520  0.0
     88     84     85     89   5     0.00000     0.00000     1.25520  0.0
     88     84     85     90   5     0.00000     0.00000     1.25520  0.0
     88     84     85     91   5     0.00000     0.00000     1.25520  0.0
     92     84     85     89   5     0.00000     0.00000     1.25520  0.0
     92     84     85     90   5     0.00000     0.00000     1.25520  0.0
     92     84     85     91   5     0.00000     0.00000     1.25520  0.0
     83     84     92     93   5     4.74884    -0.63178     1.67360  0.0
     83     84     92     95   5     0.00000     0.00000     1.25520  0.0
     83     84     92     96   5     0.00000     0.00000     1.25520  0.0
     85     84     92     93   5     4.74884    -0.63178     1.67360  0.0
     85     84     92     95   5     0.00000     0.00000     1.25520  0.0
     85     84     92     96   5     0.00000     0.00000     1.25520  0.0
     88     84     92     93   5     0.00000     0.00000     1.25520  0.0
     88     84     92     95   5     0.00000     0.00000     1.25520  0.0
     88     84     92     96   5     0.00000     0.00000     1.25520  0.0
     84     92     93     94   5     4.74884    -0.63178     1.67360  0.0
     84     92     93     97   5     0.00000     0.00000     1.25520  0.0
     84     92     93    101   5     4.74884    -0.63178     1.67360  0.0
     95     92     93     94   5     0.00000     0.00000     1.25520  0.0
     95     92     93     97   5     0.00000     0.00000     1.25520  0.0
     95     92     93    101   5     0.00000     0.00000     1.25520  0.0
     96     92     93     94   5     0.00000     0.00000     1.25520  0.0
     96     92     93     97   5     0.00000     0.00000     1.25520  0.0
     96     92     93    101   5     0.00000     0.00000     1.25520  0.0
     92     93     94     98   5     0.00000     0.00000     1.25520  0.0
     92     93     94     99   5     0.00000     0.00000     1.25520  0.0
     92     93     94    100   5     0.00000     0.00000     1.25520  0.0
     97     93     94     98   5     0.00000     0.00000     1.25520  0.0
     97     93     94     99   5     0.00000     0.00000     1.25520  0.0
     97     93     94    100   5     0.00000     0.00000     1.25520  0.0
    101     93     94     98   5     0.00000     0.00000     1.25520  0.0
    101     93     94     99   5     0.00000     0.00000     1.25520  0.0
    101     93     94    100   5     0.00000     0.00000     1.25520  0.0
     92     93    101    102   5     4.74884    -0.63178     1.67360  0.0
     92     93    101    104   5     0.00000     0.00000     1.25520  0.0
     92     93    101    105   5     0.00000     0.00000     1.25520  0.0
     94     93    101    102   5     4.74884    -0.63178     1.67360  0.0
     94     93    101    104   5     0.00000     0.00000     1.25520  0.0
     94     93    101    105   5     0.00000     0.00000     1.25520  0.0
     97     93    101    102   5     0.00000     0.00000     1.25520  0.0
     97     93    101    104   5     0.00000     0.00000     1.25520  0.0
     97     93    101    105   5     0.00000     0.00000     1.25520  0.0
     93    101    102    103   5     4.74884    -0.63178     1.67360  0.0
     93    101    102    106   5     0.00000     0.00000     1.25520  0.0
     93    101    102    110   5     4.74884    -0.63178     1.67360  0.0
    104    101    102    103   5     0.00000     0.00000     1.25520  0.0
    104    101    102    106   5     0.00000     0.00000     1.25520  0.0
    104    101    102    110   5     0.00000     0.00000     1.25520  0.0
    105    101    102    103   5     0.00000     0.00000     1.25520  0.0
    105    101    102    106   5     0.00000     0.00000     1.25520  0.0
    105    101    102    110   5     0.00000     0.00000     1.25520  0.0
    101    102    103    107   5     0.00000     0.00000     1.25520  0.0
    101    102    103    108   5     0.00000     0.00000     1.25520  0.0
    101    102    103    109   5     0.00000     0.00000     1.25520  0.0
    106    102    103    107   5     0.00000     0.00000     1.25520  0.0
    106    102    103    108   5     0.00000     0.00000     1.25520  0.0
    106    102    103    109   5     0.00000     0.00000     1.25520  0.0
    110    102    103    107   5     0.00000     0.00000     1.25520  0.0
    110    102    103    108   5     0.00000     0.00000     1.25520  0.0
    110    102    103    109   5     0.00000     0.00000     1.25520  0.0
    101    102    110    111   5     4.74884    -0.63178     1.67360  0.0
    101    102    110    113   5     0.00000     0.00000     1.25520  0.0
    101    102    110    114   5     0.00000     0.00000     1.25520  0.0
    103    102    110    111   5     4.74884    -0.63178     1.67360  0.0
    103    102    110    113   5     0.00000     0.00000     1.25520  0.0
    103    102    110    114   5     0.00000     0.00000     1.25520  0.0
    106    102    110    111   5     0.00000     0.00000     1.25520  0.0
    106    102    110    113   5     0.00000     0.00000     1.25520  0.0
    106    102    110    114   5     0.00000     0.00000     1.25520  0.0
    102    110    111    112   5     4.74884    -0.63178     1.67360  0.0
    102    110    111    115   5     0.00000     0.00000     1.25520  0.0
    102    110    111    119   5     4.74884    -0.63178     1.67360  0.0
    113    110    111    112   5     0.00000     0.00000     1.25520  0.0
    113    110    111    115   5     0.00000     0.00000     1.25520  0.0
    113    110    111    119   5     0.00000     0.00000     1.25520  0.0
    114    110    111    112   5     0.00000     0.00000     1.25520  0.0
    114    110    111    115   5     0.00000     0.00000     1.25520  0.0
    114    110    111    119   5     0.00000     0.00000     1.25520  0.0
    110    111    112    116   5     0.00000     0.00000     1.25520  0.0
    110    111    112    117   5     0.00000     0.00000     1.25520  0.0
    110    111    112    118   5     0.00000     0.00000     1.25520  0.0
    115    111    112    116   5     0.00000     0.00000     1.25520  0.0
    115    111    112    117   5     0.00000     0.00000     1.25520  0.0
    115    111    112    118   5     0.00000     0.00000     1.25520  0.0
    119    111    112    116   5     0.00000     0.00000     1.25520  0.0
    119    111    112    117   5     0.00000     0.00000     1.25520  0.0
    119    111    112    118   5     0.00000     0.00000     1.25520  0.0
    110    111    119    120   5     4.74884    -0.63178     1.67360  0.0
    110    111    119    122   5     0.00000     0.00000     1.25520  0.0
    110    111    119    123   5     0.00000     0.00000     1.25520  0.0
    112    111    119    120   5     4.74884    -0.63178     1.67360  0.0
    112    111    119    122   5     0.00000     0.00000     1.25520  0.0
    112    111    119    123   5     0.00000     0.00000     1.25520  0.0
    115    111    119    120   5     0.00000     0.00000     1.25520  0.0
    115    111    119    122   5     0.00000     0.00000     1.25520  0.0
    115    111    119    123   5     0.00000     0.00000     1.25520  0.0
    111    119    120    121   5     4.74884    -0.63178     1.67360  0.0
    111    119    120    124   5     0.00000     0.00000     1.25520  0.0
    111    119    120    128   5     4.74884    -0.63178     1.67360  0.0
    122    119    120    121   5     0.00000     0.00000     1.25520  0.0
    122    119    120    124   5     0.00000     0.00000     1.25520  0.0
    122    119    120    128   5     0.00000     0.00000     1.25520  0.0
    123    119    120    121   5     0.00000     0.00000     1.25520  0.0
    123    119    120    124   5     0.00000     0.00000     1.25520  0.0
    123    119    120    128   5     0.00000     0.00000     1.25520  0.0
    119    120    121    125   5     0.00000     0.00000     1.25520  0.0
    119    120    121    126   5     0.00000     0.00000     1.25520  0.0
    119    120    121    127   5     0.00000     0.00000     1.25520  0.0
    124    120    121    125   5     0.00000     0.00000     1.25520  0.0
    124    120    121    126   5     0.00000     0.00000     1.25520  0.0
    124    120    121    127   5     0.00000     0.00000     1.25520  0.0
    128    120    121    125   5     0.00000     0.00000     1.25520  0.0
    128    120    121    126   5     0.00000     0.00000     1.25520  0.0
    128    120    121    127   5     0.00000     0.00000     1.25520  0.0
    119    120    128    129   5     4.74884    -0.63178     1.67360  0.0
    119    120    128    131   5     0.00000     0.00000     1.25520  0.0
    119    120    128    132   5     0.00000     0.00000     1.25520  0.0
    121    120    128    129   5     4.74884    -0.63178     1.67360  0.0
    121    120    128    131   5     0.00000     0.00000     1.25520  0.0
    121    120    128    132   5     0.00000     0.00000     1.25520  0.0
    124    120    128    129   5     0.00000     0.00000     1.25520  0.0
    124    120    128    131   5     0.00000     0.00000     1.25520  0.0
    124    120    128    132   5     0.00000     0.00000     1.25520  0.0
    120    128    129    130   5     4.74884    -0.63178     1.67360  0.0
    120    128    129    133   5     0.00000     0.00000     1.25520  0.0
    120    128    129    137   5     4.74884    -0.63178     1.67360  0.0
    131    128    129    130   5     0.00000     0.00000     1.25520  0.0
    131    128    129    133   5     0.00000     0.00000     1.25520  0.0
    131    128    129    137   5     0.00000     0.00000     1.25520  0.0
    132    128    129    130   5     0.00000     0.00000     1.25520  0.0
    132    128    129    133   5     0.00000     0.00000     1.25520  0.0
    132    128    129    137   5     0.00000     0.00000     1.25520  0.0
    128    129    130    134   5     0.00000     0.00000     1.25520  0.0
    128    129    130    135   5     0.00000     0.00000     1.25520  0.0
    128    129    130    136   5     0.00000     0.00000     1.25520  0.0
    133    129    130    134   5     0.00000     0.00000     1.25520  0.0
    133    129    130    135   5     0.00000     0.00000     1.25520  0.0
    133    129    130    136   5     0.00000     0.00000     1.25520  0.0
    137    129    130    134   5     0.00000     0.00000     1.25520  0.0
    137    129    130    135   5     0.00000     0.00000     1.25520  0.0
    137    129    130    136   5     0.00000     0.00000     1.25520  0.0
    128    129    137    138   5     4.74884    -0.63178     1.67360  0.0
    128    129    137    140   5     0.00000     0.00000     1.25520  0.0
    128    129    137    141   5     0.00000     0.00000     1.25520  0.0
    130    129    137    138   5     4.74884    -0.63178     1.67360  0.0
    130    129    137    140   5     0.00000     0.00000     1.25520  0.0
    130    129    137    141   5     0.00000     0.00000     1.25520  0.0
    133    129    137    138   5     0.00000     0.00000     1.25520  0.0
    133    129    137    140   5     0.00000     0.00000     1.25520  0.0
    133    129    137    141   5     0.00000     0.00000     1.25520  0.0
    129    137    138    139   5     4.74884    -0.63178     1.67360  0.0
    129    137    138    142   5     0.00000     0.00000     1.25520  0.0
    129    137    138    146   5     4.74884    -0.63178     1.67360  0.0
    140    137    138    139   5     0.00000     0.00000     1.25520  0.0
    140    137    138    142   5     0.00000     0.00000     1.25520  0.0
    140    137    138    146   5     0.00000     0.00000     1.25520  0.0
    141    137    138    139   5     0.00000     0.00000     1.25520  0.0
    141    137    138    142   5     0.00000     0.00000     1.25520  0.0
    141    137    138    146   5     0.00000     0.00000     1.25520  0.0
    137    138    139    143   5     0.00000     0.00000     1.25520  0.0
    137    138    139    144   5     0.00000     0.00000     1.25520  0.0
    137    138    139    145   5     0.00000     0.00000     1.25520  0.0
    142    138    139    143   5     0.00000     0.00000     1.25520  0.0
    142    138    139    144   5     0.00000     0.00000     1.25520  0.0
    142    138    139    145   5     0.00000     0.00000     1.25520  0.0
    146    138    139    143   5     0.00000     0.00000     1.25520  0.0
    146    138    139    144   5     0.00000     0.00000     1.25520  0.0
    146    138    139    145   5     0.00000     0.00000     1.25520  0.0
    137    138    146    147   5     4.74884    -0.63178     1.67360  0.0
    137    138    146    149   5     0.00000     0.00000     1.25520  0.0
    137    138    146    150   5     0.00000     0.00000     1.25520  0.0
    139    138    146    147   5     4.74884    -0.63178     1.67360  0.0
    139    138    146    149   5     0.00000     0.00000     1.25520  0.0
    139    138    146    150   5     0.00000     0.00000     1.25520  0.0
    142    138    146    147   5     0.00000     0.00000     1.25520  0.0
    142    138    146    149   5     0.00000     0.00000     1.25520  0.0
    142    138    146    150   5     0.00000     0.00000     1.25520  0.0
    138    146    147    148   5     4.74884    -0.63178     1.67360  0.0
    138    146    147    151   5     0.00000     0.00000     1.25520  0.0
    138    146    147    155   5     4.74884    -0.63178     1.67360  0.0
    149    146    147    148   5     0.00000     0.00000     1.25520  0.0
    149    146    147    151   5     0.00000     0.00000     1.25520  0.0
    149    146    147    155   5     0.00000     0.00000     1.25520  0.0
    150    146    147    148   5     0.00000     0.00000     1.25520  0.0
    150    146    147    151   5     0.00000     0.00000     1.25520  0.0
    150    146    147    155   5     0.00000     0.00000     1.25520  0.0
    146    147    148    152   5     0.00000     0.00000     1.25520  0.0
    146    147    148    153   5     0.00000     0.00000     1.25520  0.0
    146    147    148    154   5     0.00000     0.00000     1.25520  0.0
    151    147    148    152   5     0.00000     0.00000     1.25520  0.0
    151    147    148    153   5     0.00000     0.00000     1.25520  0.0
    151    147    148    154   5     0.00000     0.00000     1.25520  0.0
    155    147    148    152   5     0.00000     0.00000     1.25520  0.0
    155    147    148    153   5     0.00000     0.00000     1.25520  0.0
    155    147    148    154   5     0.00000     0.00000     1.25520  0.0
    146    147    155    156   5     4.74884    -0.63178     1.67360  0.0
    146    147    155    158   5     0.00000     0.00000     1.25520  0.0
    146    147    155    159   5     0.00000     0.00000     1.25520  0.0
    148    147    155    156   5     4.74884    -0.63178     1.67360  0.0
    148    147    155    158   5     0.00000     0.00000     1.25520  0.0
    148    147    155    159   5     0.00000     0.00000     1.25520  0.0
    151    147    155    156   5     0.00000     0.00000     1.25520  0.0
    151    147    155    158   5     0.00000     0.00000     1.25520  0.0
    151    147    155    159   5     0.00000     0.00000     1.25520  0.0
    147    155    156    157   5     4.74884    -0.63178     1.67360  0.0
    147    155    156    160   5     0.00000     0.00000     1.25520  0.0
    147    155    156    164   5     4.74884    -0.63178     1.67360  0.0
    158    155    156    157   5     0.00000     0.00000     1.25520  0.0
    158    155    156    160   5     0.00000     0.00000     1.25520  0.0
    158    155    156    164   5     0.00000     0.00000     1.25520  0.0
    159    155    156    157   5     0.00000     0.00000     1.25520  0.0
    159    155    156    160   5     0.00000     0.00000     1.25520  0.0
    159    155    156    164   5     0.00000     0.00000     1.25520  0.0
    155    156    157    161   5     0.00000     0.00000     1.25520  0.0
    155    156    157    162   5     0.00000     0.00000     1.25520  0.0
    155    156    157    163   5     0.00000     0.00000     1.25520  0.0
    160    156    157    161   5     0.00000     0.00000     1.25520  0.0
    160    156    157    162   5     0.00000     0.00000     1.25520  0.0
    160    156    157    163   5     0.00000     0.00000     1.25520  0.0
    164    156    157    161   5     0.00000     0.00000     1.25520  0.0
    164    156    157    162   5     0.00000     0.00000     1.25520  0.0
    164    156    157    163   5     0.00000     0.00000     1.25520  0.0
    155    156    164    165   5     4.74884    -0.63178     1.67360  0.0
    155    156    164    167   5     0.00000     0.00000     1.25520  0.0
    155    156    164    168   5     0.00000     0.00000     1.25520  0.0
    157    156    164    165   5     4.74884    -0.63178     1.67360  0.0
    157    156    164    167   5     0.00000     0.00000     1.25520  0.0
    157    156    164    168   5     0.00000     0.00000     1.25520  0.0
    160    156    164    165   5     0.00000     0.00000     1.25520  0.0
    160    156    164    167   5     0.00000     0.00000     1.25520  0.0
    160    156    164    168   5     0.00000     0.00000     1.25520  0.0
    156    164    165    166   5     4.74884    -0.63178     1.67360  0.0
    156    164    165    169   5     0.00000     0.00000     1.25520  0.0
    156    164    165    173   5     4.74884    -0.63178     1.67360  0.0
    167    164    165    166   5     0.00000     0.00000     1.25520  0.0
    167    164    165    169   5     0.00000     0.00000     1.25520  0.0
    167    164    165    173   5     0.00000     0.00000     1.25520  0.0
    168    164    165    166   5     0.00000     0.00000     1.25520  0.0
    168    164    165    169   5     0.00000     0.00000     1.25520  0.0
    168    164    165    173   5     0.00000     0.00000     1.25520  0.0
    164    165    166    170   5     0.00000     0.00000     1.25520  0.0
    164    165    166    171   5     0.00000     0.00000     1.25520  0.0
    164    165    166    172   5     0.00000     0.00000     1.25520  0.0
    169    165    166    170   5     0.00000     0.00000     1.25520  0.0
    169    165    166    171   5     0.00000     0.00000     1.25520  0.0
    169    165    166    172   5     0.00000     0.00000     1.25520  0.0
    173    165    166    170   5     0.00000     0.00000     1.25520  0.0
    173    165    166    171   5     0.00000     0.00000     1.25520  0.0
    173    165    166    172   5     0.00000     0.00000     1.25520  0.0
    164    165    173    174   5     4.74884    -0.63178     1.67360  0.0
    164    165    173    176   5     0.00000     0.00000     1.25520  0.0
    164    165    173    177   5     0.00000     0.00000     1.25520  0.0
    166    165    173    174   5     4.74884    -0.63178     1.67360  0.0
    166    165    173    176   5     0.00000     0.00000     1.25520  0.0
    166    165    173    177   5     0.00000     0.00000     1.25520  0.0
    169    165    173    174   5     0.00000     0.00000     1.25520  0.0
    169    165    173    176   5     0.00000     0.00000     1.25520  0.0
    169    165    173    177   5     0.00000     0.00000     1.25520  0.0
    165    173    174    175   5     4.74884    -0.63178     1.67360  0.0
    165    173    174    178   5     0.00000     0.00000     1.25520  0.0
    165    173    174    182   5     0.00000     0.00000     1.25520  0.0
    176    173    174    175   5     0.00000     0.00000     1.25520  0.0
    176    173    174    178   5     0.00000     0.00000     1.25520  0.0
    176    173    174    182   5     0.00000     0.00000     1.25520  0.0
    177    173    174    175   5     0.00000     0.00000     1.25520  0.0
    177    173    174    178   5     0.00000     0.00000     1.25520  0.0
    177    173    174    182   5     0.00000     0.00000     1.25520  0.0
    173    174    175    179   5     0.00000     0.00000     1.25520  0.0
    173    174    175    180   5     0.00000     0.00000     1.25520  0.0
    173    174    175    181   5     0.00000     0.00000     1.25520  0.0
    178    174    175    179   5     0.00000     0.00000     1.25520  0.0
    178    174    175    180   5     0.00000     0.00000     1.25520  0.0
    178    174    175    181   5     0.00000     0.00000     1.25520  0.0
    182    174    175    179   5     0.00000     0.00000     1.25520  0.0
    182    174    175    180   5     0.00000     0.00000     1.25520  0.0
    182    174    175    181   5     0.00000     0.00000     1.25520  0.0
