Control file title. For DL_FIELD 4.10
49910
    1MOL     C1    1   3.399   0.845   2.637 -0.5990 -0.3430  0.7116
    1MOL     C2    2   3.334   0.711   2.608  0.1729  0.1554  0.2175
    1MOL     C3    3   3.307   0.953   2.697  0.0167 -0.2864  0.2735
    1MOL     C4    4   3.190   1.008   2.611 -0.4961  0.3880 -0.2652
    1MOL     C5    5   3.063   1.063   2.685  0.7073  0.0984 -0.0879
    1MOL     C6    6   3.186   0.999   2.482 -0.1079  0.2341 -0.9562
    1MOL     H7    7   3.482   0.829   2.707  0.4702  0.8127 -0.2626
    1MOL     H8    8   3.399   0.627   2.582  0.8174  0.2404  1.5286
    1MOL     H9    9   3.267   0.720   2.522 -2.1081 -0.5029  1.8651
    1MOL    H10   10   3.277   0.682   2.696  2.3624 -0.0453  1.5909
    1MOL    H11   11   3.249   0.903   2.774  0.4094 -0.8774  0.1884
    1MOL    H12   12   3.090   1.159   2.731 -1.4242  0.8189 -0.2685
    1MOL    H13   13   3.013   0.994   2.753 -1.0284  1.7955  0.4240
    1MOL    H14   14   2.985   1.070   2.610 -1.5260  1.2065  2.2478
    1MOL    H15   15   3.265   0.954   2.423  0.0770  0.1313 -0.6294
    1MOL    H16   16   3.107   1.040   2.420 -0.5298  0.0751 -0.5281
    1MOL    H17   17   3.454   0.870   2.546  2.8076 -0.1295  2.7411
    1MOL    C18   18   3.407   1.057   2.764  0.1254 -0.4076  0.5226
    1MOL    C19   19   3.340   1.147   2.862  0.4747  0.0669 -0.3651
    1MOL    C20   20   3.510   1.127   2.669 -0.3401  0.7542 -0.3727
    1MOL    C21   21   3.652   1.109   2.720  0.1095 -0.1871  0.5377
    1MOL    C22   22   3.699   1.187   2.846 -0.6233 -0.3616 -0.8746
    1MOL    C23   23   3.738   1.025   2.656 -0.2920 -0.0080  0.1374
    1MOL    H24   24   3.460   0.990   2.831 -0.6087 -0.3655  1.1531
    1MOL    H25   25   3.413   1.212   2.911  0.0345 -0.8086  1.4947
    1MOL    H26   26   3.293   1.100   2.948  0.1839 -1.9224 -1.5803
    1MOL    H27   27   3.269   1.219   2.821  0.5803  0.8695  0.8432
    1MOL    H28   28   3.506   1.070   2.576  0.5212 -0.1334  0.1212
    1MOL    H29   29   3.682   1.294   2.839  0.2067  0.1285  3.6950
    1MOL    H30   30   3.803   1.160   2.866 -0.2676  0.6481 -1.3586
    1MOL    H31   31   3.637   1.157   2.930 -2.0751  0.1057 -1.7729
    1MOL    H32   32   3.702   0.956   2.581  0.9129 -3.2100  2.4006
    1MOL    H33   33   3.840   1.010   2.688 -1.0339 -2.3468  1.4840
    1MOL    C34   34   3.483   1.274   2.629  0.2514 -0.2461 -0.0241
    1MOL    C35   35   3.353   1.298   2.553  0.1453 -0.0812  0.2446
    1MOL    C36   36   3.609   1.357   2.563  0.1656 -0.3229  0.2231
    1MOL    C37   37   3.601   1.500   2.628  0.4511 -0.2325 -0.4735
    1MOL    C38   38   3.494   1.600   2.575 -0.4574 -1.0583 -0.3174
    1MOL    C39   39   3.697   1.532   2.716  0.3134 -0.0267  0.4752
    1MOL    H40   40   3.462   1.326   2.723  0.6267  1.2987 -0.7824
    1MOL    H41   41   3.328   1.400   2.524  0.7099 -0.5156 -1.8014
    1MOL    H42   42   3.271   1.261   2.614  0.3798 -0.4219  0.3533
    1MOL    H43   43   3.342   1.255   2.454 -0.3215  0.0504  0.2359
    1MOL    H44   44   3.702   1.312   2.596  0.7648 -0.0932 -1.0963
    1MOL    H45   45   3.405   1.577   2.633 -0.1579 -0.5975  0.3333
    1MOL    H46   46   3.482   1.603   2.467  2.3830 -0.7752 -0.6797
    1MOL    H47   47   3.508   1.706   2.598  0.8786 -0.6551 -2.8299
    1MOL    H48   48   3.774   1.465   2.750 -0.6944 -1.0407  0.7769
    1MOL    H49   49   3.701   1.631   2.757 -0.0356  0.4930 -0.7063
    1MOL    C50   50   3.623   1.346   2.405 -1.5153  0.6731  0.1963
    1MOL    C51   51   3.621   1.198   2.355  0.1711 -0.5091  0.3346
    1MOL    C52   52   3.734   1.435   2.336 -0.7664 -0.8359  0.2153
    1MOL    C53   53   3.684   1.515   2.217 -0.2271  0.3485 -0.1153
    1MOL    C54   54   3.648   1.659   2.235 -0.0570  0.9739 -0.2251
    1MOL    C55   55   3.670   1.459   2.095 -0.1019 -0.0666 -0.5758
    1MOL    H56   56   3.526   1.374   2.362 -1.4960 -2.0228 -1.6936
    1MOL    H57   57   3.627   1.205   2.246 -0.8958  0.6245  0.3378
    1MOL    H58   58   3.525   1.155   2.382 -0.1387  1.6618  2.9307
    1MOL    H59   59   3.703   1.138   2.393  1.7534  1.3436 -0.0187
    1MOL    H60   60   3.742   1.513   2.412 -1.1808 -0.8204  0.2439
    1MOL    H61   61   3.563   1.668   2.302  0.1610  0.9963  0.0463
    1MOL    H62   62   3.609   1.706   2.144 -1.3874 -0.2229 -0.2921
    1MOL    H63   63   3.734   1.720   2.262 -0.1944  0.3421  1.7229
    1MOL    H64   64   3.690   1.354   2.079  1.8434  0.2504 -0.3656
    1MOL    H65   65   3.630   1.500   2.004 -2.6800 -0.2790  0.4120
    1MOL    C66   66   3.876   1.376   2.317  0.5516  0.6452  0.1612
    1MOL    C67   67   3.940   1.291   2.437  0.9649  0.0565  0.2668
    1MOL    C68   68   3.989   1.477   2.276 -0.4944  0.3395 -0.0764
    1MOL    C69   69   4.100   1.402   2.203 -0.5696 -0.7614 -0.2970
    1MOL    C70   70   4.061   1.355   2.067  0.7672  0.5041 -0.0805
    1MOL    C71   71   4.222   1.370   2.255  0.4695 -0.5523  0.2557
    1MOL    H72   72   3.847   1.302   2.242 -0.5573  0.9049  0.3268
    1MOL    H73   73   3.946   1.342   2.533  0.1783 -0.9080  0.8387
    1MOL    H74   74   4.033   1.253   2.395 -0.8703  0.5163 -4.5227
    1MOL    H75   75   3.884   1.202   2.464 -1.0963  1.1038 -0.4141
    1MOL    H76   76   3.940   1.540   2.202 -0.8264 -0.3078 -0.4106
    1MOL    H77   77   4.036   1.430   1.992 -1.3072 -0.2559 -0.1697
    1MOL    H78   78   3.982   1.282   2.077 -0.1890  1.3245 -1.5158
    1MOL    H79   79   4.144   1.296   2.027  1.2169  0.8326  0.3546
    1MOL    H80   80   4.250   1.397   2.356 -0.0349 -1.7849  0.7491
    1MOL    H81   81   4.297   1.317   2.198  0.4398 -1.6588  1.2315
    1MOL    C82   82   4.047   1.578   2.383  0.5060 -0.0088  0.3623
    1MOL    C83   83   3.938   1.641   2.481  0.0342  0.3218  0.2334
    1MOL    C84   84   4.151   1.680   2.336 -0.1437  0.0150 -0.2577
    1MOL    C85   85   4.283   1.673   2.415 -0.4485  0.6125  0.5081
    1MOL    C86   86   4.259   1.707   2.561  0.2675 -0.2635  0.0105
    1MOL    C87   87   4.398   1.612   2.373 -0.3030  0.0175  0.4744
    1MOL    H88   88   4.102   1.512   2.450 -0.3296  0.1749  1.2440
    1MOL    H89   89   3.856   1.683   2.422 -1.4075 -1.4998  0.8719
    1MOL    H90   90   3.978   1.723   2.541 -2.0959  1.5789  0.0091
    1MOL    H91   91   3.890   1.576   2.554 -3.1360  1.2536 -0.9168
    1MOL    H92   92   4.174   1.648   2.235 -1.9930  0.9565 -1.0059
    1MOL    H93   93   4.223   1.809   2.572  2.7187  0.7897 -1.3816
    1MOL    H94   94   4.351   1.714   2.619  0.7438  0.1205 -0.7841
    1MOL    H95   95   4.195   1.631   2.606  0.3050  0.1093  0.6968
    1MOL    H96   96   4.421   1.580   2.272 -0.3217 -0.2775  0.5638
    1MOL    H97   97   4.480   1.594   2.442  0.8321 -2.6463 -1.4784
    1MOL    C98   98   4.102   1.832   2.306  0.6401  0.4744  0.3211
    1MOL    C99   99   4.026   1.839   2.167  0.3734 -0.7534 -0.3837
    1MOL   C100  100   4.200   1.963   2.329 -0.5650 -0.0269  0.5734
    1MOL   C101  101   4.126   2.080   2.401  0.5467 -1.0741  0.4079
    1MOL   C102  102   4.019   2.157   2.323 -0.9966 -0.0564  0.1153
    1MOL   C103  103   4.158   2.113   2.529 -0.0379 -0.4517 -0.7080
    1MOL   H104  104   4.025   1.853   2.380  0.4053  3.4725 -0.6966
    1MOL   H105  105   3.965   1.928   2.151  0.7472 -0.7837 -2.1083
    1MOL   H106  106   3.951   1.761   2.157  0.1070 -0.5266 -0.1725
    1MOL   H107  107   4.086   1.845   2.076 -0.3562  1.2846 -0.7615
    1MOL   H108  108   4.263   1.932   2.413 -2.1388 -2.0635  1.0211
    1MOL   H109  109   3.937   2.085   2.320 -0.0932 -1.0915 -0.1784
    1MOL   H110  110   4.045   2.167   2.218 -0.1041  0.6242  0.3895
    1MOL   H111  111   4.001   2.254   2.369  0.4206  0.4921 -0.4355
    1MOL   H112  112   4.228   2.066   2.596  0.1325  1.8679  0.7864
    1MOL   H113  113   4.111   2.199   2.574 -0.1714 -0.6549 -0.4665
    1MOL   C114  114   4.297   2.011   2.216 -0.0585 -0.1149 -0.4531
    1MOL   C115  115   4.393   1.902   2.158 -0.7620 -0.2345 -0.2368
    1MOL   C116  116   4.382   2.138   2.240  0.4782  0.1056  0.4933
    1MOL   C117  117   4.389   2.231   2.119  0.3194 -0.5294  0.4395
    1MOL   C118  118   4.496   2.193   2.018 -0.2321  0.1760 -0.1664
    1MOL   C119  119   4.295   2.325   2.104 -0.5328 -0.2241 -0.7902
    1MOL   H120  120   4.240   2.036   2.127 -0.8708 -0.6609 -0.0979
    1MOL   H121  121   4.459   1.876   2.241 -0.1188  2.2935  0.0825
    1MOL   H122  122   4.445   1.936   2.069 -0.0202  1.2438  0.7363
    1MOL   H123  123   4.346   1.809   2.125  1.1053 -1.0416 -0.6662
    1MOL   H124  124   4.318   2.202   2.301  0.5594  2.2540 -1.5984
    1MOL   H125  125   4.506   2.264   1.936  1.2216  1.2487  0.9197
    1MOL   H126  126   4.476   2.098   1.969  3.1803 -1.0765  0.7861
    1MOL   H127  127   4.594   2.198   2.065 -0.1818  1.6306 -0.3811
    1MOL   H128  128   4.223   2.325   2.184 -1.4766  0.6776 -1.6342
    1MOL   H129  129   4.283   2.382   2.013 -5.1249 -0.9356 -0.7400
    1MOL   C130  130   4.514   2.132   2.324 -0.2323 -0.2142  1.0980
    1MOL   C131  131   4.497   2.054   2.455  0.2703 -0.4676  0.1424
    1MOL   C132  132   4.601   2.261   2.346  0.1486  0.4117 -0.2862
    1MOL   C133  133   4.752   2.221   2.347 -0.1782 -0.4654 -0.8172
    1MOL   C134  134   4.824   2.198   2.217  0.2219  0.0402  0.2764
    1MOL   C135  135   4.819   2.200   2.465 -0.2243  0.2249 -0.0435
    1MOL   H136  136   4.576   2.065   2.264 -1.3297  0.2852 -0.6283
    1MOL   H137  137   4.594   2.056   2.503  1.4129 -0.2630 -2.0937
    1MOL   H138  138   4.476   1.947   2.445  2.7446 -1.0408  0.8252
    1MOL   H139  139   4.424   2.107   2.516  0.8108  0.0883  0.3034
    1MOL   H140  140   4.592   2.314   2.251  0.3549 -1.4874 -1.3789
    1MOL   H141  141   4.818   2.096   2.181 -1.2556  0.5613 -0.9795
    1MOL   H142  142   4.930   2.218   2.234  0.4904 -0.1302 -1.1099
    1MOL   H143  143   4.793   2.261   2.134  0.0325 -1.4777 -0.8249
    1MOL   H144  144   4.773   2.220   2.561  0.5219  0.2684  0.3161
    1MOL   H145  145   4.919   2.159   2.459 -0.7690 -0.9481 -1.2405
    1MOL   C146  146   4.555   2.373   2.452 -0.3760 -0.9357  0.1418
    1MOL   C147  147   4.400   2.392   2.452 -0.2470 -0.3838 -0.6656
    1MOL   C148  148   4.636   2.514   2.451  0.2410 -0.5099 -1.1452
    1MOL   C149  149   4.758   2.501   2.536  0.0667  0.0523  0.1102
    1MOL   C150  150   4.892   2.521   2.461 -0.6265 -0.2816  0.3014
    1MOL   C151  151   4.745   2.458   2.665 -0.6035  0.7666  0.4196
    1MOL   H152  152   4.566   2.320   2.546 -2.5912  1.6040  1.9397
    1MOL   H153  153   4.343   2.309   2.493  0.1772 -0.0477  0.6338
    1MOL   H154  154   4.358   2.399   2.352 -0.5286 -0.2890 -0.5411
    1MOL   H155  155   4.367   2.481   2.507  1.8114  0.9513 -1.5195
    1MOL   H156  156   4.672   2.519   2.348  1.1948 -1.4211 -0.8614
    1MOL   H157  157   4.907   2.621   2.418  0.4869 -0.5827 -0.0137
    1MOL   H158  158   4.901   2.452   2.377  0.6620  0.3204 -0.0675
    1MOL   H159  159   4.980   2.511   2.523 -2.5079 -0.8214  2.9351
    1MOL   H160  160   4.647   2.438   2.704 -1.9207  0.2166 -2.9572
    1MOL   H161  161   4.832   2.446   2.727  0.2112 -0.4587 -0.9306
    1MOL   C162  162   4.560   2.651   2.473 -0.3423 -0.4432  0.4541
    1MOL   C163  163   4.513   2.655   2.624 -0.5493 -0.8231  0.3884
    1MOL   C164  164   4.462   2.689   2.354  0.2382 -0.4701 -0.4225
    1MOL   C165  165   4.539   2.706   2.224  0.2018 -0.3216 -0.0221
    1MOL   C166  166   4.478   2.647   2.096  0.5231  0.8015 -0.4546
    1MOL   C167  167   4.653   2.777   2.211  0.1674  0.2723  0.1775
    1MOL   H168  168   4.648   2.715   2.479 -1.5034  1.2147  0.0793
    1MOL   H169  169   4.606   2.668   2.680 -0.4327 -1.8339  0.4291
    1MOL   H170  170   4.475   2.562   2.666  1.7631 -1.6345  0.7593
    1MOL   H171  171   4.448   2.741   2.641 -0.0409  0.0968 -2.1111
    1MOL   H172  172   4.407   2.598   2.331 -0.6701  0.7665 -3.3498
    1MOL   H173  173   4.523   2.675   2.000  0.2052 -1.3970 -1.2587
    1MOL   H174  174   4.371   2.663   2.081  0.0176 -2.1600 -0.2477
    1MOL   H175  175   4.487   2.539   2.104 -0.5229  0.7114 -0.3232
    1MOL   H176  176   4.691   2.828   2.297 -0.3731  0.4208  0.3320
    1MOL   H177  177   4.717   2.776   2.124 -1.7039  0.7910 -1.2584
    1MOL   C178  178   4.346   2.799   2.365 -0.0111  0.2609  0.3572
    1MOL   C179  179   4.404   2.932   2.410  0.8447 -0.0635  0.8058
    1MOL   C180  180   4.211   2.758   2.432 -0.7176  0.0543  0.7261
    1MOL   C181  181   4.144   2.628   2.380 -0.4886 -0.1743  0.9195
    1MOL   C182  182   4.074   2.536   2.484 -0.2164  0.4695 -0.1394
    1MOL   C183  183   4.150   2.601   2.250 -0.3454 -0.1091 -0.2959
    1MOL   H184  184   4.321   2.822   2.262  0.4802  1.4303  0.5007
    1MOL   H185  185   4.513   2.940   2.405  0.8986 -2.1133 -2.8701
    1MOL   H186  186   4.395   2.949   2.518  1.4250 -0.2561  0.8865
    1MOL   H187  187   4.346   3.012   2.364 -1.6204 -2.1759  0.1440
    1MOL   H188  188   4.255   2.730   2.528  1.1447  1.1007  0.1845
    1MOL   H189  189   4.121   2.439   2.467 -1.0012  0.5880 -3.4479
    1MOL   H190  190   3.965   2.534   2.478 -0.3248  2.5139  0.8394
    1MOL   H191  191   4.101   2.572   2.583  2.4092 -2.1527  0.1584
    1MOL   H192  192   4.202   2.663   2.179 -0.0883  0.0092 -0.0021
    1MOL   H193  193   4.100   2.509   2.221 -0.8976 -0.6971  2.4196
    1MOL   C194  194   4.109   2.872   2.468  0.1525  0.3868  0.5668
    1MOL   C195  195   4.120   2.898   2.618 -0.0629  0.1508 -0.5247
    1MOL   C196  196   3.959   2.863   2.417  0.9255 -0.4780 -0.2245
    1MOL   C197  197   3.940   2.852   2.265 -0.1216  0.1247  0.3942
    1MOL   C198  198   3.827   2.760   2.217 -0.4517  0.3936  0.0715
    1MOL   C199  199   4.019   2.930   2.180  0.7458  0.2835  0.3564
    1MOL   H200  200   4.155   2.962   2.426  2.3645 -1.1303 -0.3928
    1MOL   H201  201   4.077   2.988   2.663  1.3946 -0.1844  1.5975
    1MOL   H202  202   4.222   2.898   2.654  0.6282 -0.9720 -2.4099
    1MOL   H203  203   4.070   2.822   2.678 -0.0108  1.8857  1.7662
    1MOL   H204  204   3.929   2.762   2.446 -2.1141 -0.0687 -1.7693
    1MOL   H205  205   3.731   2.787   2.259 -0.7878  0.1042 -0.5036
    1MOL   H206  206   3.848   2.657   2.247  0.1832  0.5916  0.3300
    1MOL   H207  207   3.809   2.750   2.110 -1.3948  1.1535  0.1609
    1MOL   H208  208   4.089   3.004   2.215  0.3728  0.9846 -0.3673
    1MOL   H209  209   4.000   2.914   2.075 -2.6762 -0.6363  1.0396
    1MOL   C210  210   3.852   2.962   2.473  0.1527  0.0825 -0.1556
    1MOL   C211  211   3.894   3.107   2.453  0.4453 -0.3695 -0.3848
    1MOL   C212  212   3.795   2.937   2.615  0.0779 -0.1846 -0.3002
    1MOL   C213  213   3.749   2.789   2.629  0.3740  0.7016  0.2381
    1MOL   C214  214   3.663   2.729   2.525  0.4030  0.4446  0.0142
    1MOL   C215  215   3.790   2.704   2.728  0.3883  0.4012 -0.9024
    1MOL   H216  216   3.763   2.946   2.412  0.8259  1.4991 -1.5344
    1MOL   H217  217   3.807   3.168   2.477 -0.7344 -1.7577 -1.0052
    1MOL   H218  218   3.927   3.128   2.351 -2.8066 -1.1778 -1.6661
    1MOL   H219  219   3.973   3.131   2.525  0.0197 -0.2292  0.0418
    1MOL   H220  220   3.880   2.942   2.683 -0.2413  1.6000 -0.0055
    1MOL   H221  221   3.580   2.676   2.573 -0.9838  2.9275  0.4008
    1MOL   H222  222   3.722   2.658   2.465 -1.5218  0.9518 -2.5553
    1MOL   H223  223   3.610   2.798   2.460  0.6265  1.3885  0.8156
    1MOL   H224  224   3.856   2.737   2.807 -1.4093  1.6065  0.1363
    1MOL   H225  225   3.758   2.601   2.724  1.1439  0.1017  0.4967
    1MOL   C226  226   3.684   3.023   2.679 -0.5540  0.0483  0.4024
    1MOL   C227  227   3.558   3.038   2.590 -0.5009  0.0247 -0.5186
    1MOL   C228  228   3.713   3.164   2.748  0.0021  0.0040 -0.4680
    1MOL   C229  229   3.853   3.187   2.800  0.1200  0.0354 -0.0237
    1MOL   C230  230   3.912   3.327   2.766  0.8125 -0.8359 -0.0092
    1MOL   C231  231   3.929   3.099   2.871 -0.1478  0.0461 -0.0810
    1MOL   H232  232   3.649   2.967   2.766 -1.1386  1.7741  1.3114
    1MOL   H233  233   3.517   2.941   2.563  2.2514 -1.2627 -0.1637
    1MOL   H234  234   3.574   3.085   2.493  3.4156  0.0648  0.0791
    1MOL   H235  235   3.484   3.099   2.643  0.2508  0.5025 -0.0128
    1MOL   H236  236   3.714   3.230   2.661  1.8534 -1.5562 -1.6571
    1MOL   H237  237   4.020   3.327   2.777  0.8851 -2.2585 -0.5473
    1MOL   H238  238   3.878   3.399   2.840 -1.6724 -1.4010 -0.5281
    1MOL   H239  239   3.884   3.362   2.666  0.5150 -2.0650 -0.3662
    1MOL   H240  240   3.890   3.009   2.917  1.9304  0.2341  2.1259
    1MOL   H241  241   4.032   3.127   2.882 -0.3003  1.8251 -2.7099
    1MOL   C242  242   3.601   3.215   2.859 -0.2762 -0.0020  0.4542
    1MOL   C243  243   3.592   3.101   2.972 -0.3298  0.4333  0.0443
    1MOL   C244  244   3.468   3.294   2.817 -0.6652 -0.6032  0.3479
    1MOL   C245  245   3.493   3.386   2.695  0.4110  0.2560  0.8830
    1MOL   C246  246   3.586   3.509   2.704  0.1540  0.3054  0.1903
    1MOL   C247  247   3.428   3.372   2.573  0.0915 -0.0050  0.2537
    1MOL   H248  248   3.657   3.300   2.899 -0.1091  1.5442 -2.8365
    1MOL   H249  249   3.536   3.139   3.057 -1.3869  0.6414 -0.7370
    1MOL   H250  250   3.691   3.069   3.003 -0.2462 -1.1122 -1.7042
    1MOL   H251  251   3.525   3.023   2.935  1.1029 -0.7549 -0.1117
    1MOL   H252  252   3.402   3.217   2.775  1.4091 -1.4720 -1.3987
    1MOL   H253  253   3.539   3.566   2.784 -1.4637 -0.3161 -0.2877
    1MOL   H254  254   3.589   3.571   2.615  0.6022  0.3105  0.2053
    1MOL   H255  255   3.689   3.477   2.723 -0.7984 -1.9144  1.8557
    1MOL   H256  256   3.356   3.297   2.542 -1.3210  2.4100 -2.4583
    1MOL   H257  257   3.442   3.446   2.496  0.9482 -1.6559 -1.2119
    1MOL   C258  258   3.396   3.373   2.937  0.3801 -0.2946 -0.2285
    1MOL   C259  259   3.501   3.434   3.029  0.0304  0.2634  0.1407
    1MOL   C260  260   3.296   3.278   3.014 -0.2765 -0.2038 -0.3371
    1MOL   C261  261   3.184   3.232   2.921  0.0384 -0.4926  0.3872
    1MOL   C262  262   3.105   3.107   2.959  0.4427 -0.1968  0.0905
    1MOL   C263  263   3.151   3.295   2.805 -0.1094 -0.1654  0.0297
    1MOL   H264  264   3.339   3.462   2.911  1.2084  0.5099  0.6598
    1MOL   H265  265   3.579   3.493   2.982  0.5268  0.0644  0.6971
    1MOL   H266  266   3.562   3.359   3.080 -3.3241 -2.0724  0.8410
    1MOL   H267  267   3.454   3.497   3.104 -1.7298 -1.1742  0.2816
    1MOL   H268  268   3.351   3.185   3.030  0.9384  0.7415  1.0386
    1MOL   H269  269   3.068   3.109   3.062 -1.7360 -2.0596 -0.6186
    1MOL   H270  270   3.170   3.020   2.959 -1.1549 -1.4276  0.8152
    1MOL   H271  271   3.035   3.074   2.883  0.1757  1.1212 -0.2585
    1MOL   H272  272   3.205   3.376   2.759  0.4181 -1.5091 -1.8192
    1MOL   H273  273   3.069   3.264   2.741 -0.0996  0.0715 -0.0979
    1MOL   C274  274   3.227   3.341   3.138 -0.3178  0.1580 -0.0124
    1MOL   C275  275   3.157   3.474   3.110 -0.0303  0.2952  0.3259
    1MOL   C276  276   3.312   3.325   3.273  0.4882  0.1254  0.4186
    1MOL   C277  277   3.373   3.187   3.294 -0.7839  0.1920 -0.3876
    1MOL   C278  278   3.507   3.188   3.371  0.2279  0.6479 -0.3954
    1MOL   C279  279   3.321   3.075   3.248  0.0021  0.1782  0.2873
    1MOL   H280  280   3.141   3.278   3.163  1.0670 -1.2661  1.3183
    1MOL   H281  281   3.222   3.562   3.102 -1.5375  1.4590  0.6459
    1MOL   H282  282   3.074   3.496   3.177 -2.1294  0.2714 -2.2133
    1MOL   H283  283   3.125   3.468   3.006  0.3132 -1.1711  0.2920
    1MOL   H284  284   3.408   3.374   3.256  0.4882 -0.0417 -0.0619
    1MOL   H285  285   3.551   3.088   3.374 -1.7587 -0.2576 -0.5705
    1MOL   H286  286   3.509   3.213   3.477  0.5922 -1.2620  0.0707
    1MOL   H287  287   3.586   3.254   3.333  1.9113 -1.0593  0.0464
    1MOL   H288  288   3.226   3.071   3.197  1.4175 -2.1867 -2.3589
    1MOL   H289  289   3.370   2.980   3.261 -1.0460 -0.5071 -0.6558
    1MOL   C290  290   3.253   3.380   3.402  0.8322 -0.3127 -0.5544
    1MOL   C291  291   3.111   3.325   3.427 -0.0175 -0.4597 -0.9171
    1MOL   C292  292   3.260   3.534   3.424  0.5122  1.1367 -0.2994
    1MOL   C293  293   3.400   3.590   3.397  0.2179 -0.4289 -0.2566
    1MOL   C294  294   3.410   3.707   3.308  0.1438  1.0160 -0.1143
    1MOL   C295  295   3.511   3.542   3.447  0.6544  0.5743  0.4627
    1MOL   H296  296   3.312   3.343   3.486  0.2736  0.5091  0.2024
    1MOL   H297  297   3.077   3.306   3.529  0.2572 -1.8308 -1.0828
    1MOL   H298  298   3.101   3.227   3.381 -0.2079 -1.6251  1.5029
    1MOL   H299  299   3.029   3.387   3.388 -0.9770 -1.2849 -0.2405
    1MOL   H300  300   3.197   3.569   3.342 -1.2078  1.0894  0.9769
    1MOL   H301  301   3.389   3.684   3.203 -0.0056 -2.7258  0.6775
    1MOL   H302  302   3.510   3.749   3.296  0.4996  0.1151 -0.3656
    1MOL   H303  303   3.346   3.790   3.339 -0.2250  0.4925  0.5101
    1MOL   H304  304   3.511   3.462   3.519  1.6180 -0.7493 -0.9757
    1MOL   H305  305   3.603   3.587   3.411 -0.6062  1.2802 -1.9759
    1MOL   C306  306   3.181   3.584   3.553 -0.6467  0.1413  0.0611
    1MOL   C307  307   3.167   3.737   3.567 -0.7700 -0.2704 -1.1693
    1MOL   C308  308   3.243   3.516   3.684  0.1840 -0.3513  0.2647
    1MOL   C309  309   3.179   3.547   3.823  0.3590 -0.3524  1.2209
    1MOL   C310  310   3.033   3.498   3.839 -0.5471  0.5718  0.5742
    1MOL   C311  311   3.244   3.607   3.923  0.8160  0.0484  0.1636
    1MOL   H312  312   3.075   3.556   3.552 -0.3087 -1.1721  0.5751
    1MOL   H313  313   3.126   3.784   3.477  0.0999  2.6633 -0.0806
    1MOL   H314  314   3.266   3.781   3.581 -0.8015 -0.4990 -0.2280
    1MOL   H315  315   3.096   3.759   3.646  0.5347 -0.8615  0.1765
    1MOL   H316  316   3.228   3.408   3.691 -0.9406 -0.4481 -2.7463
    1MOL   H317  317   2.990   3.538   3.931  2.8698  1.6457  1.7957
    1MOL   H318  318   3.037   3.389   3.836  2.7986  0.6801 -2.1485
    1MOL   H319  319   2.963   3.535   3.764  0.4404  2.0113  0.3218
    1MOL   H320  320   3.343   3.647   3.907  0.9234  0.9435  2.8481
    1MOL   H321  321   3.196   3.629   4.016 -2.5557 -0.2875 -1.4297
    1MOL   H322  322   3.351   3.525   3.687  0.3643 -2.1941  0.0320
    2MOL     C1  323   1.164   0.400   1.848 -0.6475  0.2059 -0.2544
    2MOL     C2  324   1.245   0.351   1.967  0.4789 -0.8475 -0.0862
    2MOL     C3  325   1.024   0.328   1.823  0.2339 -0.2408 -0.7590
    2MOL     C4  326   0.928   0.355   1.944 -0.3283 -0.1880  0.2511
    2MOL     C5  327   0.949   0.282   2.080  0.4813  1.0013  0.3996
    2MOL     C6  328   0.830   0.448   1.930  0.2975 -0.1444  0.0788
    2MOL     H7  329   1.156   0.508   1.854  2.7199  0.6238 -1.9224
    2MOL     H8  330   1.247   0.242   1.972 -0.5258 -0.8290  0.9421
    2MOL     H9  331   1.199   0.382   2.061 -0.3602  2.6281 -1.5716
    2MOL    H10  332   1.346   0.390   1.969  0.5811 -1.1319  0.2145
    2MOL    H11  333   0.990   0.391   1.741 -0.3010 -0.1393 -0.4609
    2MOL    H12  334   0.974   0.345   2.165 -0.7792 -0.5484  1.9503
    2MOL    H13  335   1.031   0.210   2.089 -0.9290 -0.8965 -1.4185
    2MOL    H14  336   0.855   0.236   2.109  1.4956 -1.2829  0.1944
    2MOL    H15  337   0.813   0.503   1.839 -0.4049 -1.0931 -0.3739
    2MOL    H16  338   0.759   0.473   2.007  1.9053  0.7603  1.2978
    2MOL    H17  339   1.219   0.389   1.754 -0.1535  1.4930 -0.1189
    2MOL    C18  340   1.035   0.184   1.778 -0.6361  0.2656 -0.1137
    2MOL    C19  341   1.147   0.154   1.671  0.0017  0.3737  0.0294
    2MOL    C20  342   0.902   0.109   1.745  0.2266 -0.5887 -0.8416
    2MOL    C21  343   0.901   7.857   1.811 -0.0790 -0.9960  0.6911
    2MOL    C22  344   0.853   7.860   1.952 -0.6482 -0.0304  0.4408
    2MOL    C23  345   0.934   7.744   1.750  0.9456 -0.5937 -1.2052
    2MOL    H24  346   1.077   0.146   1.870 -1.9622  0.5260  0.6072
    2MOL    H25  347   1.244   0.175   1.716 -0.3770  1.7418  0.2382
    2MOL    H26  348   1.156   0.217   1.582  3.4609  0.4302  0.3344
    2MOL    H27  349   1.147   0.047   1.648 -3.0446  0.1325  0.9322
    2MOL    H28  350   0.825   0.161   1.803  1.5954  0.0010  0.4690
    2MOL    H29  351   0.849   7.758   1.989 -1.2912  0.0057  0.4726
    2MOL    H30  352   0.755   0.015   1.953 -0.5116  0.2572  0.2220
    2MOL    H31  353   0.928   0.013   2.018 -0.7455 -1.2822  1.4255
    2MOL    H32  354   0.962   7.746   1.646 -2.6703 -0.5522 -2.2475
    2MOL    H33  355   0.938   7.647   1.797  1.1301 -0.9459 -1.9307
    2MOL    C34  356   0.853   0.115   1.599 -0.4772  0.3741  0.2048
    2MOL    C35  357   0.852   0.261   1.539 -0.6166 -0.1161 -0.7675
    2MOL    C36  358   0.728   0.023   1.573  0.0980 -0.4017  0.2080
    2MOL    C37  359   0.748   7.853   1.430 -0.0917  0.1854  0.1938
    2MOL    C38  360   0.737   0.058   1.312 -0.1343  0.7093 -0.5586
    2MOL    C39  361   0.781   7.724   1.411 -0.4368 -0.7007 -0.1216
    2MOL    H40  362   0.937   0.060   1.556 -0.2409 -0.0124  1.1309
    2MOL    H41  363   0.789   0.257   1.450 -2.3793  1.1612  0.3890
    2MOL    H42  364   0.950   0.301   1.511 -0.1929 -1.4096 -1.1751
    2MOL    H43  365   0.814   0.325   1.618  3.4407  0.6469  0.7124
    2MOL    H44  366   0.714   7.824   1.630 -2.1489  0.8889  1.7920
    2MOL    H45  367   0.679   0.148   1.332 -1.2977  0.0875 -1.0796
    2MOL    H46  368   0.688   0.015   1.225 -1.2304 -0.8258  0.7939
    2MOL    H47  369   0.835   0.088   1.273 -0.9203  1.8739 -1.6953
    2MOL    H48  370   0.799   7.659   1.495  1.0418  0.9584  0.8908
    2MOL    H49  371   0.786   7.686   1.310 -0.9399 -1.1686  0.0277
    2MOL    C50  372   0.584   0.084   1.585  0.0238 -0.0182 -0.0530
    2MOL    C51  373   0.562   0.161   1.712 -0.8170  0.5943  0.5147
    2MOL    C52  374   0.465   7.870   1.563  0.0739 -0.3217  0.1460
    2MOL    C53  375   0.361   0.038   1.471 -0.3321  0.4810  0.1909
    2MOL    C54  376   0.398   0.043   1.320 -0.1364  0.6165  0.1915
    2MOL    C55  377   0.242   0.093   1.513  0.0501 -0.3974 -0.0716
    2MOL    H56  378   0.573   0.161   1.509 -2.1599 -2.0375 -1.8454
    2MOL    H57  379   0.457   0.192   1.714 -1.2761 -0.9991  1.4547
    2MOL    H58  380   0.617   0.255   1.711 -0.8091  0.5881 -0.5057
    2MOL    H59  381   0.594   0.107   1.800  0.5347 -0.9933 -0.9203
    2MOL    H60  382   0.509   7.796   1.497  0.2786 -0.9272  0.9446
    2MOL    H61  383   0.310   0.053   1.256  0.2093 -0.9240 -0.5425
    2MOL    H62  384   0.441   7.838   1.298  0.5512  0.6637  1.3120
    2MOL    H63  385   0.471   0.121   1.296 -0.1081  0.5493  0.0567
    2MOL    H64  386   0.215   0.089   1.617  0.8621 -0.0161  0.1550
    2MOL    H65  387   0.173   0.137   1.443  1.9333  1.2472 -0.9402
    2MOL    C66  388   0.402   7.781   1.678 -0.1265 -0.8392  0.4466
    2MOL    C67  389   0.508   7.714   1.768  0.7290  0.6882 -0.0707
    2MOL    C68  390   0.284   7.682   1.634 -0.2333 -0.6671 -0.6753
    2MOL    C69  391   0.200   7.661   1.757  0.3322  0.8901  0.8646
    2MOL    C70  392   0.096   7.772   1.785  0.8087 -0.3071 -0.0644
    2MOL    C71  393   0.197   7.554   1.841  0.1278 -0.2683 -0.0278
    2MOL    H72  394   0.361   7.854   1.748  2.0401  0.8714 -0.0083
    2MOL    H73  395   0.559   7.630   1.721 -0.6442  1.0163 -2.1724
    2MOL    H74  396   0.468   7.670   1.860  0.6522 -1.5327 -1.1406
    2MOL    H75  397   0.588   7.780   1.802 -0.8252  2.7149 -0.3269
    2MOL    H76  398   0.228   7.741   1.561  0.1259  0.5661  0.0332
    2MOL    H77  399   0.037   7.813   1.703  1.9942  2.1195  0.2395
    2MOL    H78  400   0.149   7.864   1.809  0.4150  0.5108 -2.2170
    2MOL    H79  401   0.023   7.748   1.862  0.1971 -0.1205 -0.5827
    2MOL    H80  402   0.266   7.472   1.828  1.7666  1.1295 -0.2882
    2MOL    H81  403   0.125   7.548   1.922 -1.7088  2.7724 -1.3613
    2MOL    C82  404   0.330   7.548   1.569 -0.0907  0.9619 -0.1600
    2MOL    C83  405   0.444   7.560   1.459  0.4773 -0.2480  0.6273
    2MOL    C84  406   0.217   7.448   1.513  0.3059  0.3104 -0.3397
    2MOL    C85  407   0.084   7.520   1.483 -0.7623 -0.1263  0.0871
    2MOL    C86  408   0.084   7.606   1.362  0.4889  0.1568 -0.9664
    2MOL    C87  409   7.863   7.502   1.548  0.5402 -0.2680  0.7243
    2MOL    H88  410   0.373   7.491   1.650 -0.5134  0.9673  0.0698
    2MOL    H89  411   0.546   7.586   1.489  1.1600 -3.4282  1.3105
    2MOL    H90  412   0.416   7.625   1.376 -1.4538 -0.9307  0.7100
    2MOL    H91  413   0.466   7.465   1.409 -1.7948  0.0153 -0.9631
    2MOL    H92  414   0.241   7.424   1.409  0.8651  0.2720 -0.2054
    2MOL    H93  415   7.876   7.645   1.342 -1.4394 -3.4378  1.1074
    2MOL    H94  416   0.101   7.532   1.284 -1.7913 -0.8590 -0.5409
    2MOL    H95  417   0.169   7.673   1.352 -1.2267  2.7054  0.8565
    2MOL    H96  418   7.853   7.433   1.631 -0.6062  0.5709  1.3079
    2MOL    H97  419   7.768   7.547   1.523  0.6164 -0.4636  0.0692
    2MOL    C98  420   0.206   7.305   1.587  0.7817  0.7737  0.3426
    2MOL    C99  421   0.343   7.251   1.641  0.3925 -0.0173  0.5716
    2MOL   C100  422   0.135   7.181   1.503 -0.4152 -0.1181  0.2567
    2MOL   C101  423   0.094   7.213   1.361 -0.0765 -0.8655  0.0749
    2MOL   C102  424   0.198   7.196   1.253 -0.3987 -0.0403  0.6235
    2MOL   C103  425   7.868   7.278   1.322  0.3164 -0.0110  0.2985
    2MOL   H104  426   0.156   7.317   1.683  0.2877  0.8344  0.0814
    2MOL   H105  427   0.404   7.304   1.713  1.6314  0.4167 -0.7741
    2MOL   H106  428   0.404   7.239   1.551  0.4360  2.4656  0.2364
    2MOL   H107  429   0.323   7.153   1.685 -0.8382  0.2739  0.6874
    2MOL   H108  430   0.220   7.116   1.482  0.4995  0.1512  2.9175
    2MOL   H109  431   0.279   7.266   1.271  0.8320 -0.8103 -1.7733
    2MOL   H110  432   0.153   7.202   1.154  0.3385  3.1210  0.4418
    2MOL   H111  433   0.257   7.104   1.251  0.4740  0.4700  2.2546
    2MOL   H112  434   7.782   7.298   1.385  0.5057  1.3493  0.1381
    2MOL   H113  435   7.856   7.304   1.218  1.2907 -1.4027 -0.1697
    2MOL   C114  436   0.022   7.106   1.579 -0.4812 -0.2800 -0.0979
    2MOL   C115  437   0.068   7.062   1.722  0.5585  0.5259 -0.0575
    2MOL   C116  438   7.851   6.981   1.507  0.2215  0.2356  0.3286
    2MOL   C117  439   7.704   6.969   1.553 -0.6902  0.0036  0.3910
    2MOL   C118  440   7.613   7.060   1.485  0.0118  0.3930 -0.4831
    2MOL   C119  441   7.667   6.883   1.657 -0.1729  0.1757  0.4128
    2MOL   H120  442   7.838   7.182   1.594 -0.3282 -0.1158 -0.1567
    2MOL   H121  443   7.872   7.024   1.773  0.0432  3.3851  1.2592
    2MOL   H122  444   0.107   7.141   1.786 -1.0822  0.2995  1.2267
    2MOL   H123  445   0.139   6.979   1.714 -0.2682 -0.2780  0.9155
    2MOL   H124  446   7.841   7.003   1.401  1.3870 -0.4061  0.0699
    2MOL   H125  447   7.594   7.013   1.388  3.0763 -0.0524 -0.9162
    2MOL   H126  448   7.666   7.154   1.473  0.3308  0.3015  0.2030
    2MOL   H127  449   7.518   7.062   1.539  0.0770  1.5122 -0.3948
    2MOL   H128  450   7.736   6.815   1.703 -0.3706 -0.5070 -0.2878
    2MOL   H129  451   7.567   6.888   1.699 -0.4671  1.2104 -0.3928
    2MOL   C130  452   0.032   6.845   1.498 -0.3365 -0.1939 -0.5129
    2MOL   C131  453   0.180   6.839   1.476  0.1157 -0.0025  0.3833
    2MOL   C132  454   7.853   6.736   1.412  0.3440  0.4059 -0.1674
    2MOL   C133  455   7.852   6.591   1.478  0.0620  0.3733 -0.4165
    2MOL   C134  456   7.752   6.561   1.588 -0.5308 -0.2938  0.5145
    2MOL   C135  457   0.035   6.487   1.435 -0.0754  0.4146 -0.1985
    2MOL   H136  458   0.019   6.801   1.598  1.2647  0.3113 -0.0644
    2MOL   H137  459   0.219   6.739   1.497 -0.5704 -0.5086 -0.6919
    2MOL   H138  460   0.233   6.896   1.552  0.7528  0.4505 -0.4027
    2MOL   H139  461   0.202   6.862   1.372  0.6150 -1.1928  0.2105
    2MOL   H140  462   7.747   6.754   1.424 -0.2604 -2.2093 -1.2564
    2MOL   H141  463   7.790   6.589   1.686 -0.7876  0.8474  0.2946
    2MOL   H142  464   7.727   6.455   1.596  0.9621 -0.9626 -2.8856
    2MOL   H143  465   7.660   6.617   1.566 -1.2420 -1.4026  0.6256
    2MOL   H144  466   0.097   6.508   1.350 -2.0422  1.1264 -1.4861
    2MOL   H145  467   0.031   6.384   1.469  1.2071  0.5371  0.3443
    2MOL   C146  468   0.001   6.740   1.262 -0.3083 -0.0607  0.2743
    2MOL   C147  469   7.889   6.874   1.186 -0.0264  0.4311 -0.5921
    2MOL   C148  470   7.814   6.630   1.179  0.3867 -0.8233  0.2379
    2MOL   C149  471   0.003   6.580   1.058  0.0674  0.1321 -0.1131
    2MOL   C150  472   0.121   6.491   1.093  0.5076 -0.0952 -0.9967
    2MOL   C151  473   7.880   6.613   0.929 -0.4922  0.2191  0.4057
    2MOL   H152  474   0.102   6.702   1.252  0.0302  0.6506  0.9282
    2MOL   H153  475   0.062   6.950   1.228  0.7046  0.4355 -1.7080
    2MOL   H154  476   7.792   6.923   1.174 -0.2315  0.0184 -0.6136
    2MOL   H155  477   0.038   6.864   1.085 -0.5627 -0.8304 -0.6891
    2MOL   H156  478   7.801   6.537   1.235  1.8810 -0.0896  1.8444
    2MOL   H157  479   0.173   6.460   1.002 -1.2415 -1.3778 -1.5799
    2MOL   H158  480   0.098   6.396   1.141  2.2736 -0.1714 -0.2460
    2MOL   H159  481   0.200   6.538   1.152  0.6103 -0.3313 -0.9455
    2MOL   H160  482   7.799   6.677   0.898 -2.9372 -2.4037  1.1600
    2MOL   H161  483   0.050   6.583   0.847 -0.5097  1.2485  0.0081
    2MOL   C162  484   7.665   6.661   1.131  0.0574 -0.4125  0.1482
    2MOL   C163  485   7.581   6.733   1.234 -0.0640 -0.1314 -0.0976
    2MOL   C164  486   7.591   6.536   1.071  0.3367 -0.1809  0.4237
    2MOL   C165  487   7.519   6.590   0.943 -0.1146  0.7414  0.6542
    2MOL   C166  488   7.406   6.698   0.962  0.6882  0.0024  0.7973
    2MOL   C167  489   7.542   6.533   0.821  0.3595  0.1634 -0.0155
    2MOL   H168  490   7.668   6.742   1.059  1.3245  0.9773  1.7172
    2MOL   H169  491   7.620   6.832   1.258  3.5782 -0.8753 -2.5858
    2MOL   H170  492   7.565   6.679   1.328 -1.2282 -1.4468 -1.0348
    2MOL   H171  493   7.476   6.739   1.206 -0.4913  1.5924  1.7502
    2MOL   H172  494   7.667   6.467   1.034 -2.8631 -3.7589  0.2049
    2MOL   H173  495   7.433   6.794   1.005 -0.0710  1.5327 -2.0196
    2MOL   H174  496   7.321   6.658   1.017  0.3061  0.8996  0.8599
    2MOL   H175  497   7.352   6.717   0.869  1.2905  1.2327  0.6918
    2MOL   H176  498   7.621   6.459   0.816 -0.2603 -0.5317  0.3373
    2MOL   H177  499   7.479   6.565   0.740 -0.5020  1.6962  1.2408
    2MOL   C178  500   7.504   6.442   1.167 -0.2759 -0.1099  1.0834
    2MOL   C179  501   7.579   6.389   1.293 -0.2168 -1.1349 -0.4123
    2MOL   C180  502   7.416   6.336   1.095  0.3038 -0.1729 -0.6859
    2MOL   C181  503   7.281   6.330   1.162  0.2428  0.4169 -0.2168
    2MOL   C182  504   7.165   6.411   1.105 -0.3102 -0.3392 -0.1691
    2MOL   C183  505   7.255   6.251   1.267 -0.3623  0.2233 -0.4588
    2MOL   H184  506   7.433   6.517   1.203  0.2192  0.0801  1.6671
    2MOL   H185  507   7.660   6.320   1.273  0.6464  0.5530 -3.0139
    2MOL   H186  508   7.503   6.350   1.361  1.0999 -0.4343  1.4746
    2MOL   H187  509   7.631   6.474   1.337  0.2777  0.4572 -3.8532
    2MOL   H188  510   7.397   6.373   0.994 -1.8192 -1.5821 -0.8227
    2MOL   H189  511   7.074   6.374   1.153 -0.6374 -2.2082 -2.1430
    2MOL   H190  512   7.155   6.417   0.996  0.1156 -0.9325 -0.2452
    2MOL   H191  513   7.188   6.516   1.119  1.5557 -0.1024 -4.2253
    2MOL   H192  514   7.327   6.185   1.312  1.0739  2.4302  0.5550
    2MOL   H193  515   7.156   6.262   1.308 -0.7920 -1.5765 -1.0067
    2MOL   C194  516   7.485   6.190   1.079 -0.3613  0.1825  0.0052
    2MOL   C195  517   7.615   6.203   1.002 -0.2250 -0.2302 -0.1085
    2MOL   C196  518   7.395   6.072   1.018  0.1899  0.6842  0.5441
    2MOL   C197  519   7.472   5.943   1.050  0.2733 -0.7238  0.0022
    2MOL   C198  520   7.452   5.903   1.195 -0.2041  0.6663  0.3942
    2MOL   C199  521   7.543   5.877   0.961  0.3198 -0.2622 -0.4018
    2MOL   H200  522   7.516   6.166   1.181  1.2065 -0.0456 -0.5020
    2MOL   H201  523   7.691   6.269   1.043 -1.0806  0.4839  0.3262
    2MOL   H202  524   7.599   6.216   0.895 -1.2108 -0.8402 -0.0418
    2MOL   H203  525   7.669   6.110   1.020  0.0833 -0.2121 -0.9148
    2MOL   H204  526   7.311   6.065   1.086 -0.4332 -1.4770 -0.4249
    2MOL   H205  527   7.515   5.957   1.266  0.8382 -0.3967  0.2975
    2MOL   H206  528   7.475   5.799   1.217 -0.1685  0.4027 -0.8183
    2MOL   H207  529   7.349   5.892   1.228 -0.4483 -3.1223 -1.3173
    2MOL   H208  530   7.553   5.899   0.856  0.0319 -1.3859 -0.6724
    2MOL   H209  531   7.606   5.798   1.001  0.2184 -0.1259  0.0307
    2MOL   C210  532   7.334   6.067   0.867 -0.2850  0.8079 -0.0068
    2MOL   C211  533   7.305   6.207   0.809  0.6427  0.0004 -0.3775
    2MOL   C212  534   7.196   5.987   0.862  0.4746 -0.5434  0.5408
    2MOL   C213  535   7.186   5.854   0.939 -0.0968  0.5162 -0.5770
    2MOL   C214  536   7.249   5.731   0.883  0.1477 -0.0513  0.0991
    2MOL   C215  537   7.098   5.830   1.047  0.2884  0.1061  0.3758
    2MOL   H216  538   7.407   6.039   0.792 -1.3928 -2.3234 -0.0150
    2MOL   H217  539   7.257   6.277   0.878  1.3476 -0.5851  0.7177
    2MOL   H218  540   7.251   6.220   0.715 -1.2357 -0.6845  0.5945
    2MOL   H219  541   7.399   6.259   0.789 -0.2630  1.2851 -1.4097
    2MOL   H220  542   7.123   6.049   0.913  0.0359 -0.5311 -0.0989
    2MOL   H221  543   7.193   5.681   0.805 -0.0633 -1.1797  0.9535
    2MOL   H222  544   7.263   5.658   0.963  0.6418 -1.3767 -1.1630
    2MOL   H223  545   7.350   5.751   0.845  0.2983  0.5612  0.8149
    2MOL   H224  546   7.037   5.901   1.102 -1.3319 -1.6728  0.9490
    2MOL   H225  547   7.088   5.729   1.081 -0.1957 -0.0964 -0.3393
    2MOL   C226  548   7.123   5.965   0.720  0.0990  0.4575 -0.8274
    2MOL   C227  549   7.226   5.942   0.613 -0.7613  0.4225 -0.0671
    2MOL   C228  550   7.007   6.064   0.684  0.3310 -1.0175  0.4339
    2MOL   C229  551   6.903   6.095   0.793 -0.4679  0.3673 -0.9656
    2MOL   C230  552   6.821   5.982   0.856  0.6942 -0.8818 -0.7516
    2MOL   C231  553   6.888   6.217   0.849  0.7124 -0.7725  0.2748
    2MOL   H232  554   7.069   5.871   0.729 -0.5579  0.9620  0.7188
    2MOL   H233  555   7.271   6.037   0.586  0.8460 -0.1731  0.4378
    2MOL   H234  556   7.183   5.880   0.534 -1.0441 -1.4240  1.5032
    2MOL   H235  557   7.317   5.889   0.639  0.3931  0.9304 -2.8860
    2MOL   H236  558   7.046   6.165   0.676  1.2935 -1.3607  0.7302
    2MOL   H237  559   6.777   6.007   0.952  1.7708  0.0299 -0.4927
    2MOL   H238  560   6.884   5.893   0.850  0.2236 -1.2468 -0.3196
    2MOL   H239  561   6.731   5.980   0.794  0.5078  0.3853 -0.5357
    2MOL   H240  562   6.941   6.302   0.808 -0.7094  0.0450  0.1212
    2MOL   H241  563   6.814   6.239   0.924  1.3870  0.5526  0.5698
    2MOL   C242  564   6.935   6.041   0.539  0.3028  0.1496 -0.4366
    2MOL   C243  565   6.875   5.901   0.526  0.7698  0.7967  0.0348
    2MOL   C244  566   7.013   6.091   0.407 -0.0935  0.3076 -0.3746
    2MOL   C245  567   7.068   6.230   0.430 -0.9427  0.1297  0.1030
    2MOL   C246  568   7.208   6.245   0.366 -0.6244  0.1795 -0.3227
    2MOL   C247  569   7.006   6.332   0.492 -0.1713 -0.6303  0.3964
    2MOL   H248  570   6.848   6.106   0.538  1.7959  2.2534  1.9917
    2MOL   H249  571   6.950   5.828   0.495 -0.5075  0.4348 -2.3795
    2MOL   H250  572   6.792   5.903   0.455  2.9497 -0.1953 -2.6457
    2MOL   H251  573   6.844   5.868   0.625  0.8091  3.9830  1.1763
    2MOL   H252  574   7.104   6.033   0.396 -0.8518 -0.5188 -2.5977
    2MOL   H253  575   7.281   6.172   0.403 -2.0667 -1.1264  0.0153
    2MOL   H254  576   7.255   6.339   0.393  2.5354 -1.5287  0.4682
    2MOL   H255  577   7.200   6.248   0.257  1.9619 -0.1763 -0.5704
    2MOL   H256  578   6.905   6.318   0.527 -0.4685  0.4185 -0.0177
    2MOL   H257  579   7.053   6.425   0.519 -1.0036  0.8375 -2.8971
    2MOL   C258  580   6.931   6.085   0.271 -0.6429  0.0769  0.0134
    2MOL   C259  581   6.801   6.172   0.279  0.6501  0.2266  0.0379
    2MOL   C260  582   6.912   5.939   0.208  0.1149 -0.7926  0.0316
    2MOL   C261  583   7.055   5.877   0.194 -0.3343  0.7381 -0.1901
    2MOL   C262  584   7.075   5.730   0.238  0.1832 -0.0541  0.1488
    2MOL   C263  585   7.169   5.940   0.157 -0.6553 -0.6825 -0.5455
    2MOL   H264  586   6.980   6.143   0.193 -1.2939  0.3905 -0.1723
    2MOL   H265  587   6.813   6.265   0.334  0.8094  0.1732  0.0936
    2MOL   H266  588   6.721   6.113   0.324  1.3909 -1.7190 -1.1144
    2MOL   H267  589   6.760   6.198   0.181  0.1518  0.1944  0.2373
    2MOL   H268  590   6.872   5.877   0.288 -0.5069  0.7495  0.9480
    2MOL   H269  591   7.154   5.676   0.187 -0.1082  0.0431 -0.4136
    2MOL   H270  592   6.989   5.663   0.230  0.7714 -0.5002 -2.9878
    2MOL   H271  593   7.088   5.742   0.346  3.3662  1.4406 -0.3452
    2MOL   H272  594   7.159   6.040   0.116  0.7736  0.2893  1.4414
    2MOL   H273  595   7.270   5.903   0.156 -0.0697  0.8444  0.2558
    2MOL   C274  596   6.838   5.928   0.071 -0.2191  0.6389  0.4011
    2MOL   C275  597   6.891   6.040   7.852  1.0074  0.0842 -0.5761
    2MOL   C276  598   6.686   5.903   0.079  0.6259 -0.4073  0.7156
    2MOL   C277  599   6.654   5.782   0.172  0.0040  0.2962  0.5375
    2MOL   C278  600   6.681   5.639   0.125  0.7305  0.2272  0.3011
    2MOL   C279  601   6.577   5.803   0.281 -0.2348  0.0545 -0.3454
    2MOL   H280  602   6.880   5.833   0.035 -1.6203 -0.2568  1.1115
    2MOL   H281  603   6.839   6.043   7.756 -0.8239  1.4740  0.4054
    2MOL   H282  604   7.000   6.034   7.853  1.0548  0.7115  2.0806
    2MOL   H283  605   6.866   6.135   0.008  1.1176  1.4003 -3.0299
    2MOL   H284  606   6.651   5.992   0.131 -0.1512  0.2004 -0.8068
    2MOL   H285  607   6.704   5.566   0.202  2.4257 -1.5956 -1.8840
    2MOL   H286  608   6.768   5.635   0.060  0.8332 -0.1895  0.4644
    2MOL   H287  609   6.598   5.599   0.067  3.8632 -0.9513 -3.5142
    2MOL   H288  610   6.555   5.905   0.309  0.6374 -0.5313  2.6527
    2MOL   H289  611   6.544   5.724   0.346  2.0827 -0.2112  0.5451
    2MOL   C290  612   6.605   5.877   7.836 -0.3058  0.4227 -0.3036
    2MOL   C291  613   6.690   5.811   7.732 -0.9744  0.5441  0.3372
    2MOL   C292  614   6.536   5.996   7.774 -0.1830 -0.1601  0.3165
    2MOL   C293  615   6.465   6.081   7.882 -0.0008  1.0850 -0.1690
    2MOL   C294  616   6.346   6.017   0.067  0.4033  0.3797 -0.2004
    2MOL   C295  617   6.505   6.211   0.021  0.0472  0.6611 -0.4960
    2MOL   H296  618   6.529   5.809   7.872 -0.8321  2.6899  3.1746
    2MOL   H297  619   6.713   5.706   7.752 -0.6763  0.4111 -0.6839
    2MOL   H298  620   6.780   5.863   7.700  0.7734 -2.8774 -0.5932
    2MOL   H299  621   6.645   5.784   7.637 -1.0142 -0.1594  0.5549
    2MOL   H300  622   6.617   6.057   7.734 -1.0373  2.1222  1.9832
    2MOL   H301  623   6.251   6.046   0.024  0.1186 -0.8980 -0.4319
    2MOL   H302  624   6.361   6.064   0.165  0.0585  0.2401 -0.0795
    2MOL   H303  625   6.347   5.908   0.074  3.5027  0.1864 -2.3478
    2MOL   H304  626   6.580   6.264   7.857 -1.4748  2.4990 -0.8662
    2MOL   H305  627   6.470   6.273   0.103  0.6742  1.5671 -0.9011
    2MOL   C306  628   6.451   5.977   7.646 -0.5816  0.1288  0.0809
    2MOL   C307  629   6.398   6.112   7.577  0.2339  0.4917  0.6737
    2MOL   C308  630   6.329   5.873   7.662 -0.2383 -0.6682 -0.1959
    2MOL   C309  631   6.265   5.839   7.527  0.4497 -0.5506 -0.9846
    2MOL   C310  632   6.114   5.829   7.537 -0.7098 -0.3133 -0.0304
    2MOL   C311  633   6.329   5.811   7.411 -0.2258  0.0669  0.2382
    2MOL   H312  634   6.507   5.937   7.562 -1.6167 -1.7675  0.2610
    2MOL   H313  635   6.351   6.098   7.480  1.3800 -1.7684  0.3951
    2MOL   H314  636   6.483   6.175   7.550  0.3740  0.3288  0.7300
    2MOL   H315  637   6.327   6.169   7.637 -2.0686 -0.5999 -0.9697
    2MOL   H316  638   6.363   5.783   7.712 -2.3998 -1.1004  0.5263
    2MOL   H317  639   6.064   5.821   7.440 -2.3480 -0.3403  0.8039
    2MOL   H318  640   6.064   5.912   7.586  0.6256  0.7013 -0.3659
    2MOL   H319  641   6.101   5.734   7.589 -2.2174  0.7921  1.6590
    2MOL   H320  642   6.437   5.817   7.403 -0.2003  1.5047  1.5214
    2MOL   H321  643   6.270   5.786   7.324  2.5696 -1.5964 -1.2656
    2MOL   H322  644   6.256   5.920   7.728  1.8953 -1.6436  2.9201
    3MOL     C1  645   6.832   6.076   5.173 -0.5180 -0.0094  0.2954
    3MOL     C2  646   6.736   6.101   5.056  0.2279 -0.0833 -0.5469
    3MOL     C3  647   6.785   5.980   5.274 -0.3915  0.6346 -0.1360
    3MOL     C4  648   6.660   6.019   5.359  0.8711  0.3958  0.4722
    3MOL     C5  649   6.581   5.899   5.404  0.5373 -0.9213 -0.2730
    3MOL     C6  650   6.620   6.145   5.377  0.2981 -0.3384 -0.8711
    3MOL     H7  651   6.920   6.028   5.130 -1.5679 -0.6194 -1.1834
    3MOL     H8  652   6.631   6.111   5.081  0.2348  1.6642 -1.1500
    3MOL     H9  653   6.740   6.022   4.980 -0.0973 -2.3756  1.7539
    3MOL    H10  654   6.764   6.189   4.998  2.5777  0.7698  1.8022
    3MOL    H11  655   6.745   5.891   5.225  0.1731  0.2038  0.1787
    3MOL    H12  656   6.494   5.931   5.463  1.1676  0.2699  0.0265
    3MOL    H13  657   6.647   5.843   5.470  2.4861  0.3733 -1.0822
    3MOL    H14  658   6.544   5.842   5.319  0.7767 -0.5422 -0.6334
    3MOL    H15  659   6.678   6.226   5.336 -0.7464  0.3598 -0.9768
    3MOL    H16  660   6.529   6.165   5.433  0.6210 -0.2635 -0.3706
    3MOL    H17  661   6.862   6.169   5.222 -0.9984  0.7813 -0.9037
    3MOL    C18  662   6.902   5.918   5.367  0.3211 -0.3615  0.5588
    3MOL    C19  663   6.978   6.026   5.447 -0.0874 -0.5689 -0.4006
    3MOL    C20  664   6.997   5.823   5.291  0.4010 -0.9358  0.0399
    3MOL    C21  665   6.917   5.712   5.226  0.0481 -0.3314  0.3489
    3MOL    C22  666   6.947   5.686   5.080 -0.5111 -0.2161 -0.0103
    3MOL    C23  667   6.824   5.639   5.286 -0.0477 -0.4223 -0.1730
    3MOL    H24  668   6.853   5.858   5.443  0.4523 -0.0870  0.8602
    3MOL    H25  669   7.032   6.099   5.387 -1.0192 -0.3859 -1.0223
    3MOL    H26  670   7.025   5.991   5.539 -0.7082  0.0684  0.1644
    3MOL    H27  671   6.898   6.088   5.487 -0.9647 -2.4835  0.8850
    3MOL    H28  672   7.033   5.885   5.208 -0.9768  0.3659  0.3977
    3MOL    H29  673   6.872   5.621   5.035  0.0899 -0.4291 -0.7019
    3MOL    H30  674   7.048   5.650   5.061  0.3868  1.4877  1.3500
    3MOL    H31  675   6.932   5.778   5.023 -0.7009 -0.0083  0.3711
    3MOL    H32  676   6.790   5.657   5.387 -1.6572  2.1836 -1.1343
    3MOL    H33  677   6.775   5.553   5.242  0.6906 -1.1949  0.5111
    3MOL    C34  678   7.122   5.760   5.369  0.4294  0.2683 -0.6148
    3MOL    C35  679   7.086   5.690   5.504 -0.3416  0.1323 -0.3679
    3MOL    C36  680   7.252   5.854   5.377  0.0231  0.3653 -0.1827
    3MOL    C37  681   7.280   5.943   5.249  0.0021  0.6561 -0.4739
    3MOL    C38  682   7.281   5.873   5.111  0.4559  0.0927 -0.4039
    3MOL    C39  683   7.315   6.072   5.259 -0.4691 -0.3641 -0.3235
    3MOL    H40  684   7.159   5.682   5.302 -0.7355  0.3549 -1.3858
    3MOL    H41  685   7.030   5.599   5.480 -0.3352 -0.7177  2.6571
    3MOL    H42  686   7.019   5.749   5.566  0.4989 -0.5373  1.1882
    3MOL    H43  687   7.173   5.663   5.563 -0.3692 -3.3757 -1.7897
    3MOL    H44  688   7.222   5.931   5.447 -0.6253 -1.5933  1.7468
    3MOL    H45  689   7.383   5.849   5.082  0.1886 -0.8379 -0.5736
    3MOL    H46  690   7.247   5.954   5.047 -1.2638 -0.4806 -0.2277
    3MOL    H47  691   7.221   5.783   5.103  1.5487 -0.6063 -0.8370
    3MOL    H48  692   7.310   6.131   5.349 -1.0632 -0.7016 -0.1363
    3MOL    H49  693   7.355   6.115   5.167  0.1556 -1.8538 -0.7647
    3MOL    C50  694   7.391   5.803   5.439 -0.1724 -0.8876  0.3917
    3MOL    C51  695   7.421   5.672   5.366  0.0892  0.4959  0.6407
    3MOL    C52  696   7.408   5.794   5.595 -0.1747  0.4034 -0.1786
    3MOL    C53  697   7.345   5.907   5.672  0.3978  0.0479 -0.6342
    3MOL    C54  698   7.375   6.053   5.638  0.1421  0.1014 -0.6643
    3MOL    C55  699   7.246   5.879   5.758 -0.4366  0.2570  0.7784
    3MOL    H56  700   7.461   5.883   5.418  1.8406 -2.0671  2.4050
    3MOL    H57  701   7.520   5.629   5.385  0.2528  1.5337  2.2814
    3MOL    H58  702   7.414   5.676   5.257  1.7169  0.6205  0.5284
    3MOL    H59  703   7.356   5.599   5.413  0.5003 -0.8384 -0.8376
    3MOL    H60  704   7.342   5.715   5.630 -1.0316  0.8639 -0.7076
    3MOL    H61  705   7.443   6.071   5.555 -0.2514 -1.3969 -1.3366
    3MOL    H62  706   7.412   6.098   5.730 -2.1866  2.6937 -0.9194
    3MOL    H63  707   7.279   6.100   5.615  0.2394  0.5769 -0.0988
    3MOL    H64  708   7.209   5.778   5.767 -0.9124  0.1756 -1.7238
    3MOL    H65  709   7.193   5.958   5.809 -2.1168 -0.0195 -0.5114
    3MOL    C66  710   7.555   5.771   5.655  1.0646  0.0251 -0.4069
    3MOL    C67  711   7.662   5.847   5.582  0.1416  0.6797 -0.6139
    3MOL    C68  712   7.575   5.620   5.688 -0.0364  0.5141 -0.2959
    3MOL    C69  713   7.466   5.558   5.782  0.2951  0.3416  0.1042
    3MOL    C70  714   7.421   5.413   5.755 -0.2093 -0.7353 -0.2723
    3MOL    C71  715   7.412   5.627   5.886 -0.0384 -0.1056  0.0132
    3MOL    H72  716   7.554   5.827   5.748 -4.4382 -0.0394 -0.2404
    3MOL    H73  717   7.700   5.800   5.491  1.2719  0.0736  0.1684
    3MOL    H74  718   7.745   5.860   5.652 -0.1202 -0.6234 -0.0513
    3MOL    H75  719   7.633   5.952   5.570 -1.4114  0.5841  1.9327
    3MOL    H76  720   7.550   5.571   5.594  0.3026  3.3073 -1.8889
    3MOL    H77  721   7.501   5.339   5.751  1.3211  0.8669 -0.3342
    3MOL    H78  722   7.393   5.400   5.650  0.0583 -2.2349 -0.1695
    3MOL    H79  723   7.335   5.391   5.817 -0.1583  0.1251  0.1112
    3MOL    H80  724   7.416   5.734   5.895 -2.1352  0.1114 -1.1747
    3MOL    H81  725   7.342   5.578   5.953 -0.7018 -0.5806 -1.0153
    3MOL    C82  726   7.720   5.569   5.736 -0.2870  0.3676  0.4678
    3MOL    C83  727   7.762   5.654   5.854 -0.4146 -0.5356 -0.3665
    3MOL    C84  728   7.827   5.562   5.613 -0.1058 -0.2664  0.3495
    3MOL    C85  729   7.776   5.499   5.480  0.0644  0.5361 -0.4789
    3MOL    C86  730   7.691   5.369   5.493  0.1778  0.2660  0.0230
    3MOL    C87  731   7.790   5.551   5.359 -0.3152  0.3105 -0.2009
    3MOL    H88  732   7.707   5.469   5.775 -0.1987  0.7862  1.5840
    3MOL    H89  733   7.800   5.752   5.824  0.9234 -1.4433 -1.6736
    3MOL    H90  734   7.843   5.607   5.909  1.0976  1.3954 -0.8851
    3MOL    H91  735   7.678   5.655   5.924  1.3778  1.7687  1.8828
    3MOL    H92  736   7.843   5.665   5.580  0.2834  0.5550  2.9989
    3MOL    H93  737   7.628   5.346   5.407  0.6587  1.9591 -0.8259
    3MOL    H94  738   7.630   5.376   5.583 -0.6030  1.0655 -0.5521
    3MOL    H95  739   7.753   5.280   5.505 -0.8656 -0.2556  1.6378
    3MOL    H96  740   7.840   5.645   5.340 -0.1304  0.0345 -1.1255
    3MOL    H97  741   7.745   5.493   5.280 -3.0739 -0.4847  1.8754
    3MOL    C98  742   0.082   5.516   5.660  0.7117  0.0916  0.0195
    3MOL    C99  743   0.196   5.603   5.604  0.6651 -0.0077 -0.9986
    3MOL   C100  744   0.103   5.357   5.686  0.8448  0.0489  1.0880
    3MOL   C101  745   0.110   5.337   5.834 -0.5919 -0.5136 -1.0796
    3MOL   C102  746   0.234   5.398   5.903 -0.8945  0.6769  0.2866
    3MOL   C103  747   0.008   5.289   5.908  0.1599  0.6011  0.0286
    3MOL   H104  748   0.074   5.570   5.755  0.4903  0.8594 -0.4332
    3MOL   H105  749   0.222   5.562   5.506 -2.7649 -0.7455 -1.6504
    3MOL   H106  750   0.285   5.590   5.666 -0.7656 -0.8300  0.9534
    3MOL   H107  751   0.160   5.705   5.596  0.0219 -0.3667 -2.8576
    3MOL   H108  752   0.014   5.305   5.650  1.5364 -1.4194  1.4342
    3MOL   H109  753   0.228   5.392   6.011 -0.1993  0.3071  0.3086
    3MOL   H110  754   0.234   5.503   5.873 -1.1064 -0.1349 -2.7917
    3MOL   H111  755   0.324   5.349   5.866 -1.0337 -0.0953  0.9516
    3MOL   H112  756   7.813   5.261   5.851  0.5063  1.3203 -0.8538
    3MOL   H113  757   0.018   5.280   6.015  0.2164  3.1587  0.2580
    3MOL   C114  758   0.200   5.278   5.598 -0.0984  0.3117  0.3214
    3MOL   C115  759   0.169   5.291   5.447 -0.8573  0.2129 -0.1314
    3MOL   C116  760   0.251   5.131   5.650 -0.3807 -0.0857  0.0059
    3MOL   C117  761   0.402   5.116   5.647 -0.3307  0.3719  0.2522
    3MOL   C118  762   0.474   5.118   5.505  0.2767 -0.1756 -0.4379
    3MOL   C119  763   0.473   5.105   5.761  0.4102 -0.2587 -0.3327
    3MOL   H120  764   0.290   5.337   5.616 -0.3228  1.0093 -0.7934
    3MOL   H121  765   0.064   5.268   5.426 -0.3322 -1.9728 -0.4466
    3MOL   H122  766   0.219   5.218   5.383 -0.3858 -0.3863  0.9054
    3MOL   H123  767   0.188   5.389   5.403 -1.4882 -0.1943 -1.3561
    3MOL   H124  768   0.241   5.129   5.758  0.6452  1.2891  0.1436
    3MOL   H125  769   0.415   5.053   5.441  2.3385 -1.5961 -0.9197
    3MOL   H126  770   0.573   5.074   5.506 -0.2317 -1.3214 -0.2463
    3MOL   H127  771   0.489   5.220   5.469 -0.7900  0.2918  0.3961
    3MOL   H128  772   0.432   5.107   5.861 -1.8200 -2.1208 -1.1559
    3MOL   H129  773   0.580   5.101   5.748  0.2803  1.4348 -2.0632
    3MOL   C130  774   0.180   4.999   5.604 -0.3292 -0.2376 -0.2387
    3MOL   C131  775   0.031   5.005   5.587 -0.4986  0.7620  0.4465
    3MOL   C132  776   0.218   4.863   5.670 -0.0592 -0.4197 -0.0379
    3MOL   C133  777   0.222   4.751   5.564  0.2589  0.1692  0.3199
    3MOL   C134  778   0.354   4.739   5.497 -0.1113  0.2578 -0.2093
    3MOL   C135  779   0.119   4.674   5.531 -0.0689  0.0316  0.3160
    3MOL   H136  780   0.214   4.994   5.500  1.2528  0.8113  0.2158
    3MOL   H137  781   7.866   5.058   5.663 -1.6278  0.2844 -0.0623
    3MOL   H138  782   7.881   4.905   5.577  1.2648  0.1912 -1.7431
    3MOL   H139  783   0.002   5.071   5.506  0.4484 -1.7655 -2.0093
    3MOL   H140  784   0.322   4.866   5.702 -0.1355  0.3068  0.1374
    3MOL   H141  785   0.399   4.836   5.477  0.4409 -0.1080 -0.7695
    3MOL   H142  786   0.349   4.693   5.398  3.2098  3.1490 -1.8738
    3MOL   H143  787   0.413   4.671   5.558  0.4954  0.6652 -0.3379
    3MOL   H144  788   0.022   4.694   5.574 -0.5969  2.3526 -1.8400
    3MOL   H145  789   0.126   4.599   5.453 -1.0455 -0.0364  0.2864
    3MOL   C146  790   0.137   4.823   5.797  0.3696  0.0643 -0.0936
    3MOL   C147  791   0.125   4.938   5.888  0.7208 -0.1615  0.0074
    3MOL   C148  792   0.196   4.696   5.866  0.0509 -0.0753 -0.7601
    3MOL   C149  793   0.106   4.573   5.840 -0.3534  0.6988  0.1376
    3MOL   C150  794   7.858   4.572   5.903  0.6429  0.5874 -0.3140
    3MOL   C151  795   0.154   4.466   5.776  0.5601 -0.8209 -0.4324
    3MOL   H152  796   0.038   4.793   5.761  0.1778  1.6023 -0.8656
    3MOL   H153  797   0.226   4.961   5.924  0.3842 -0.2808  1.0513
    3MOL   H154  798   0.056   4.912   5.968 -1.4404  3.0338 -0.7374
    3MOL   H155  799   0.080   5.027   5.844 -0.7431 -1.1845 -0.5802
    3MOL   H156  800   0.281   4.666   5.804  1.6174  0.1313  1.2566
    3MOL   H157  801   7.854   4.539   6.007  0.9275  3.3379  0.5988
    3MOL   H158  802   7.776   4.519   5.854  0.0865  1.0569  0.1049
    3MOL   H159  803   7.825   4.675   5.913  0.3866  0.3478  1.5286
    3MOL   H160  804   0.253   4.465   5.731  0.7538 -1.2457 -0.0069
    3MOL   H161  805   0.108   4.368   5.769  2.1348 -1.7583  1.6190
    3MOL   C162  806   0.265   4.694   6.012  0.6454 -1.6375 -0.1155
    3MOL   C163  807   0.183   4.757   6.128 -0.0187  0.1753 -0.0585
    3MOL   C164  808   0.424   4.722   6.018 -0.4965  0.4783 -0.0967
    3MOL   C165  809   0.494   4.637   5.919  1.0296  0.4305  0.2991
    3MOL   C166  810   0.598   4.714   5.837 -0.3722 -0.1059 -0.1496
    3MOL   C167  811   0.488   4.502   5.903 -0.1821 -0.4676  0.3287
    3MOL   H168  812   0.264   4.590   6.043  1.5265 -1.5569  0.2165
    3MOL   H169  813   0.193   4.865   6.129  0.3523  0.2757 -4.4308
    3MOL   H170  814   0.229   4.718   6.219  0.0412 -1.8275 -0.9118
    3MOL   H171  815   0.077   4.733   6.119 -0.9068  3.7440  0.3157
    3MOL   H172  816   0.424   4.827   5.988  1.4406 -0.3371 -3.1381
    3MOL   H173  817   0.678   4.770   5.885 -2.4623  0.5319  2.7288
    3MOL   H174  818   0.548   4.792   5.780 -0.5580  2.3005  3.2068
    3MOL   H175  819   0.658   4.650   5.772 -0.5484 -1.0267  0.5931
    3MOL   H176  820   0.431   4.437   5.968  2.1695 -0.9694  1.9409
    3MOL   H177  821   0.538   4.450   5.823  1.1347  0.3455  0.6071
    3MOL   C178  822   0.501   4.718   6.152  0.1347  0.1919 -0.3062
    3MOL   C179  823   0.471   4.585   6.225 -0.1780  0.0502 -0.1326
    3MOL   C180  824   0.489   4.850   6.236 -0.0593  1.1943  0.1654
    3MOL   C181  825   0.553   4.973   6.165 -0.7482 -0.1526 -0.1041
    3MOL   C182  826   0.485   5.107   6.185 -0.3157  0.0653 -0.0061
    3MOL   C183  827   0.666   4.976   6.086  0.9636 -0.0668 -0.1376
    3MOL   H184  828   0.609   4.717   6.135  0.5028  0.6241  1.8579
    3MOL   H185  829   0.490   4.499   6.161  2.1576 -0.2371  0.8604
    3MOL   H186  830   0.370   4.572   6.263 -0.1296  0.6913  0.2333
    3MOL   H187  831   0.545   4.564   6.302  0.9595  3.0966 -0.3040
    3MOL   H188  832   0.382   4.871   6.240 -0.1841  0.6385 -0.3178
    3MOL   H189  833   0.520   5.179   6.110 -0.7146  1.2502  0.9221
    3MOL   H190  834   0.516   5.152   6.279 -0.4263  0.5248 -0.1841
    3MOL   H191  835   0.376   5.102   6.184 -0.2465 -1.7313 -0.6157
    3MOL   H192  836   0.722   4.886   6.062 -1.8518 -2.1003  0.5704
    3MOL   H193  837   0.709   5.067   6.048  1.0491 -0.2081 -0.3841
    3MOL   C194  838   0.538   4.858   6.385  0.2347  0.0140 -0.1542
    3MOL   C195  839   0.679   4.801   6.398  0.3843 -0.3110 -0.0004
    3MOL   C196  840   0.429   4.804   6.493  0.1524 -0.3779 -0.2008
    3MOL   C197  841   0.281   4.861   6.478 -0.0540 -0.7067 -0.6042
    3MOL   C198  842   0.166   4.771   6.527 -0.2570 -0.5052  0.2343
    3MOL   C199  843   0.249   4.985   6.431 -0.3006 -0.3099  0.5688
    3MOL   H200  844   0.544   4.963   6.414  1.1379  0.2132 -1.0515
    3MOL   H201  845   0.672   4.693   6.392 -1.8809 -0.1054 -1.6909
    3MOL   H202  846   0.723   4.835   6.491  1.9562  0.4581 -0.9913
    3MOL   H203  847   0.741   4.849   6.321  0.9722  0.5630  1.0094
    3MOL   H204  848   0.408   4.699   6.474 -0.4510 -0.3309  0.1976
    3MOL   H205  849   0.076   4.813   6.483  0.4152  0.4224 -0.2818
    3MOL   H206  850   0.146   4.784   6.634 -1.5510  2.2140 -0.3143
    3MOL   H207  851   0.175   4.667   6.496 -0.6614 -0.3343 -0.4528
    3MOL   H208  852   0.321   5.055   6.391  1.2879 -2.7432 -0.9409
    3MOL   H209  853   0.143   5.005   6.433 -0.4740 -1.2921  2.1641
    3MOL   C210  854   0.461   4.819   6.648 -0.1521  0.3472  0.6353
    3MOL   C211  855   0.528   4.953   6.673  0.0858 -0.4843 -0.1278
    3MOL   C212  856   0.559   4.702   6.703 -0.6524  0.0002 -0.1995
    3MOL   C213  857   0.510   4.562   6.669  0.2498  0.3668 -0.1917
    3MOL   C214  858   0.607   4.455   6.622  0.5491 -0.5648  0.2851
    3MOL   C215  859   0.379   4.529   6.682  0.1541 -0.1162 -0.1901
    3MOL   H216  860   0.370   4.809   6.708 -0.3592  2.8593  0.8148
    3MOL   H217  861   0.469   5.030   6.624 -0.8061 -0.7898  0.4409
    3MOL   H218  862   0.633   4.959   6.646 -0.5874 -1.2683 -3.0201
    3MOL   H219  863   0.516   4.981   6.778 -1.1542  0.6973 -0.5703
    3MOL   H220  864   0.651   4.709   6.645 -0.4452  0.8472  0.2221
    3MOL   H221  865   0.654   4.491   6.530  0.2506  0.4938  0.5435
    3MOL   H222  866   0.559   4.359   6.601  0.2976 -0.3487 -0.1471
    3MOL   H223  867   0.679   4.444   6.702 -0.4062  1.6233  1.4939
    3MOL   H224  868   0.303   4.591   6.726 -1.1628 -1.8231 -0.0107
    3MOL   H225  869   0.332   4.438   6.648  4.6785 -3.0524  1.1294
    3MOL   C226  870   0.592   4.710   6.859  0.0660 -0.5528  0.4056
    3MOL   C227  871   0.460   4.752   6.942 -0.1932 -0.3768 -0.5309
    3MOL   C228  872   0.725   4.788   6.893  0.0342  0.4653 -0.4646
    3MOL   C229  873   0.841   4.747   6.797  0.3911  0.5720 -0.6215
    3MOL   C230  874   0.920   4.855   6.736 -0.0798 -0.4267 -0.7048
    3MOL   C231  875   0.881   4.619   6.786 -0.4317  0.0007  0.2394
    3MOL   H232  876   0.611   4.610   6.898  0.0223  0.2205  2.4994
    3MOL   H233  877   0.437   4.859   6.946 -1.0518 -0.5204 -1.4198
    3MOL   H234  878   0.485   4.719   7.043 -0.4567 -1.2473 -0.7520
    3MOL   H235  879   0.367   4.699   6.921 -0.1904 -0.9373  0.8291
    3MOL   H236  880   0.706   4.895   6.886  3.0693  1.0459 -0.5570
    3MOL   H237  881   0.906   4.954   6.781 -0.6830 -1.2158  0.8736
    3MOL   H238  882   0.888   4.861   6.632 -0.8503  0.1714 -0.4416
    3MOL   H239  883   1.027   4.833   6.740 -0.0131  0.2241  1.5841
    3MOL   H240  884   0.824   4.540   6.834  0.2972 -0.7974 -0.1892
    3MOL   H241  885   0.965   4.592   6.724 -2.0711 -5.1296 -0.0421
    3MOL   C242  886   0.779   4.771   7.035  0.2457  0.1045  0.8325
    3MOL   C243  887   0.753   4.635   7.100 -0.2875  1.0059  0.2281
    3MOL   C244  888   0.766   4.893   7.138  0.0115 -0.0587  0.4501
    3MOL   C245  889   0.656   5.002   7.103  0.2086 -0.6261  0.0303
    3MOL   C246  890   0.686   5.124   7.020 -0.1823 -0.0780 -0.0547
    3MOL   C247  891   0.533   4.987   7.157 -0.0839  0.0956 -0.6252
    3MOL   H248  892   0.886   4.751   7.030  0.0077 -1.2406  0.8184
    3MOL   H249  893   0.780   4.545   7.044  0.1144 -0.1145  2.1869
    3MOL   H250  894   0.653   4.629   7.141 -0.5640  0.7623 -0.4782
    3MOL   H251  895   0.819   4.617   7.184 -1.2672  0.0670  0.7917
    3MOL   H252  896   0.717   4.840   7.219  0.2165 -1.4838 -0.3341
    3MOL   H253  897   0.627   5.213   7.044 -1.0801 -1.1715  1.8897
    3MOL   H254  898   0.669   5.099   6.915  1.7667 -1.2975 -0.1040
    3MOL   H255  899   0.790   5.157   7.027 -0.3975  0.6044 -0.0189
    3MOL   H256  900   0.509   4.905   7.224 -2.2168  0.7265 -0.5672
    3MOL   H257  901   0.447   5.050   7.138  0.8045  1.5511  0.1403
    3MOL   C258  902   0.904   4.948   7.191  0.6818 -0.6872 -0.1869
    3MOL   C259  903   0.995   4.988   7.082 -0.1338 -0.0591  0.4267
    3MOL   C260  904   0.960   4.857   7.309 -0.3228 -0.6262  0.2680
    3MOL   C261  905   0.861   4.878   7.427 -0.3410  0.0715 -0.4592
    3MOL   C262  906   0.821   4.749   7.494 -0.3325 -0.0141  0.1307
    3MOL   C263  907   0.813   5.001   7.467 -0.1631  0.4144 -0.0519
    3MOL   H264  908   0.872   5.043   7.232  0.1047 -1.6336  1.6416
    3MOL   H265  909   1.044   4.902   7.037  1.3841  0.9917  0.0362
    3MOL   H266  910   1.049   5.083   7.082  0.2085 -0.2466  1.0853
    3MOL   H267  911   0.935   5.013   6.995 -1.4346  2.8491  2.0602
    3MOL   H268  912   0.951   4.755   7.273 -2.6168 -0.9034  1.5076
    3MOL   H269  913   0.749   4.766   7.574  0.6969 -3.3649  1.8567
    3MOL   H270  914   0.903   4.703   7.550 -0.9775  0.9032  1.8837
    3MOL   H271  915   0.771   4.679   7.427 -0.0468 -0.8447  0.7614
    3MOL   H272  916   0.834   5.098   7.425  0.8722  1.1647  2.1614
    3MOL   H273  917   0.756   5.001   7.558  0.5778 -2.4408  0.4820
    3MOL   C274  918   1.106   4.890   7.356  0.3735  0.2009 -0.0606
    3MOL   C275  919   1.132   5.048   7.373 -0.1137 -0.6814  0.0986
    3MOL   C276  920   1.216   4.822   7.265  0.9008  0.1605  0.5179
    3MOL   C277  921   1.187   4.678   7.237  0.2829  0.2241  0.0852
    3MOL   C278  922   1.194   4.625   7.095  0.3605 -0.7758 -0.0610
    3MOL   C279  923   1.172   4.584   7.332  0.1638  0.3603 -0.2196
    3MOL   H280  924   1.109   4.851   7.457 -0.3911 -0.0674 -0.1360
    3MOL   H281  925   1.216   5.068   7.439 -0.4961 -0.5735  0.5584
    3MOL   H282  926   1.049   5.088   7.431  1.4393  1.7645  0.7047
    3MOL   H283  927   1.146   5.101   7.279  0.6145  0.7403  0.9882
    3MOL   H284  928   1.210   4.862   7.163 -0.3147  0.1430  0.5731
    3MOL   H285  929   1.147   4.528   7.077 -0.6847  0.0787 -2.0255
    3MOL   H286  930   1.300   4.618   7.071  0.0658 -0.2210 -1.5460
    3MOL   H287  931   1.143   4.696   7.030  1.2955  2.1905  2.3087
    3MOL   H288  932   1.175   4.611   7.436 -2.3339 -1.5227  0.3792
    3MOL   H289  933   1.150   4.486   7.293 -0.3726  0.9653 -1.5116
    3MOL   C290  934   1.362   4.831   7.318 -0.2774 -0.0499  0.3400
    3MOL   C291  935   1.370   4.821   7.474  0.1100 -0.2461  0.1483
    3MOL   C292  936   1.452   4.947   7.257  0.5673 -0.3324  0.4069
    3MOL   C293  937   1.463   4.951   7.100 -0.2004  0.1122  0.1622
    3MOL   C294  938   1.518   4.827   7.033  0.2441  0.3177 -0.4957
    3MOL   C295  939   1.428   5.053   7.019  0.1417  0.6251  0.5470
    3MOL   H296  940   1.417   4.741   7.289  0.8051  1.1243 -1.3184
    3MOL   H297  941   1.474   4.810   7.505  0.6331  0.5948 -1.2088
    3MOL   H298  942   1.301   4.746   7.511  0.2604 -0.9142 -0.9049
    3MOL   H299  943   1.348   4.919   7.516  2.9115  1.7812 -2.8852
    3MOL   H300  944   1.396   5.038   7.274  0.2365 -0.2999 -0.8011
    3MOL   H301  945   1.439   4.751   7.030  0.0616  0.5301 -1.4091
    3MOL   H302  946   1.605   4.792   7.088  1.3863  2.8494 -0.6081
    3MOL   H303  947   1.544   4.839   6.928  0.6529 -1.3437 -0.6004
    3MOL   H304  948   1.387   5.142   7.064 -1.0642  1.0751 -1.3461
    3MOL   H305  949   1.440   5.046   6.911  1.3616 -0.2252  0.7288
    3MOL   C306  950   1.585   4.977   7.332  0.5432  1.1800  0.2910
    3MOL   C307  951   1.636   5.118   7.294  0.5937  0.8301 -0.3889
    3MOL   C308  952   1.691   4.865   7.326 -0.6117 -0.6288  0.9546
    3MOL   C309  953   1.799   4.891   7.428 -0.2794 -0.3049  0.2046
    3MOL   C310  954   1.932   4.878   7.365 -0.8178 -0.2042 -0.6841
    3MOL   C311  955   1.784   4.909   7.560 -0.0963  0.1725 -0.2534
    3MOL   H312  956   1.560   5.000   7.436 -0.5498  0.7212  0.1320
    3MOL   H313  957   1.726   5.143   7.350 -0.1804 -0.2103  1.3760
    3MOL   H314  958   1.556   5.192   7.298  0.6329  0.7747  2.7275
    3MOL   H315  959   1.665   5.117   7.189  0.0223  1.5913 -0.5591
    3MOL   H316  960   1.651   4.765   7.340  0.8183 -1.3228  0.1945
    3MOL   H317  961   2.011   4.918   7.428 -3.4646  4.2153  0.0035
    3MOL   H318  962   1.932   4.942   7.277 -0.0263 -0.2103 -0.6936
    3MOL   H319  963   1.967   4.780   7.330 -0.6233 -0.9167  1.4094
    3MOL   H320  964   1.685   4.919   7.603 -0.1970 -3.9857  0.6429
    3MOL   H321  965   1.867   4.915   7.628  0.5235 -1.9657 -0.8078
    3MOL   H322  966   1.740   4.866   7.228  1.4826 -0.1799  1.9614
    4MOL     C1  967   0.292   6.687   3.424 -0.3042  0.4977 -0.3796
    4MOL     C2  968   0.201   6.569   3.394 -0.6190  0.2938 -0.0023
    4MOL     C3  969   0.431   6.677   3.361  0.3838 -0.3298  0.3996
    4MOL     C4  970   0.520   6.569   3.416 -0.5768 -0.2569  0.8206
    4MOL     C5  971   0.619   6.506   3.316  0.5759  0.5115 -0.0480
    4MOL     C6  972   0.504   6.509   3.538  0.1384  0.9068  0.5806
    4MOL     H7  973   0.236   6.769   3.378  2.6702  2.0705 -1.3590
    4MOL     H8  974   0.094   6.590   3.400 -1.0295 -1.6495 -0.1590
    4MOL     H9  975   0.234   6.490   3.462  1.3385  0.9001 -0.2197
    4MOL    H10  976   0.218   6.528   3.294 -1.5429 -0.6093  0.2025
    4MOL    H11  977   0.405   6.625   3.268 -1.3582  0.9238  0.1460
    4MOL    H12  978   0.689   6.583   3.281  1.0519 -0.4259 -1.1630
    4MOL    H13  979   0.570   6.485   3.221  1.1924 -2.2181  0.2189
    4MOL    H14  980   0.675   6.417   3.343 -0.2513 -0.7140 -2.2558
    4MOL    H15  981   0.427   6.531   3.612  1.5087 -1.8049  2.9105
    4MOL    H16  982   0.580   6.436   3.561  0.8315  0.3677 -3.1460
    4MOL    H17  983   0.286   6.698   3.532 -0.8973  0.3936 -0.4003
    4MOL    C18  984   0.503   6.816   3.332  0.3786  0.2384 -0.3859
    4MOL    C19  985   0.500   6.909   3.466  0.7646  0.0875  0.2810
    4MOL    C20  986   0.443   6.879   3.198 -0.6176  0.8805 -0.3541
    4MOL    C21  987   0.457   6.785   3.074 -0.1840 -0.6871 -0.6555
    4MOL    C22  988   0.605   6.765   3.032  0.0103  0.4558  0.7434
    4MOL    C23  989   0.351   6.728   3.012  0.3959  0.3583  0.2300
    4MOL    H24  990   0.607   6.795   3.309  0.3992  0.3571 -0.3993
    4MOL    H25  991   0.574   6.989   3.480  1.4068 -0.1788 -1.4756
    4MOL    H26  992   0.518   6.853   3.558 -1.7184 -0.9943  0.1411
    4MOL    H27  993   0.403   6.958   3.463  1.2406  1.1126  0.9335
    4MOL    H28  994   0.337   6.867   3.216 -0.5920  0.1985 -0.6539
    4MOL    H29  995   0.671   6.735   3.113 -0.8932 -2.1423  0.5388
    4MOL    H30  996   0.649   6.858   2.996 -0.6461  0.4371 -0.1258
    4MOL    H31  997   0.618   6.686   2.958 -1.4884  1.9361 -1.1638
    4MOL    H32  998   0.253   6.732   3.056  0.0540 -1.7997 -0.2708
    4MOL    H33  999   0.372   6.668   2.924  0.3737  1.1951 -0.3449
    4MOL    C34 1000   0.494   7.030   3.166  0.4232  0.1420  0.0606
    4MOL    C35 1001   0.640   7.063   3.207  0.4010  0.1360  0.4262
    4MOL    C36 1002   0.398   7.149   3.195 -0.2318  0.0246 -0.0985
    4MOL    C37 1003   0.253   7.113   3.186 -0.1687 -0.0019 -0.4478
    4MOL    C38 1004   0.190   7.092   3.050 -0.3137 -0.1897  0.6891
    4MOL    C39 1005   0.172   7.110   3.292 -0.2195  0.1567 -0.0593
    4MOL    H40 1006   0.492   7.039   3.057  2.8849 -0.0315 -0.0335
    4MOL    H41 1007   0.667   7.169   3.205  1.3267 -0.1314 -1.7457
    4MOL    H42 1008   0.711   7.030   3.132 -2.3009 -2.3924 -1.1060
    4MOL    H43 1009   0.673   7.018   3.301  0.8169 -0.2773  0.0809
    4MOL    H44 1010   0.418   7.168   3.300 -0.9456  1.6156 -0.2326
    4MOL    H45 1011   0.151   6.990   3.051  0.7103 -0.5809  1.2031
    4MOL    H46 1012   0.278   7.086   2.985 -0.2210  3.6838  0.3897
    4MOL    H47 1013   0.122   7.176   3.039 -1.4936 -1.3191 -0.9758
    4MOL    H48 1014   0.191   7.138   3.395 -0.3120  0.5463 -0.1472
    4MOL    H49 1015   0.070   7.086   3.269  0.2717 -2.0166 -0.0733
    4MOL    C50 1016   0.420   7.300   3.142  0.1368 -0.5474  0.2472
    4MOL    C51 1017   0.506   7.313   3.010 -0.1350 -0.0724  0.5825
    4MOL    C52 1018   0.460   7.411   3.242  0.2186 -0.2332  0.5457
    4MOL    C53 1019   0.601   7.404   3.309  0.3836 -0.5227  0.1347
    4MOL    C54 1020   0.623   7.319   3.436 -0.4800 -0.5902  0.0648
    4MOL    C55 1021   0.706   7.463   3.256  0.2210 -0.0271  0.0477
    4MOL    H56 1022   0.321   7.325   3.104 -0.0841  1.9086  2.2852
    4MOL    H57 1023   0.488   7.411   2.964  2.5042  1.2482  2.2244
    4MOL    H58 1024   0.487   7.231   2.940  1.1731 -1.1993  1.5253
    4MOL    H59 1025   0.612   7.314   3.034  0.3424  0.0711 -1.4794
    4MOL    H60 1026   0.468   7.501   3.181 -1.3611 -1.5576 -1.7002
    4MOL    H61 1027   0.556   7.233   3.437 -1.7680  0.3683 -1.3823
    4MOL    H62 1028   0.617   7.375   3.529 -0.2671 -0.3974 -0.0340
    4MOL    H63 1029   0.723   7.276   3.440 -1.6083 -3.2111  0.9873
    4MOL    H64 1030   0.698   7.532   3.173  1.0486  2.2483  1.8081
    4MOL    H65 1031   0.808   7.445   3.289  1.0942 -0.8557 -2.8904
    4MOL    C66 1032   0.350   7.456   3.351  0.3572  0.1696  0.0656
    4MOL    C67 1033   0.213   7.487   3.288  0.6588 -0.0843  0.0282
    4MOL    C68 1034   0.399   7.563   3.451 -0.5514  0.3393  0.4383
    4MOL    C69 1035   0.321   7.547   3.577  0.1324  0.7811 -0.7069
    4MOL    C70 1036   0.373   7.452   3.679  0.2733 -0.1137  0.1815
    4MOL    C71 1037   0.203   7.612   3.608  0.3485  0.1297 -0.2169
    4MOL    H72 1038   0.336   7.367   3.412  0.6186  1.3324  1.8678
    4MOL    H73 1039   0.213   7.571   3.219  2.1845 -0.0581  0.0407
    4MOL    H74 1040   0.143   7.510   3.368  0.1622 -0.1071 -0.3950
    4MOL    H75 1041   0.158   7.412   3.231 -0.9608  2.0841 -1.3547
    4MOL    H76 1042   0.501   7.538   3.478 -0.7779 -0.1984  0.8200
    4MOL    H77 1043   0.302   7.426   3.757 -0.2682 -1.5061 -0.7569
    4MOL    H78 1044   0.469   7.490   3.715  0.5951  1.3502 -2.0715
    4MOL    H79 1045   0.399   7.358   3.631  2.3822  0.7891 -0.5314
    4MOL    H80 1046   0.161   7.677   3.533 -0.0189  0.1007 -0.0336
    4MOL    H81 1047   0.147   7.604   3.700  0.7926 -0.7118 -0.0088
    4MOL    C82 1048   0.406   7.713   3.401 -0.1862 -0.3785  0.5280
    4MOL    C83 1049   0.501   7.741   3.277  0.5531 -0.0188  0.0259
    4MOL    C84 1050   0.451   7.809   3.521  0.0828 -0.9729  0.1297
    4MOL    C85 1051   0.389   0.054   3.507  0.7060  0.9774  0.5648
    4MOL    C86 1052   0.252   0.056   3.569 -0.8160 -0.0841 -0.5802
    4MOL    C87 1053   0.440   0.157   3.436 -0.1551  0.3879 -0.9266
    4MOL    H88 1054   0.304   7.741   3.374  0.7147  2.7247  0.0949
    4MOL    H89 1055   0.599   7.696   3.289  0.2018 -1.1795 -1.2802
    4MOL    H90 1056   0.535   7.845   3.272 -1.5913  0.8016  1.4731
    4MOL    H91 1057   0.453   7.736   3.179  2.5425  1.7917 -1.0730
    4MOL    H92 1058   0.415   7.769   3.616  0.1948  1.7646  1.3690
    4MOL    H93 1059   0.247   7.892   3.663 -1.7654 -0.2246 -0.7105
    4MOL    H94 1060   0.184   0.001   3.504 -0.0096  1.7289 -3.0465
    4MOL    H95 1061   0.218   0.157   3.595 -0.1130  0.2250 -0.8631
    4MOL    H96 1062   0.531   0.160   3.378  0.2837 -1.9884 -0.4050
    4MOL    H97 1063   0.377   0.245   3.435 -1.3395 -0.4227  0.5797
    4MOL    C98 1064   0.610   7.825   3.552  0.0262  0.9860 -0.5614
    4MOL    C99 1065   0.694   7.699   3.568 -0.0009 -0.5622  0.2434
    4MOL   C100 1066   0.660   0.040   3.658 -0.0007 -0.0127  0.4719
    4MOL   C101 1067   0.789   0.109   3.615 -0.0140 -0.0121  0.3529
    4MOL   C102 1068   0.769   0.214   3.516 -0.8470 -0.4723 -0.3967
    4MOL   C103 1069   0.913   0.068   3.653  0.6048 -0.0550  0.0090
    4MOL   H104 1070   0.653   7.865   3.460  0.3394 -2.2377 -1.8646
    4MOL   H105 1071   0.778   7.728   3.631  1.0713 -1.2328 -0.8582
    4MOL   H106 1072   0.737   7.665   3.474 -0.6215  0.2343 -0.3366
    4MOL   H107 1073   0.634   7.626   3.623 -0.5926 -0.2834 -0.0418
    4MOL   H108 1074   0.587   0.122   3.653  1.3597  1.1005 -1.9419
    4MOL   H109 1075   0.677   0.273   3.516  0.3895  1.5369  1.6986
    4MOL   H110 1076   0.754   0.164   3.420  0.9806  2.0989 -2.0969
    4MOL   H111 1077   0.854   0.281   3.503 -1.0540 -0.1206  0.0406
    4MOL   H112 1078   0.936   7.879   3.721  0.9413 -1.4092 -1.7007
    4MOL   H113 1079   1.003   0.119   3.621 -1.5383  3.5204 -0.5607
    4MOL   C114 1080   0.653   0.004   3.809  0.2085  0.5284  0.0759
    4MOL   C115 1081   0.543   7.801   3.854  0.0240  0.1905 -0.2900
    4MOL   C116 1082   0.663   0.127   3.904  0.0678 -0.7906 -0.9456
    4MOL   C117 1083   0.734   0.091   4.035 -0.1942 -0.6909  0.4660
    4MOL   C118 1084   0.878   0.052   4.020 -0.4922 -0.2879 -0.1274
    4MOL   C119 1085   0.680   0.080   4.159 -0.3758 -0.5281 -0.6240
    4MOL   H120 1086   0.745   7.844   3.832  0.7416  1.7811  0.8338
    4MOL   H121 1087   0.447   7.847   3.831 -0.9629 -0.7418  1.8214
    4MOL   H122 1088   0.538   7.788   3.962  0.5745 -2.7109 -0.5865
    4MOL   H123 1089   0.534   7.696   3.827  0.8259 -0.1588  0.7869
    4MOL   H124 1090   0.740   0.177   3.845 -1.6413  1.0090 -1.7170
    4MOL   H125 1091   0.934   0.097   4.101 -0.9328 -1.2074  0.7044
    4MOL   H126 1092   0.910   0.095   3.925  0.5810 -1.9073 -0.5298
    4MOL   H127 1093   0.896   7.837   4.022 -0.2685 -0.2240  2.9675
    4MOL   H128 1094   0.577   0.107   4.174  0.3862  3.4326 -2.0356
    4MOL   H129 1095   0.743   0.048   4.241 -0.7971 -0.0435 -0.1042
    4MOL   C130 1096   0.537   0.219   3.928 -0.0043 -0.5219 -0.0986
    4MOL   C131 1097   0.437   0.239   3.817  0.2860 -0.1539  0.9088
    4MOL   C132 1098   0.569   0.366   3.989  0.0368 -0.0004 -0.2413
    4MOL   C133 1099   0.443   0.411   4.073  0.6821 -0.3634  0.1543
    4MOL   C134 1100   0.409   0.338   4.203  1.2217 -0.5522  0.0363
    4MOL   C135 1101   0.350   0.499   4.029  0.4469  0.8625  0.2351
    4MOL   H136 1102   0.475   0.173   4.005 -0.6068 -1.0787 -0.9172
    4MOL   H137 1103   0.475   0.299   3.735 -0.3224  0.5451  1.1325
    4MOL   H138 1104   0.348   0.289   3.856  0.6220  1.1929 -0.0112
    4MOL   H139 1105   0.413   0.140   3.777 -1.9480  0.7791 -0.1485
    4MOL   H140 1106   0.643   0.334   4.062 -1.0311  1.2212  1.4295
    4MOL   H141 1107   0.508   0.316   4.244  0.5953 -0.3356  1.7071
    4MOL   H142 1108   0.382   0.234   4.186 -0.5609  0.1198 -1.4358
    4MOL   H143 1109   0.341   0.378   4.278  0.4055 -1.1036 -0.4131
    4MOL   H144 1110   0.351   0.547   3.932  0.3113 -2.4225 -1.4743
    4MOL   H145 1111   0.261   0.524   4.084 -0.5729 -0.8801 -0.5676
    4MOL   C146 1112   0.633   0.472   3.898  0.0088 -0.2222  0.0274
    4MOL   C147 1113   0.748   0.423   3.809 -0.1013 -0.6061  0.7788
    4MOL   C148 1114   0.665   0.612   3.971 -0.4615 -0.5774  0.3413
    4MOL   C149 1115   0.638   0.723   3.867 -0.3123  0.3332 -0.5837
    4MOL   C150 1116   0.497   0.779   3.854 -0.2504  0.3177 -0.4467
    4MOL   C151 1117   0.722   0.761   3.773  0.2937 -0.2078 -0.1794
    4MOL   H152 1118   0.545   0.485   3.835  1.0036  0.1283 -1.3132
    4MOL   H153 1119   0.829   0.394   3.876  1.5571  2.2296  0.0909
    4MOL   H154 1120   0.780   0.496   3.734  0.2772 -1.7341 -0.1591
    4MOL   H155 1121   0.707   0.340   3.752 -0.7246 -0.1262  0.5242
    4MOL   H156 1122   0.596   0.636   4.052  1.0660 -1.7925  2.0262
    4MOL   H157 1123   0.451   0.801   3.950 -0.9466 -0.6051 -0.5591
    4MOL   H158 1124   0.436   0.697   3.815 -1.0636  1.0008 -0.6155
    4MOL   H159 1125   0.494   0.862   3.784 -0.4678 -0.3271 -1.2153
    4MOL   H160 1126   0.826   0.732   3.761  1.1844  1.3917  2.9324
    4MOL   H161 1127   0.706   0.837   3.698  2.4821  1.7507  1.2457
    4MOL   C162 1128   0.817   0.622   4.019 -0.5637  0.1655 -0.2754
    4MOL   C163 1129   0.851   0.519   4.128 -0.2457 -0.8835  1.2218
    4MOL   C164 1130   0.864   0.766   4.073 -0.3168 -0.5674 -0.6312
    4MOL   C165 1131   1.020   0.774   4.059  0.6852  0.2470  0.1563
    4MOL   C166 1132   1.075   0.795   3.928  0.3327 -0.1682 -0.5349
    4MOL   C167 1133   1.104   0.733   4.158  0.6773 -0.0117  0.6276
    4MOL   H168 1134   0.880   0.600   3.933  0.2013  1.3729 -0.0417
    4MOL   H169 1135   0.768   0.503   4.197 -1.4033 -0.7287 -0.0945
    4MOL   H170 1136   0.939   0.537   4.189  0.0879  0.4514  0.3836
    4MOL   H171 1137   0.870   0.420   4.087  1.9824  0.2364 -0.5510
    4MOL   H172 1138   0.823   0.838   4.003 -0.3517  0.7470  0.7198
    4MOL   H173 1139   1.019   0.732   3.859  0.0413  0.2351 -0.6664
    4MOL   H174 1140   1.182   0.775   3.930 -0.0529 -2.1594  1.6223
    4MOL   H175 1141   1.056   0.895   3.888 -2.7928 -0.4219  0.2141
    4MOL   H176 1142   1.074   0.707   4.259  1.0425 -0.2642  0.6736
    4MOL   H177 1143   1.212   0.723   4.154  0.5371 -1.0858 -0.7862
    4MOL   C178 1144   0.819   0.813   4.212 -0.9088 -0.3085  0.0906
    4MOL   C179 1145   0.668   0.803   4.231  0.3065 -0.3517 -0.0868
    4MOL   C180 1146   0.867   0.955   4.260 -0.2683 -0.2458  0.6589
    4MOL   C181 1147   0.888   0.966   4.413 -0.0042  0.3716  0.5811
    4MOL   C182 1148   0.772   1.011   4.497  0.0872  0.8967  0.0362
    4MOL   C183 1149   1.006   0.946   4.473  0.3109  0.0390 -0.1082
    4MOL   H184 1150   0.859   0.742   4.284 -0.4677  0.2991  0.4517
    4MOL   H185 1151   0.644   0.697   4.241 -0.8752 -0.1961 -1.1290
    4MOL   H186 1152   0.600   0.844   4.156  0.2853  0.2796  0.2756
    4MOL   H187 1153   0.650   0.848   4.329  1.8398  1.2155 -0.4948
    4MOL   H188 1154   0.969   0.952   4.223 -0.5097  1.9977 -0.2955
    4MOL   H189 1155   0.809   1.092   4.560  2.4670  0.0391 -0.2032
    4MOL   H190 1156   0.735   0.930   4.559  0.8507  0.5494  0.0339
    4MOL   H191 1157   0.687   1.051   4.441  0.9648  3.8255  0.6901
    4MOL   H192 1158   1.097   0.915   4.425  0.2073 -2.1412  1.0673
    4MOL   H193 1159   1.010   0.960   4.581 -0.8211  0.6756 -0.1332
    4MOL   C194 1160   0.814   1.088   4.189 -0.2392  0.0765  0.9554
    4MOL   C195 1161   0.784   1.078   4.033  0.3025 -0.6333  0.2793
    4MOL   C196 1162   0.903   1.219   4.224  0.3404 -0.2619  0.1292
    4MOL   C197 1163   0.818   1.340   4.225 -0.7591 -0.5072 -0.7814
    4MOL   C198 1164   0.745   1.372   4.355  0.5162 -0.8321 -0.5662
    4MOL   C199 1165   0.806   1.418   4.114  0.4258  0.7820 -0.7302
    4MOL   H200 1166   0.714   1.108   4.227 -0.8178 -0.1155 -0.4253
    4MOL   H201 1167   0.774   1.174   3.983  1.5897 -0.3921  0.4684
    4MOL   H202 1168   0.692   1.022   4.014 -1.3538  2.4866 -1.2142
    4MOL   H203 1169   0.870   1.034   3.982 -0.4453 -2.0288  0.2013
    4MOL   H204 1170   0.940   1.197   4.324  0.0407  1.5144  0.6443
    4MOL   H205 1171   0.818   1.342   4.431  0.7654  1.1550  0.0208
    4MOL   H206 1172   0.658   1.307   4.353  0.5002 -0.9382  1.7592
    4MOL   H207 1173   0.710   1.475   4.360  3.8053  0.2646  1.6673
    4MOL   H208 1174   0.859   1.386   4.025 -0.1231  0.7335 -1.0427
    4MOL   H209 1175   0.749   1.509   4.119 -0.7446 -0.0311  1.3985
    4MOL   C210 1176   1.038   1.243   4.136  0.0824  0.1740 -0.4627
    4MOL   C211 1177   1.132   1.121   4.126  0.3283  0.6104  0.0346
    4MOL   C212 1178   1.115   1.379   4.159  0.1160 -0.2479  0.4658
    4MOL   C213 1179   1.170   1.427   4.025 -0.9125  0.8260  1.0026
    4MOL   C214 1180   1.065   1.500   3.941 -0.5536 -0.3666 -0.9169
    4MOL   C215 1181   1.299   1.416   3.978 -0.2679 -0.2205 -0.1098
    4MOL   H216 1182   1.009   1.242   4.031 -2.0310 -1.2747  0.0956
    4MOL   H217 1183   1.093   1.032   4.077 -0.0661 -0.1087  1.6299
    4MOL   H218 1184   1.158   1.091   4.227 -0.7653  0.9602  0.4310
    4MOL   H219 1185   1.226   1.147   4.077  1.3438 -3.6320 -0.4272
    4MOL   H220 1186   1.045   1.458   4.185 -1.0047 -1.1973  0.3455
    4MOL   H221 1187   0.993   1.566   3.990 -0.4888 -0.8300 -0.2055
    4MOL   H222 1188   1.012   1.423   3.885 -2.9928 -0.5641  1.5705
    4MOL   H223 1189   1.111   1.545   3.853  1.6522  0.0181  0.4071
    4MOL   H224 1190   1.376   1.364   4.032 -0.5611 -0.1137  0.4148
    4MOL   H225 1191   1.331   1.457   3.883 -1.1035 -0.8719 -0.6888
    4MOL   C226 1192   1.216   1.376   4.281  0.3970  0.0129 -0.2668
    4MOL   C227 1193   1.158   1.324   4.415  0.7125 -0.1616  0.5640
    4MOL   C228 1194   1.292   1.512   4.301 -0.0774  0.3195  0.2914
    4MOL   C229 1195   1.434   1.489   4.353  0.4555 -0.1327  0.3739
    4MOL   C230 1196   1.453   1.430   4.488 -0.5921  0.0637  0.3239
    4MOL   C231 1197   1.544   1.529   4.289  0.3205 -0.0042  0.3266
    4MOL   H232 1198   1.297   1.309   4.254  0.5344  0.2846 -0.5312
    4MOL   H233 1199   1.049   1.334   4.417  0.5539 -0.5509 -2.7508
    4MOL   H234 1200   1.194   1.377   4.503 -0.4764 -0.3306  1.1589
    4MOL   H235 1201   1.188   1.223   4.440 -1.3689 -1.0391 -0.3818
    4MOL   H236 1202   1.303   1.545   4.198  0.0043 -0.5433  0.0229
    4MOL   H237 1203   1.434   1.323   4.491 -1.1174  0.0759 -1.8082
    4MOL   H238 1204   1.390   1.476   4.564 -0.0434  0.7707  0.3577
    4MOL   H239 1205   1.559   1.436   4.514 -0.0064  0.7334 -2.1314
    4MOL   H240 1206   1.540   1.576   4.192 -0.6553  0.1999  0.4682
    4MOL   H241 1207   1.640   1.514   4.336 -0.7841 -0.0319  2.5905
    4MOL   C242 1208   1.217   1.627   4.376  0.2176 -0.1137  0.0626
    4MOL   C243 1209   1.058   1.634   4.372 -0.0252  0.4236  0.0934
    4MOL   C244 1210   1.277   1.771   4.358 -0.1896  0.0614  0.8970
    4MOL   C245 1211   1.249   1.848   4.481 -0.2710 -0.1159  0.3827
    4MOL   C246 1212   1.353   1.827   4.595  0.1009  0.1291  0.4184
    4MOL   C247 1213   1.145   1.933   4.501  0.5259  0.1267  0.1108
    4MOL   H248 1214   1.223   1.600   4.482  0.1825  0.0705  0.1109
    4MOL   H249 1215   1.015   1.663   4.276 -1.2151 -1.1331  0.1334
    4MOL   H250 1216   1.024   1.701   4.450 -1.2961 -1.3036  1.0583
    4MOL   H251 1217   1.013   1.538   4.395 -1.4122  1.3268  1.2212
    4MOL   H252 1218   1.382   1.746   4.342  0.2155  2.1359  0.1199
    4MOL   H253 1219   1.313   1.869   4.687  1.5954  0.0902  1.0899
    4MOL   H254 1220   1.447   1.881   4.588  0.1279  0.0413  0.0509
    4MOL   H255 1221   1.389   1.724   4.595 -0.1489  0.0209 -0.9243
    4MOL   H256 1222   1.072   1.951   4.424  0.8869 -1.1898 -0.5438
    4MOL   H257 1223   1.134   1.983   4.597  1.3286  0.4753  0.0303
    4MOL   C258 1224   1.231   1.854   4.234  0.5539 -0.6047  0.2282
    4MOL   C259 1225   1.244   1.772   4.099 -0.7692  0.1589 -0.3218
    4MOL   C260 1226   1.317   1.990   4.228  0.6610 -0.5364 -0.8923
    4MOL   C261 1227   1.221   2.095   4.176  0.6426 -0.1700  0.1840
    4MOL   C262 1228   1.162   2.096   4.042 -0.2837  0.4438  0.1981
    4MOL   C263 1229   1.186   2.197   4.253  0.3873  0.5685 -0.6048
    4MOL   H264 1230   1.125   1.877   4.242  0.5108 -0.3828 -0.9647
    4MOL   H265 1231   1.246   1.841   4.014 -3.2631 -0.1022 -0.6303
    4MOL   H266 1232   1.157   1.708   4.087  0.6189 -1.9592  0.7162
    4MOL   H267 1233   1.329   1.704   4.098 -1.9181 -1.2921 -2.3948
    4MOL   H268 1234   1.337   2.019   4.331 -1.5854  0.1787 -0.6256
    4MOL   H269 1235   1.136   2.197   4.010 -1.5565  0.3089  0.7554
    4MOL   H270 1236   1.074   2.032   4.038 -0.6569  0.8212  1.9961
    4MOL   H271 1237   1.237   2.049   3.978  1.3700 -0.2700  2.5977
    4MOL   H272 1238   1.227   2.208   4.353 -1.3226 -1.8428  0.4105
    4MOL   H273 1239   1.114   2.275   4.230 -1.6708 -0.6809  1.4446
    4MOL   C274 1240   1.458   1.980   4.154  0.6327 -0.1589 -0.1275
    4MOL   C275 1241   1.558   1.871   4.193  0.5871  0.4239 -0.0037
    4MOL   C276 1242   1.526   2.127   4.151 -1.1252  0.6954  0.2432
    4MOL   C277 1243   1.594   2.142   4.012  0.4151  0.0864  0.0207
    4MOL   C278 1244   1.508   2.212   3.911 -0.0616  0.1561  0.1343
    4MOL   C279 1245   1.717   2.099   3.983 -0.8413 -0.4514  0.0891
    4MOL   H280 1246   1.435   1.963   4.048  0.1146  3.0870 -0.5993
    4MOL   H281 1247   1.556   1.866   4.302 -2.0722 -0.7425 -0.0617
    4MOL   H282 1248   1.654   1.890   4.146  0.5208  0.7525 -0.0120
    4MOL   H283 1249   1.507   1.779   4.167 -2.0099  1.5121  1.0237
    4MOL   H284 1250   1.445   2.199   4.149 -2.2801 -0.5267  1.3034
    4MOL   H285 1251   1.430   2.143   3.877 -1.3844  2.0398 -0.7634
    4MOL   H286 1252   1.566   2.222   3.819  1.6300  2.7009  1.4356
    4MOL   H287 1253   1.464   2.306   3.945 -0.1020  0.1578  0.0784
    4MOL   H288 1254   1.775   2.044   4.056 -0.7873 -0.0289  0.3713
    4MOL   H289 1255   1.762   2.116   3.886 -1.9520 -0.2007 -0.3843
    4MOL   C290 1256   1.621   2.162   4.265 -0.1610 -0.3797 -0.0647
    4MOL   C291 1257   1.547   2.184   4.393  0.4397  0.6196  0.0504
    4MOL   C292 1258   1.726   2.286   4.251  0.8268 -0.3715  0.2282
    4MOL   C293 1259   1.835   2.257   4.353  0.1724  0.6449 -0.1386
    4MOL   C294 1260   1.931   2.143   4.325 -0.1690 -0.1917  0.2002
    4MOL   C295 1261   1.857   2.332   4.463  0.1539 -0.0838  0.3489
    4MOL   H296 1262   1.681   2.073   4.287 -0.7657 -0.6432  0.5471
    4MOL   H297 1263   1.461   2.250   4.381  0.2658  0.6108  1.2289
    4MOL   H298 1264   1.605   2.225   4.476 -2.1348  1.2370  1.6132
    4MOL   H299 1265   1.505   2.089   4.426 -0.1944  0.3991 -1.3461
    4MOL   H300 1266   1.779   2.267   4.158  1.0209  1.4955 -0.0777
    4MOL   H301 1267   2.020   2.144   4.388  0.4721 -1.4667 -0.6745
    4MOL   H302 1268   1.958   2.142   4.220 -2.2655 -1.5937 -0.3597
    4MOL   H303 1269   1.877   2.051   4.344  0.3762 -0.7664 -1.0317
    4MOL   H304 1270   1.797   2.412   4.502  1.0977 -0.2127  2.1197
    4MOL   H305 1271   1.945   2.306   4.521 -0.1599 -0.7871  0.5092
    4MOL   C306 1272   1.668   2.435   4.259 -0.3115 -0.1958 -0.7110
    4MOL   C307 1273   1.567   2.463   4.156  0.0983 -1.2196  0.3558
    4MOL   C308 1274   1.785   2.534   4.219  0.1322  0.5686 -0.5038
    4MOL   C309 1275   1.761   2.683   4.227  0.9828  0.0494 -0.2311
    4MOL   C310 1276   1.718   2.735   4.367  0.6248 -0.0998 -0.4033
    4MOL   C311 1277   1.787   2.760   4.121  0.1967 -0.3094 -0.2942
    4MOL   H312 1278   1.630   2.454   4.360 -1.3931 -0.6408 -1.0276
    4MOL   H313 1279   1.599   2.440   4.055 -0.5922  0.5300 -0.2835
    4MOL   H314 1280   1.526   2.564   4.156  2.3078 -0.2953 -1.3654
    4MOL   H315 1281   1.479   2.403   4.182 -0.4684 -0.7903 -0.5577
    4MOL   H316 1282   1.859   2.528   4.298 -0.1713  3.0983  0.0190
    4MOL   H317 1283   1.711   2.843   4.379 -1.0819 -0.1869 -0.4004
    4MOL   H318 1284   1.783   2.694   4.445  1.9477  0.7184 -1.0684
    4MOL   H319 1285   1.618   2.691   4.375  0.5208 -0.0362 -1.3734
    4MOL   H320 1286   1.822   2.724   4.025  1.3179 -0.9783  0.3563
    4MOL   H321 1287   1.775   2.867   4.129  2.2014 -0.3185  3.9543
    4MOL   H322 1288   1.842   2.493   4.136 -1.7527 -0.3090 -1.4103
    5MOL     C1 1289   4.911   7.288   6.207  0.2808 -0.0170 -0.2448
    5MOL     C2 1290   4.967   7.174   6.291  0.0740 -0.0813 -0.5213
    5MOL     C3 1291   4.761   7.289   6.208 -0.5108 -0.9031 -0.3313
    5MOL     C4 1292   4.707   7.152   6.148 -1.4076 -0.0427 -0.5149
    5MOL     C5 1293   4.726   7.127   6.001 -0.1348 -0.1701 -0.0068
    5MOL     C6 1294   4.654   7.063   6.232  0.6775 -0.0053  0.2540
    5MOL     H7 1295   4.938   7.387   6.243 -1.5869  1.2071 -2.0478
    5MOL     H8 1296   4.911   7.160   6.383  2.6175 -2.4107  0.7394
    5MOL     H9 1297   5.072   7.188   6.318 -0.8032  0.7779  2.5954
    5MOL    H10 1298   4.961   7.080   6.235 -0.8083  0.2209 -0.9437
    5MOL    H11 1299   4.736   7.289   6.315  1.5755 -0.0970  0.1860
    5MOL    H12 1300   4.695   7.024   5.990  1.7089 -0.6144 -1.4875
    5MOL    H13 1301   4.829   7.131   5.964 -0.8546  1.5479 -1.9285
    5MOL    H14 1302   4.656   7.196   5.953 -0.2794 -0.7767 -0.6822
    5MOL    H15 1303   4.651   7.073   6.340  0.2989 -1.8622  0.4390
    5MOL    H16 1304   4.612   6.973   6.190 -0.8967 -0.8649  3.5120
    5MOL    H17 1305   4.953   7.272   6.107  0.8667 -0.6448  0.0996
    5MOL    C18 1306   4.696   7.412   6.139 -0.6350 -0.2040 -0.5206
    5MOL    C19 1307   4.767   7.458   6.010  0.7082 -0.0698  1.1554
    5MOL    C20 1308   4.672   7.541   6.231 -0.2731  0.6970  0.3066
    5MOL    C21 1309   4.622   7.516   6.372 -0.4864  0.5447 -0.5179
    5MOL    C22 1310   4.480   7.468   6.395  0.1503  0.1379  0.0562
    5MOL    C23 1311   4.705   7.526   6.478  0.2616  0.2191  0.6901
    5MOL    H24 1312   4.595   7.378   6.118 -1.2809  2.7280 -2.4728
    5MOL    H25 1313   4.701   7.533   5.967  1.4510 -0.6043 -1.0107
    5MOL    H26 1314   4.793   7.384   5.933  1.2676  3.6004 -2.3640
    5MOL    H27 1315   4.861   7.509   6.030  1.4165 -0.6982 -0.4493
    5MOL    H28 1316   4.771   7.576   6.261  0.0513 -0.7935  1.0393
    5MOL    H29 1317   4.404   7.538   6.361  0.1492  0.4569  0.7190
    5MOL    H30 1318   4.467   7.454   6.502 -2.9859 -1.3482 -0.4575
    5MOL    H31 1319   4.464   7.373   6.344  0.6412  0.1883 -0.1981
    5MOL    H32 1320   4.810   7.545   6.459 -0.2686  1.1725 -1.4324
    5MOL    H33 1321   4.683   7.507   6.582 -3.0269  0.7193  0.1296
    5MOL    C34 1322   4.583   7.663   6.180  0.3013 -0.0158 -0.4509
    5MOL    C35 1323   4.463   7.618   6.094  0.3320  0.3168  0.4003
    5MOL    C36 1324   4.670   7.776   6.110 -0.6038 -0.0120 -0.0164
    5MOL    C37 1325   4.796   7.810   6.187 -0.1856  0.3090 -0.1760
    5MOL    C38 1326   4.765   7.879   6.323  0.6944  0.6873  0.2281
    5MOL    C39 1327   4.917   7.768   6.147 -0.6088  0.0019  0.6110
    5MOL    H40 1328   4.541   7.709   6.269 -0.3144 -0.7443 -0.3633
    5MOL    H41 1329   4.501   7.595   5.995 -2.4969  0.4558 -0.7608
    5MOL    H42 1330   4.381   7.682   6.061  0.1489 -0.9188 -1.5648
    5MOL    H43 1331   4.414   7.525   6.120 -0.3195  0.5304 -0.0493
    5MOL    H44 1332   4.719   7.735   6.022 -0.7216  0.6931 -0.4161
    5MOL    H45 1333   4.727   0.088   6.307 -1.5659 -0.3056 -0.8461
    5MOL    H46 1334   4.863   7.889   6.369  0.4698  1.7893  0.4913
    5MOL    H47 1335   4.697   7.826   6.390 -1.8470  1.5654 -1.5694
    5MOL    H48 1336   4.934   7.718   6.053 -0.8376  1.9904 -0.5047
    5MOL    H49 1337   5.006   7.785   6.206 -0.8972 -1.3333  1.4510
    5MOL    C50 1338   4.599   0.016   6.071 -0.4464 -0.4562 -0.5569
    5MOL    C51 1339   4.482   0.060   6.172 -0.2066  0.8068  0.2976
    5MOL    C52 1340   4.570   0.024   5.917  0.1708 -0.1543 -0.8372
    5MOL    C53 1341   4.690   7.886   5.831 -0.4273  0.6855 -0.0646
    5MOL    C54 1342   4.803   0.093   5.837  0.3579 -0.3337 -0.3995
    5MOL    C55 1343   4.698   7.776   5.758 -0.0944  0.2560 -0.5535
    5MOL    H56 1344   4.674   0.095   6.081 -1.5146  0.5084  0.0317
    5MOL    H57 1345   4.389   0.017   6.136 -0.0128  0.4187  0.2465
    5MOL    H58 1346   4.470   0.168   6.173  1.3296  0.9889  1.2701
    5MOL    H59 1347   4.487   0.032   6.277 -1.6455  0.5891  0.3213
    5MOL    H60 1348   4.505   7.832   5.894  2.4721 -1.3053 -3.4691
    5MOL    H61 1349   4.879   0.067   5.764 -0.4196  0.7915 -1.6351
    5MOL    H62 1350   4.844   0.110   5.936 -0.5733  1.7344 -0.3320
    5MOL    H63 1351   4.761   0.188   5.803 -1.0459 -0.2444  1.4842
    5MOL    H64 1352   4.605   7.720   5.753 -1.4786  2.2238  1.8696
    5MOL    H65 1353   4.787   7.741   5.707  2.3422  3.1863  1.4907
    5MOL    C66 1354   4.489   0.153   5.866  0.4344 -1.3670  0.1920
    5MOL    C67 1355   4.528   0.285   5.945 -0.3023  0.0592 -0.4799
    5MOL    C68 1356   4.337   0.135   5.849  0.0192  0.4049  0.4409
    5MOL    C69 1357   4.292   0.030   5.753 -0.6646 -0.1491  0.4441
    5MOL    C70 1358   4.373   0.015   5.628  0.0353  0.4225 -0.4819
    5MOL    C71 1359   4.174   7.858   5.758  0.1617 -0.2407  0.4750
    5MOL    H72 1360   4.526   0.171   5.765 -1.3615 -0.1171 -0.2570
    5MOL    H73 1361   4.506   0.377   5.890  0.3424  0.2378 -0.4386
    5MOL    H74 1362   4.635   0.294   5.960 -0.2640  0.5739 -1.0621
    5MOL    H75 1363   4.470   0.312   6.033 -1.5579  1.7263 -1.7967
    5MOL    H76 1364   4.299   0.076   5.932 -0.9461  0.0120 -0.2666
    5MOL    H77 1365   4.332   7.826   5.568  0.3276  0.1553 -0.3216
    5MOL    H78 1366   4.471   7.873   5.663 -0.9536  1.5286  3.5886
    5MOL    H79 1367   4.387   0.102   5.565 -1.8560  1.5998  0.6695
    5MOL    H80 1368   4.097   7.864   5.834  1.0863 -2.2209  1.6206
    5MOL    H81 1369   4.146   7.788   5.680  1.1293  0.8479 -0.8728
    5MOL    C82 1370   4.248   0.262   5.860  0.0364  0.7723  0.0067
    5MOL    C83 1371   4.151   0.241   5.982  0.4073 -0.0850  0.4661
    5MOL    C84 1372   4.170   0.304   5.727  0.6702 -0.6734 -0.1406
    5MOL    C85 1373   4.257   0.338   5.608 -1.0344  0.0084 -0.0301
    5MOL    C86 1374   4.376   0.422   5.623  0.2730  0.4644 -0.4424
    5MOL    C87 1375   4.237   0.290   5.481 -0.0422 -0.2129  0.4133
    5MOL    H88 1376   4.300   0.354   5.889 -2.3482  1.8208  1.1640
    5MOL    H89 1377   4.067   0.179   5.950 -0.1114  1.4392 -1.1994
    5MOL    H90 1378   4.114   0.336   6.018 -0.4319  0.0461 -0.6962
    5MOL    H91 1379   4.196   0.198   6.071 -1.3073 -0.5897  1.1065
    5MOL    H92 1380   4.109   0.222   5.688  0.3714 -0.7476  0.4803
    5MOL    H93 1381   4.345   0.502   5.691 -1.7427 -1.1542  0.6209
    5MOL    H94 1382   4.423   0.475   5.540 -0.6211  0.6252 -0.8472
    5MOL    H95 1383   4.459   0.369   5.669  0.0004 -1.5029 -2.1803
    5MOL    H96 1384   4.166   0.219   5.442 -0.0602 -1.0230  1.9065
    5MOL    H97 1385   4.311   0.318   5.407 -1.6755 -0.6241 -1.4072
    5MOL    C98 1386   4.053   0.418   5.735  0.8836 -0.4581 -0.1727
    5MOL    C99 1387   4.092   0.555   5.797 -0.0920  0.0145  0.5805
    5MOL   C100 1388   3.911   0.368   5.777  0.0544  0.0828  0.0936
    5MOL   C101 1389   3.856   0.251   5.695  0.1081  0.1246 -0.5107
    5MOL   C102 1390   3.794   0.137   5.784 -0.5089  0.2152  0.5366
    5MOL   C103 1391   3.867   0.247   5.562 -0.3891 -0.3934 -0.8026
    5MOL   H104 1392   4.039   0.454   5.633 -2.3644  0.6020  0.5906
    5MOL   H105 1393   4.081   0.548   5.905  0.2069  1.4094  0.7050
    5MOL   H106 1394   4.030   0.633   5.752 -0.4892 -0.7795 -0.2517
    5MOL   H107 1395   4.192   0.585   5.767 -0.2952  0.0726 -0.0477
    5MOL   H108 1396   3.932   0.330   5.876  0.1190  0.4030  0.2040
    5MOL   H109 1397   3.720   0.077   5.733  2.0606  0.3472 -3.5876
    5MOL   H110 1398   3.723   0.175   5.857 -1.0575  0.3736 -0.0748
    5MOL   H111 1399   3.878   0.079   5.821  0.0054 -0.3909 -1.5022
    5MOL   H112 1400   3.924   0.321   5.507 -1.6650  1.4882  0.3328
    5MOL   H113 1401   3.818   0.171   5.504 -0.7368  1.2298 -2.7076
    5MOL   C114 1402   3.790   0.468   5.799  0.5377 -0.2221  0.4739
    5MOL   C115 1403   3.776   0.547   5.674 -0.6541  0.1297 -0.5287
    5MOL   C116 1404   3.787   0.565   5.929  0.8269 -0.0857  0.5270
    5MOL   C117 1405   3.831   0.497   6.057 -0.0676  0.1839 -0.2576
    5MOL   C118 1406   3.750   0.381   6.111 -0.2242  0.2715 -0.0673
    5MOL   C119 1407   3.936   0.550   6.131 -0.2879  0.3939  0.4824
    5MOL   H120 1408   3.702   0.405   5.813  0.4093 -0.4020 -1.0345
    5MOL   H121 1409   3.789   0.490   5.582 -0.9689  0.2868 -0.6702
    5MOL   H122 1410   3.846   0.630   5.684 -0.0875 -0.3088 -0.8790
    5MOL   H123 1411   3.681   0.600   5.677  0.0282  1.3345  0.3294
    5MOL   H124 1412   3.874   0.628   5.912  1.5342 -0.9423  0.9335
    5MOL   H125 1413   3.734   0.306   6.032 -0.2663 -1.3210  1.4301
    5MOL   H126 1414   3.654   0.424   6.141  0.5133  2.1797 -0.3808
    5MOL   H127 1415   3.803   0.323   6.186 -1.7080  0.3446  1.0753
    5MOL   H128 1416   4.000   0.624   6.085 -1.0649 -0.2218 -1.6765
    5MOL   H129 1417   3.981   0.505   6.218  1.6140 -0.9713 -1.1550
    5MOL   C130 1418   3.649   0.645   5.954  0.0936 -0.5470  0.0968
    5MOL   C131 1419   3.520   0.570   5.923  0.8118  0.3464 -0.3597
    5MOL   C132 1420   3.646   0.790   5.889  0.9460 -0.4643  0.7354
    5MOL   C133 1421   3.780   0.861   5.911  0.1699  0.3810  0.4185
    5MOL   C134 1422   3.845   0.934   5.795 -0.1295  0.2896  0.5393
    5MOL   C135 1423   3.831   0.873   6.037 -0.4434 -0.2406  0.0831
    5MOL   H136 1424   3.645   0.660   6.062 -1.6531  2.8261 -0.4071
    5MOL   H137 1425   3.432   0.620   5.962 -0.1998  0.1462 -2.3171
    5MOL   H138 1426   3.520   0.473   5.972 -0.2770  2.2108  3.4586
    5MOL   H139 1427   3.498   0.547   5.818 -0.5281  3.1832 -0.7411
    5MOL   H140 1428   3.635   0.767   5.783 -0.4141  2.9695  0.0673
    5MOL   H141 1429   3.827   0.878   5.704 -1.6544 -1.7349  2.0410
    5MOL   H142 1430   3.953   0.931   5.812  0.0468 -2.2619 -0.7524
    5MOL   H143 1431   3.808   1.034   5.771 -0.4004 -0.6177 -3.0646
    5MOL   H144 1432   3.785   0.814   6.115 -1.1285 -0.0650 -0.1778
    5MOL   H145 1433   3.911   0.936   6.073 -0.3632  0.4114 -1.2041
    5MOL   C146 1434   3.532   0.883   5.941  0.7443  0.3648  0.7574
    5MOL   C147 1435   3.486   0.857   6.086  0.6001  1.3040 -0.0169
    5MOL   C148 1436   3.411   0.887   5.830  0.2968 -0.3963 -0.4161
    5MOL   C149 1437   3.460   0.917   5.685  0.2319  0.2654  0.4887
    5MOL   C150 1438   3.397   0.833   5.574  0.5478 -0.0902 -0.7715
    5MOL   C151 1439   3.541   1.015   5.659  0.3622 -0.0736  0.3350
    5MOL   H152 1440   3.574   0.984   5.933  1.3966 -0.0709 -1.6141
    5MOL   H153 1441   3.568   0.844   6.157  1.1541  1.5611 -0.6051
    5MOL   H154 1442   3.407   0.785   6.104  0.6043  0.7782 -2.0514
    5MOL   H155 1443   3.456   0.952   6.131 -0.7391  0.7984  0.1996
    5MOL   H156 1444   3.378   0.783   5.819 -1.6514  0.2450 -0.9019
    5MOL   H157 1445   3.387   0.728   5.601 -0.7248  0.1641 -0.1623
    5MOL   H158 1446   3.462   0.841   5.487 -0.6646  1.5293 -1.5643
    5MOL   H159 1447   3.300   0.873   5.543 -1.3104 -3.6037  0.2038
    5MOL   H160 1448   3.583   1.081   5.733  2.8271 -1.5299  0.2970
    5MOL   H161 1449   3.581   1.033   5.560 -1.9334  0.4706 -0.5349
    5MOL   C162 1450   3.281   0.967   5.861 -0.2507 -0.1654  0.3102
    5MOL   C163 1451   3.322   1.110   5.900  0.8321 -0.0681 -0.4143
    5MOL   C164 1452   3.176   0.906   5.963 -0.0268  0.8443  0.0918
    5MOL   C165 1453   3.144   0.762   5.925 -0.5330 -0.1599 -0.6493
    5MOL   C166 1454   3.082   0.732   5.789 -1.0200  0.0223  0.9351
    5MOL   C167 1455   3.152   0.662   6.015  0.5272  0.2111  0.1470
    5MOL   H168 1456   3.228   0.974   5.766 -0.5926 -1.5534  0.3845
    5MOL   H169 1457   3.349   1.160   5.807  0.1450  1.0631 -0.0148
    5MOL   H170 1458   3.388   1.119   5.987  0.6342 -0.5081 -0.2153
    5MOL   H171 1459   3.238   1.161   5.948  1.7408 -0.2296  1.3974
    5MOL   H172 1460   3.216   0.923   6.063 -1.7549  1.8633  0.6420
    5MOL   H173 1461   3.112   0.633   5.753 -1.0009  0.1030  0.7267
    5MOL   H174 1462   3.123   0.797   5.711  0.5642 -0.1752  1.5707
    5MOL   H175 1463   2.975   0.751   5.790 -0.9862  0.4673 -1.4658
    5MOL   H176 1464   3.184   0.685   6.116 -1.0218  0.3187  0.6229
    5MOL   H177 1465   3.120   0.560   5.998  1.7011  0.1336 -1.7536
    5MOL   C178 1466   3.041   0.987   5.978 -0.6746 -0.2371  0.0320
    5MOL   C179 1467   3.003   1.067   5.849 -0.4921  0.2743  0.3974
    5MOL   C180 1468   3.029   1.074   6.108  0.0604 -0.3405 -0.0090
    5MOL   C181 1469   3.043   0.996   6.240  0.0843  0.3556 -0.2957
    5MOL   C182 1470   3.112   1.070   6.356  0.2003  0.3813  0.8202
    5MOL   C183 1471   3.008   0.866   6.245 -0.0031  0.1483  0.0131
    5MOL   H184 1472   2.961   0.913   5.982 -0.6521 -0.2613  0.0298
    5MOL   H185 1473   3.003   1.002   5.761  2.4899  0.7997 -0.0509
    5MOL   H186 1474   3.061   1.158   5.834 -1.9804  1.0488 -0.9083
    5MOL   H187 1475   2.899   1.099   5.845 -1.0904 -1.7059 -1.0492
    5MOL   H188 1476   3.122   1.130   6.096 -1.1234  1.8606  0.7314
    5MOL   H189 1477   3.055   1.156   6.390  0.6842  1.7716 -1.8125
    5MOL   H190 1478   3.208   1.107   6.321 -0.2566  1.4744  0.7096
    5MOL   H191 1479   3.116   1.001   6.441  2.3899 -0.6584 -0.0943
    5MOL   H192 1480   2.965   0.817   6.159 -1.1609 -0.6945  1.0475
    5MOL   H193 1481   3.008   0.803   6.333 -0.3184 -1.2349 -0.9547
    5MOL   C194 1482   2.907   1.177   6.126 -0.5069 -0.1942 -0.0504
    5MOL   C195 1483   2.778   1.106   6.102 -0.1823 -0.6365  0.4569
    5MOL   C196 1484   2.919   1.319   6.054 -0.1160  0.2187 -0.1903
    5MOL   C197 1485   3.043   1.395   6.091 -0.2021  0.2991 -0.2655
    5MOL   C198 1486   3.133   1.467   5.988 -0.4282  0.3609 -0.2763
    5MOL   C199 1487   3.079   1.395   6.223 -0.0442 -0.7420 -0.1896
    5MOL   H200 1488   2.888   1.194   6.232 -2.0133 -0.5693 -0.2529
    5MOL   H201 1489   2.694   1.164   6.143 -0.7802 -1.1845  0.0137
    5MOL   H202 1490   2.778   1.017   6.164  0.7591 -1.1854 -0.3249
    5MOL   H203 1491   2.748   1.090   5.999 -0.0386  4.1978 -0.4855
    5MOL   H204 1492   2.930   1.289   5.950 -2.2471 -0.9193 -0.1407
    5MOL   H205 1493   3.167   1.389   5.920 -0.0112 -0.3183  0.6986
    5MOL   H206 1494   3.227   1.512   6.021 -0.6509 -0.1998  1.1662
    5MOL   H207 1495   3.074   1.545   5.940  0.1596  0.7433 -0.3871
    5MOL   H208 1496   3.034   1.346   6.309  2.5457 -1.1024  1.0313
    5MOL   H209 1497   3.163   1.451   6.261 -0.5459  0.4656 -0.8570
    5MOL   C210 1498   2.793   1.417   6.068 -0.6725 -0.3968  1.4301
    5MOL   C211 1499   2.745   1.435   6.212  0.6433 -0.6059  0.1422
    5MOL   C212 1500   2.667   1.393   5.964  0.6522 -0.8557 -0.1150
    5MOL   C213 1501   2.719   1.362   5.820  0.1260  0.4335 -0.3359
    5MOL   C214 1502   2.649   1.246   5.760 -1.3690 -0.7052  0.0137
    5MOL   C215 1503   2.815   1.434   5.759  0.2513  0.3527 -0.8450
    5MOL   H216 1504   2.832   1.515   6.044 -1.5381 -0.1634  0.9368
    5MOL   H217 1505   2.822   1.435   6.289 -0.1313  0.5770  0.9454
    5MOL   H218 1506   2.675   1.357   6.244  1.1976 -0.2719  2.2623
    5MOL   H219 1507   2.701   1.533   6.231  1.2655 -0.2618 -0.2003
    5MOL   H220 1508   2.625   1.294   5.981  0.3164 -0.7322 -0.2242
    5MOL   H221 1509   2.686   1.152   5.801 -0.1642 -0.5494 -0.6769
    5MOL   H222 1510   2.669   1.240   5.653  1.2265  0.6211  0.3902
    5MOL   H223 1511   2.542   1.258   5.774 -1.2318  0.3843  0.1276
    5MOL   H224 1512   2.858   1.517   5.814  0.1266 -0.3940  0.3881
    5MOL   H225 1513   2.860   1.422   5.661  0.0430 -0.5437 -0.8297
    5MOL   C226 1514   2.556   1.507   5.946  1.0208  0.3853  0.9170
    5MOL   C227 1515   2.615   1.646   5.915  0.1360 -0.1606 -0.6048
    5MOL   C228 1516   2.439   1.508   6.055 -0.3825  1.0332 -0.1351
    5MOL   C229 1517   2.373   1.374   6.066 -0.2569 -0.5424  0.1693
    5MOL   C230 1518   2.340   1.330   6.208 -0.0660 -0.2642 -0.0986
    5MOL   C231 1519   2.314   1.317   5.959 -0.3527 -0.2206 -0.0003
    5MOL   H232 1520   2.508   1.475   5.853  0.5092 -1.1081  1.6760
    5MOL   H233 1521   2.673   1.649   5.823 -0.3195  0.6488 -0.8664
    5MOL   H234 1522   2.679   1.678   5.998 -2.2946 -0.2016  1.3525
    5MOL   H235 1523   2.528   1.712   5.909 -0.2243 -0.5495  0.1906
    5MOL   H236 1524   2.499   1.504   6.146 -0.3790 -1.3052 -0.2027
    5MOL   H237 1525   2.287   1.401   6.273  0.8945  0.1885  0.1959
    5MOL   H238 1526   2.433   1.312   6.262  0.9594  0.8638 -1.4688
    5MOL   H239 1527   2.288   1.237   6.230 -0.7699  0.3897  1.1255
    5MOL   H240 1528   2.331   1.354   5.859  0.9375  2.9553  1.3187
    5MOL   H241 1529   2.259   1.226   5.971  3.1972 -2.1178  2.7696
    5MOL   C242 1530   2.328   1.625   6.055 -0.3188 -0.5726  0.6005
    5MOL   C243 1531   2.262   1.631   5.913 -0.4465  0.7353  0.0262
    5MOL   C244 1532   2.373   1.765   6.119  0.3613  0.1096  0.3185
    5MOL   C245 1533   2.453   1.754   6.252 -0.8074  0.1183  0.3809
    5MOL   C246 1534   2.382   1.686   6.368 -0.7141  0.6181 -0.3419
    5MOL   C247 1535   2.583   1.789   6.255 -0.0943  0.7259  0.1266
    5MOL   H248 1536   2.257   1.589   6.129 -0.9920 -0.8245 -0.1641
    5MOL   H249 1537   2.225   1.532   5.888 -0.5982  0.0812  2.6547
    5MOL   H250 1538   2.331   1.658   5.833 -1.1783  0.7613 -0.5973
    5MOL   H251 1539   2.175   1.696   5.912 -1.9228 -1.2151 -2.0004
    5MOL   H252 1540   2.443   1.811   6.050  0.1786  0.1543  0.1597
    5MOL   H253 1541   2.338   1.587   6.351 -0.7828  0.5087  0.4702
    5MOL   H254 1542   2.306   1.755   6.404  1.7935  2.9975  0.5319
    5MOL   H255 1543   2.445   1.668   6.454  1.1303  1.9860 -1.3739
    5MOL   H256 1544   2.619   1.844   6.169  1.4380  1.6367  1.3117
    5MOL   H257 1545   2.644   1.769   6.342  1.2893  1.6828 -0.5950
    5MOL   C258 1546   2.258   1.875   6.150  0.3906 -0.0833  0.0070
    5MOL   C259 1547   2.116   1.820   6.186 -1.0290  0.0429  0.0042
    5MOL   C260 1548   2.248   1.990   6.046 -0.4955  0.1381  0.0281
    5MOL   C261 1549   2.384   2.055   6.006  0.1967  0.5692 -0.4172
    5MOL   C262 1550   2.412   2.057   5.859  0.0541 -0.3539 -0.2231
    5MOL   C263 1551   2.473   2.103   6.092 -0.1677  0.4357 -0.0188
    5MOL   H264 1552   2.277   1.911   6.251  0.5373 -1.4777  0.4786
    5MOL   H265 1553   2.051   1.805   6.100 -0.6466 -0.3413 -0.2142
    5MOL   H266 1554   2.075   1.904   6.242 -1.7286 -0.1198 -0.2563
    5MOL   H267 1555   2.117   1.733   6.252 -0.0663 -0.3861 -0.5586
    5MOL   H268 1556   2.202   1.944   5.959 -0.4980  0.2707 -0.0402
    5MOL   H269 1557   2.507   2.106   5.838 -0.9025  1.3420 -0.6470
    5MOL   H270 1558   2.343   2.129   5.816  0.9836  0.3221 -0.5882
    5MOL   H271 1559   2.416   1.957   5.816 -1.3559 -0.3739 -0.3458
    5MOL   H272 1560   2.461   2.113   6.199 -1.4402  0.6967 -0.1859
    5MOL   H273 1561   2.568   2.149   6.068 -0.0202  0.6162  0.8836
    5MOL   C274 1562   2.147   2.109   6.083 -0.0517  0.3118  0.8051
    5MOL   C275 1563   2.155   2.169   6.228 -0.2813 -0.5064  0.0860
    5MOL   C276 1564   1.998   2.086   6.026 -0.8986  0.3264 -0.0183
    5MOL   C277 1565   1.986   2.033   5.881 -0.4656  0.2593 -0.5637
    5MOL   C278 1566   2.034   2.119   5.767 -0.5621  0.2735 -0.0357
    5MOL   C279 1567   1.927   1.914   5.857  0.0535  0.3611  0.4201
    5MOL   H280 1568   2.178   2.191   6.019 -0.5930  1.5759  2.1437
    5MOL   H281 1569   2.258   2.190   6.254 -0.1302 -0.5578 -0.4574
    5MOL   H282 1570   2.118   2.094   6.298  0.8687  0.1994  1.4787
    5MOL   H283 1571   2.102   2.263   6.243  0.7686  0.6397 -3.0405
    5MOL   H284 1572   1.946   2.003   6.075 -2.1445  1.3842  0.4611
    5MOL   H285 1573   2.065   2.047   5.691 -1.0704 -0.1871  0.1957
    5MOL   H286 1574   2.117   2.174   5.810 -0.2690 -0.6362  0.5702
    5MOL   H287 1575   1.955   2.181   5.723 -1.4118 -1.1843 -0.6147
    5MOL   H288 1576   1.895   1.851   5.939  3.4929 -0.6329  1.0670
    5MOL   H289 1577   1.918   1.881   5.755 -0.1607 -0.7588  0.7992
    5MOL   C290 1578   1.901   2.214   6.035 -0.1510 -0.1593 -0.1331
    5MOL   C291 1579   1.957   2.350   5.996  0.3226  0.5529  0.0660
    5MOL   C292 1580   1.814   2.205   6.171  0.5757  0.8999  0.4665
    5MOL   C293 1581   1.719   2.082   6.180  0.4714 -0.2263 -1.2351
    5MOL   C294 1582   1.617   2.058   6.060 -0.5251 -0.6597 -1.2526
    5MOL   C295 1583   1.724   1.994   6.282 -0.3797  0.3680 -0.0229
    5MOL   H296 1584   1.829   2.197   5.954  0.8102 -0.7811 -0.8795
    5MOL   H297 1585   2.027   2.341   5.912 -1.6626 -0.2830 -1.5543
    5MOL   H298 1586   2.005   2.408   6.074  1.8336 -1.6333  0.7930
    5MOL   H299 1587   1.884   2.421   5.955 -1.0882 -1.5823 -1.2349
    5MOL   H300 1588   1.893   2.190   6.244 -0.5396 -2.5279  1.0607
    5MOL   H301 1589   1.629   2.127   5.977 -3.3226  0.1992 -0.9907
    5MOL   H302 1590   1.521   2.083   6.105  0.8191  3.2410 -0.2958
    5MOL   H303 1591   1.618   1.953   6.031 -0.7789 -1.3153  1.0124
    5MOL   H304 1592   1.795   2.019   6.359 -2.0416  1.7424  1.0962
    5MOL   H305 1593   1.665   1.904   6.293  1.9737 -1.2833 -0.5281
    5MOL   C306 1594   1.743   2.335   6.216 -0.1275  0.6275  0.1226
    5MOL   C307 1595   1.700   2.321   6.363  0.6859  0.2102  0.0622
    5MOL   C308 1596   1.636   2.384   6.111 -0.4256 -0.2975  0.7691
    5MOL   C309 1597   1.602   2.529   6.135  0.1178  0.7047  0.2995
    5MOL   C310 1598   1.648   2.625   6.033 -0.1020 -0.1365 -0.6681
    5MOL   C311 1599   1.527   2.567   6.238 -0.1086 -0.3483 -0.2100
    5MOL   H312 1600   1.809   2.419   6.235  1.5053 -0.8280  1.1166
    5MOL   H313 1601   1.667   2.416   6.405  0.2836 -0.7631  2.0178
    5MOL   H314 1602   1.783   2.281   6.421  0.1064 -1.2171 -0.0709
    5MOL   H315 1603   1.617   2.253   6.381  0.6517  0.5465  1.2197
    5MOL   H316 1604   1.670   2.366   6.009 -1.3662  0.4351  0.3182
    5MOL   H317 1605   1.754   2.618   6.008  0.7927  0.3959  2.7445
    5MOL   H318 1606   1.623   2.728   6.058 -0.0800 -0.8278  2.3946
    5MOL   H319 1607   1.585   2.603   5.947 -1.7182 -2.2850  1.0092
    5MOL   H320 1608   1.499   2.501   6.319  1.8344  0.0745  0.8348
    5MOL   H321 1609   1.492   2.669   6.240 -2.5101 -1.1217 -1.5117
    5MOL   H322 1610   1.545   2.325   6.120 -0.0411 -0.7584  1.7937
    6MOL     C1 1611   6.246   4.584   0.664  0.0937  0.1727  0.0223
    6MOL     C2 1612   6.373   4.665   0.630 -0.2269  0.0603 -0.0973
    6MOL     C3 1613   6.124   4.651   0.621 -0.3706 -0.5023  0.3529
    6MOL     C4 1614   6.085   4.773   0.702  0.1327  0.0630 -0.0544
    6MOL     C5 1615   5.997   4.876   0.635  0.0296 -0.4144  0.3476
    6MOL     C6 1616   6.108   4.790   0.834 -0.0266 -0.7169  0.1955
    6MOL     H7 1617   6.262   4.483   0.626 -0.2971 -0.4807  1.5634
    6MOL     H8 1618   6.366   4.699   0.526 -2.4684  2.8824  0.9375
    6MOL     H9 1619   6.458   4.598   0.645 -0.7317 -0.6277 -0.2768
    6MOL    H10 1620   6.378   4.760   0.682  0.8822 -1.5136  2.7655
    6MOL    H11 1621   6.149   4.683   0.520 -1.5498  1.9715  0.7985
    6MOL    H12 1622   6.001   4.970   0.690 -1.4527  0.0560 -0.3431
    6MOL    H13 1623   5.896   4.836   0.641  0.0160 -0.6823 -1.4511
    6MOL    H14 1624   6.027   4.899   0.533  4.4097 -1.3163  1.3134
    6MOL    H15 1625   6.156   4.707   0.883  0.1953 -1.7411 -1.7422
    6MOL    H16 1626   6.080   4.882   0.884 -0.1045  0.1255 -1.3702
    6MOL    H17 1627   6.252   4.555   0.769 -0.7391 -1.5312 -0.3906
    6MOL    C18 1628   6.003   4.555   0.607  0.3877  0.4489  0.8000
    6MOL    C19 1629   5.982   4.487   0.746 -0.0364  0.4886  0.5282
    6MOL    C20 1630   6.017   4.458   0.483 -0.3109  0.1970  0.6394
    6MOL    C21 1631   6.053   4.526   0.347  0.1208 -0.7352 -0.0097
    6MOL    C22 1632   6.128   4.445   0.247  0.0372 -0.8788 -0.3614
    6MOL    C23 1633   6.008   4.645   0.316  0.2520 -0.0004 -0.1509
    6MOL    H24 1634   5.913   4.616   0.600  1.1939  1.4978 -0.6711
    6MOL    H25 1635   6.057   4.410   0.765  0.3889  1.2412  2.0354
    6MOL    H26 1636   5.880   4.450   0.756  0.1566 -0.2455 -0.2196
    6MOL    H27 1637   5.993   4.559   0.828 -0.7761  0.0671  1.0002
    6MOL    H28 1638   6.109   4.403   0.498  0.8373  2.2437  1.2116
    6MOL    H29 1639   6.085   4.349   0.220 -0.6100 -0.3364 -1.3126
    6MOL    H30 1640   6.227   4.426   0.288 -0.0506 -0.1231  0.2110
    6MOL    H31 1641   6.136   4.492   0.149 -0.6507  2.0863  0.9208
    6MOL    H32 1642   5.947   4.714   0.372 -1.5520 -1.4432 -0.2971
    6MOL    H33 1643   6.023   4.693   0.220 -2.6471  1.5236  0.1058
    6MOL    C34 1644   5.902   4.344   0.452  0.0305 -0.9203  0.1261
    6MOL    C35 1645   5.762   4.407   0.459  0.4036  1.2120  0.0852
    6MOL    C36 1646   5.917   4.221   0.552  0.2393  0.4208 -0.5918
    6MOL    C37 1647   6.062   4.158   0.565  0.3588  0.2788  0.1780
    6MOL    C38 1648   6.093   4.115   0.704  0.1488 -0.2365 -0.0734
    6MOL    C39 1649   6.145   4.137   0.459  0.8223  0.4228 -0.3556
    6MOL    H40 1650   5.910   4.311   0.349  0.9347  1.0320 -0.4605
    6MOL    H41 1651   5.745   4.497   0.400 -1.4937  1.5364  1.0842
    6MOL    H42 1652   5.736   4.456   0.553 -0.6828 -1.7490  1.3835
    6MOL    H43 1653   5.686   4.334   0.432  0.4476  0.9425  0.6741
    6MOL    H44 1654   5.909   4.264   0.651 -1.8066 -3.6620  1.1432
    6MOL    H45 1655   6.196   4.081   0.705  0.4204  0.6036  1.2616
    6MOL    H46 1656   6.039   4.032   0.749  1.6857 -0.1570  1.9797
    6MOL    H47 1657   6.083   4.193   0.780 -0.8367 -0.0433 -0.3855
    6MOL    H48 1658   6.120   4.167   0.359  2.9936  1.7368 -0.5144
    6MOL    H49 1659   6.238   4.083   0.469 -0.6675 -2.0005  0.9866
    6MOL    C50 1660   5.808   4.099   0.553  0.5026  0.6299  0.6232
    6MOL    C51 1661   5.789   4.042   0.408 -0.5476 -0.0397  0.9457
    6MOL    C52 1662   5.671   4.126   0.627 -0.2401 -0.2087 -0.1123
    6MOL    C53 1663   5.694   4.190   0.765  0.6300 -0.6189  0.4710
    6MOL    C54 1664   5.786   4.114   0.875  0.1467  0.2288 -0.0562
    6MOL    C55 1665   5.650   4.317   0.785  0.2307 -0.0748 -0.0224
    6MOL    H56 1666   5.858   4.017   0.604 -0.1967 -0.6433 -0.6845
    6MOL    H57 1667   5.749   4.112   0.334  2.4447  1.0289  0.2791
    6MOL    H58 1668   5.730   3.950   0.401  2.1157 -1.6528 -1.1152
    6MOL    H59 1669   5.889   4.023   0.371 -1.5679 -2.1316 -0.8494
    6MOL    H60 1670   5.617   4.203   0.572 -3.5822 -1.9333  0.6031
    6MOL    H61 1671   5.723   4.061   0.946  1.3216  0.3758  1.1182
    6MOL    H62 1672   5.832   4.190   0.939 -1.0622  0.2913  0.7470
    6MOL    H63 1673   5.855   4.044   0.828 -2.2011 -2.1146 -0.0772
    6MOL    H64 1674   5.588   4.360   0.708  0.1599 -0.4993 -0.2048
    6MOL    H65 1675   5.672   4.365   0.880 -0.6202 -1.1364  0.7292
    6MOL    C66 1676   5.582   4.002   0.644  0.2362 -0.1393 -0.1256
    6MOL    C67 1677   5.646   3.864   0.680  0.4965  0.2428 -0.7257
    6MOL    C68 1678   5.451   3.994   0.555  0.0091  0.1107  0.1824
    6MOL    C69 1679   5.472   4.014   0.400  0.1582 -0.3029 -0.1731
    6MOL    C70 1680   5.470   3.889   0.314  0.2922  0.9071  0.1400
    6MOL    C71 1681   5.492   4.138   0.345  0.1672  0.3847 -0.7134
    6MOL    H72 1682   5.537   4.012   0.743  1.5166  1.9382  0.2660
    6MOL    H73 1683   5.701   3.818   0.598  0.6091  2.0122 -1.6589
    6MOL    H74 1684   5.582   3.789   0.725  2.9884 -2.2839 -1.2580
    6MOL    H75 1685   5.723   3.872   0.757 -0.7270 -2.6787  0.8925
    6MOL    H76 1686   5.442   3.886   0.559 -0.4394  0.0461 -1.9680
    6MOL    H77 1687   5.559   3.831   0.340 -0.5735 -1.0454 -1.1528
    6MOL    H78 1688   5.470   3.922   0.210  0.6252  0.3512 -0.0381
    6MOL    H79 1689   5.383   3.828   0.336  0.5498  1.3111  2.4709
    6MOL    H80 1690   5.493   4.237   0.388 -4.0457 -0.6493  2.0452
    6MOL    H81 1691   5.512   4.129   0.239  0.0097 -0.2686 -0.6877
    6MOL    C82 1692   5.323   4.064   0.614 -0.2701 -0.4997 -0.8728
    6MOL    C83 1693   5.352   4.205   0.654 -0.3192 -0.3900 -0.2252
    6MOL    C84 1694   5.250   3.982   0.725  0.1759 -0.2777  0.0269
    6MOL    C85 1695   5.235   3.833   0.685 -0.4887 -0.3771  0.4263
    6MOL    C86 1696   5.280   3.719   0.788  0.2956  0.1339 -0.4512
    6MOL    C87 1697   5.194   3.792   0.567  0.1951 -0.1505  0.4231
    6MOL    H88 1698   5.259   4.072   0.526  2.2183 -0.0546 -2.7083
    6MOL    H89 1699   5.262   4.264   0.665  1.7372  2.4987  1.8821
    6MOL    H90 1700   5.400   4.252   0.568  1.0302 -1.9451 -0.3668
    6MOL    H91 1701   5.416   4.215   0.742  0.4840 -0.9755 -0.7303
    6MOL    H92 1702   5.322   3.969   0.805 -0.1799 -0.4871  0.3182
    6MOL    H93 1703   5.387   3.697   0.786  0.4960  1.1328 -0.9365
    6MOL    H94 1704   5.236   3.624   0.756 -0.5323 -0.7379  3.0348
    6MOL    H95 1705   5.260   3.736   0.894 -1.9024 -2.8645 -0.3127
    6MOL    H96 1706   5.162   3.862   0.492 -0.7103 -1.3645 -0.3504
    6MOL    H97 1707   5.188   3.688   0.539  0.6615  0.3993 -1.7580
    6MOL    C98 1708   5.120   4.040   0.784 -0.1804  0.2375 -0.0085
    6MOL    C99 1709   5.028   4.117   0.672  0.6282 -0.1422  0.4076
    6MOL   C100 1710   5.138   4.136   0.906  0.1703  0.4221  0.3406
    6MOL   C101 1711   5.240   4.086   1.017 -0.3961 -0.8019  0.2816
    6MOL   C102 1712   5.186   3.961   1.086  0.0160 -0.5680 -0.1719
    6MOL   C103 1713   5.356   4.141   1.045 -0.0126  0.5231  0.1212
    6MOL   H104 1714   5.062   3.954   0.816 -1.7915  0.5155 -2.0992
    6MOL   H105 1715   4.921   4.123   0.692  0.8581  1.3339  1.2510
    6MOL   H106 1716   5.036   4.055   0.582  1.6880  2.1522 -1.1192
    6MOL   H107 1717   5.065   4.217   0.651  3.3391 -0.9195  1.1669
    6MOL   H108 1718   5.192   4.225   0.873  0.8169 -0.5105 -1.2157
    6MOL   H109 1719   5.109   3.982   1.160 -0.3704 -1.3732 -0.3381
    6MOL   H110 1720   5.272   3.927   1.144 -0.4957 -0.7899  0.4681
    6MOL   H111 1721   5.161   3.884   1.012  1.2305 -0.3234 -0.8428
    6MOL   H112 1722   5.391   4.228   0.991 -1.1701  0.0553 -1.4405
    6MOL   H113 1723   5.422   4.097   1.118  0.8169  2.2742  0.4560
    6MOL   C114 1724   5.005   4.185   0.971 -1.1232 -0.1892  0.8534
    6MOL   C115 1725   4.893   4.081   0.990  0.7495  0.4905 -0.2134
    6MOL   C116 1726   4.957   4.325   0.915  0.4809 -1.0711  0.1557
    6MOL   C117 1727   5.069   4.435   0.901  0.5093 -0.6070  0.0282
    6MOL   C118 1728   5.154   4.460   1.026 -0.3026 -0.2088  0.2098
    6MOL   C119 1729   5.090   4.495   0.782  0.6426 -0.2081 -0.0917
    6MOL   H120 1730   5.026   4.205   1.076  0.1272 -1.2003  0.8053
    6MOL   H121 1731   4.823   4.068   0.908  0.8873  0.4538 -0.3232
    6MOL   H122 1732   4.828   4.110   1.073  0.8586 -0.6800  0.2843
    6MOL   H123 1733   4.934   3.984   1.017  1.2859  0.7466 -0.0898
    6MOL   H124 1734   4.926   4.301   0.813  2.1090 -1.2201 -0.3186
    6MOL   H125 1735   5.257   4.494   1.015 -0.1570 -0.6327  0.2360
    6MOL   H126 1736   5.175   4.375   1.091  2.3940  0.4295  0.2327
    6MOL   H127 1737   5.106   4.536   1.087  3.7198  1.7509  1.1112
    6MOL   H128 1738   5.027   4.479   0.695 -1.5811 -0.7964  1.5974
    6MOL   H129 1739   5.166   4.570   0.767 -1.2807  2.0412  1.1684
    6MOL   C130 1740   4.830   4.390   0.985  0.6996  0.2767  1.1290
    6MOL   C131 1741   4.828   4.367   1.144  0.1376 -0.2907 -0.3109
    6MOL   C132 1742   4.689   4.345   0.926 -0.0137  0.0084  0.0571
    6MOL   C133 1743   4.687   4.306   0.772  0.3495 -0.3735 -0.3291
    6MOL   C134 1744   4.731   4.421   0.682  0.2437 -0.1770  0.8905
    6MOL   C135 1745   4.643   4.187   0.735 -0.6268 -0.1291 -0.2152
    6MOL   H136 1746   4.851   4.496   0.970  0.1651  0.3449  0.8507
    6MOL   H137 1747   4.810   4.269   1.187  0.3554 -0.6656 -1.0607
    6MOL   H138 1748   4.758   4.438   1.187  0.2228 -0.7664  0.6191
    6MOL   H139 1749   4.923   4.407   1.177  0.4329 -0.8759 -0.4463
    6MOL   H140 1750   4.663   4.258   0.987  0.2034  2.6229  4.0325
    6MOL   H141 1751   4.799   4.494   0.727  2.0842 -0.3838 -1.3981
    6MOL   H142 1752   4.642   4.481   0.661 -0.4528 -1.5157 -0.0873
    6MOL   H143 1753   4.760   4.383   0.584 -2.3533 -0.5913  0.2651
    6MOL   H144 1754   4.614   4.110   0.805 -2.4280  0.8472  0.1173
    6MOL   H145 1755   4.647   4.156   0.631  0.0868 -1.0396  0.0683
    6MOL   C146 1756   4.570   4.445   0.962  0.1927 -0.3005  0.3357
    6MOL   C147 1757   4.610   4.595   0.988  0.1627  0.6293 -0.0559
    6MOL   C148 1758   4.459   4.402   1.064  0.3615 -0.1735  0.5043
    6MOL   C149 1759   4.517   4.342   1.198  0.3129  0.4083  0.0654
    6MOL   C150 1760   4.534   4.442   1.311  0.0544  0.4208 -0.5799
    6MOL   C151 1761   4.547   4.211   1.211 -0.3864  0.1892 -0.5701
    6MOL   H152 1762   4.514   4.459   0.870  1.1309 -1.6308 -0.4540
    6MOL   H153 1763   4.675   4.638   0.912  0.8288 -2.0680 -1.0449
    6MOL   H154 1764   4.649   4.621   1.087  2.2917  1.0685 -0.9943
    6MOL   H155 1765   4.522   4.660   0.983 -0.4788 -0.2186  0.0835
    6MOL   H156 1766   4.426   4.501   1.097  0.4512  0.4068 -1.1274
    6MOL   H157 1767   4.582   4.394   1.397 -1.8780 -0.3329  0.1047
    6MOL   H158 1768   4.431   4.455   1.343 -0.6600 -3.3230 -1.0544
    6MOL   H159 1769   4.585   4.535   1.288 -0.2492  0.7451  0.0756
    6MOL   H160 1770   4.532   4.132   1.139  4.0412 -1.8512  0.5616
    6MOL   H161 1771   4.589   4.175   1.304 -0.1342  0.3938 -0.6034
    6MOL   C162 1772   4.322   4.343   1.027 -0.2856  0.3724 -0.1446
    6MOL   C163 1773   4.292   4.328   0.878 -0.1511  0.4787  0.2956
    6MOL   C164 1774   4.198   4.401   1.105 -0.4904  0.1637  0.2959
    6MOL   C165 1775   4.084   4.297   1.098 -0.6759  0.1282  0.2874
    6MOL   C166 1776   4.097   4.177   1.195 -0.2445  0.4803  0.0183
    6MOL   C167 1777   3.986   4.296   1.009 -0.2466  0.6561  0.3349
    6MOL   H168 1778   4.322   4.245   1.074 -2.3372  0.7438  0.7049
    6MOL   H169 1779   4.262   4.420   0.828 -0.8748  0.2290  0.2660
    6MOL   H170 1780   4.212   4.258   0.854  0.4133 -1.1911  3.0552
    6MOL   H171 1781   4.387   4.292   0.837 -0.5098 -1.6475  1.2458
    6MOL   H172 1782   4.232   4.402   1.208  1.7232 -0.6487 -0.3965
    6MOL   H173 1783   4.073   4.195   1.300  0.8222 -2.5393  0.8177
    6MOL   H174 1784   4.198   4.137   1.204 -0.5319  0.0372  1.5063
    6MOL   H175 1785   4.046   4.086   1.163  0.6687 -0.0053 -0.0503
    6MOL   H176 1786   3.954   4.384   0.955  0.0481  1.8239  2.0355
    6MOL   H177 1787   3.931   4.203   1.005  1.6137 -0.4022 -2.1684
    6MOL   C178 1788   4.151   4.544   1.064 -0.6794 -0.0505  0.2147
    6MOL   C179 1789   4.257   4.647   1.010 -0.3951  0.4073  0.1302
    6MOL   C180 1790   4.059   4.612   1.170  0.3883 -0.5272 -0.2982
    6MOL   C181 1791   3.926   4.653   1.094 -0.1674  0.2290 -0.3069
    6MOL   C182 1792   3.943   4.768   0.999  0.0463  0.0412  0.4796
    6MOL   C183 1793   3.815   4.576   1.101 -0.4650 -0.6474 -0.1635
    6MOL   H184 1794   4.095   4.536   0.971 -1.1232 -1.3592  0.5777
    6MOL   H185 1795   4.320   4.689   1.088  4.0382 -1.4499 -2.2609
    6MOL   H186 1796   4.214   4.744   0.981 -1.3990 -0.4819 -1.4865
    6MOL   H187 1797   4.315   4.619   0.922 -1.0217 -1.2480  0.2326
    6MOL   H188 1798   4.020   4.527   1.226  0.3520 -0.5188 -0.3104
    6MOL   H189 1799   4.017   4.836   1.042  0.6671 -0.8027  0.7504
    6MOL   H190 1800   3.845   4.814   0.993  0.0673  0.2621  1.6716
    6MOL   H191 1801   3.988   4.740   0.904 -1.2607  1.6641 -0.6412
    6MOL   H192 1802   3.817   4.484   1.158 -0.3427  0.0188  0.9174
    6MOL   H193 1803   3.721   4.600   1.055  1.1655  1.0445 -2.6900
    6MOL   C194 1804   4.115   4.709   1.278 -0.1275 -0.4093  0.1175
    6MOL   C195 1805   4.242   4.648   1.346  0.2255  0.2689  0.3515
    6MOL   C196 1806   4.009   4.744   1.390 -0.2296  0.3823 -0.4809
    6MOL   C197 1807   3.885   4.822   1.345 -0.3459  0.2062 -0.3127
    6MOL   C198 1808   3.892   4.954   1.279 -0.3859  0.6767  0.4062
    6MOL   C199 1809   3.760   4.770   1.370 -0.5278  0.0415  0.5826
    6MOL   H200 1810   4.145   4.806   1.239  3.1757  0.2720  3.9802
    6MOL   H201 1811   4.220   4.554   1.397  2.5859 -0.2657  0.4507
    6MOL   H202 1812   4.299   4.716   1.409  0.5178  0.5297 -0.1915
    6MOL   H203 1813   4.319   4.632   1.271  2.0288 -1.0466  2.3983
    6MOL   H204 1814   3.976   4.649   1.431 -0.0217  0.2506 -0.6193
    6MOL   H205 1815   3.803   4.991   1.228  1.2355  2.9153 -0.9051
    6MOL   H206 1816   3.972   4.958   1.205  1.0029  2.8318  1.9605
    6MOL   H207 1817   3.921   5.031   1.351  2.0019 -2.1298  2.5697
    6MOL   H208 1818   3.743   4.672   1.413  2.0227 -0.7131 -0.0680
    6MOL   H209 1819   3.675   4.832   1.347  0.6321  0.1848 -3.5973
    6MOL   C210 1820   4.074   4.827   1.512  0.6688  0.0235 -0.2894
    6MOL   C211 1821   4.173   4.940   1.455  0.5030 -0.0552 -0.2851
    6MOL   C212 1822   4.127   4.742   1.633  0.1288  0.3314  0.1492
    6MOL   C213 1823   4.017   4.645   1.680  0.1299  0.8691 -1.0182
    6MOL   C214 1824   4.055   4.496   1.703  0.4340  0.5301 -0.0920
    6MOL   C215 1825   3.883   4.681   1.689  0.5046 -0.5437  0.8566
    6MOL   H216 1826   4.001   4.893   1.560 -0.6136 -1.6734  0.1868
    6MOL   H217 1827   4.268   4.910   1.412 -0.2994 -0.5307 -1.7808
    6MOL   H218 1828   4.184   5.026   1.520  0.5275 -0.5142  0.3199
    6MOL   H219 1829   4.128   4.989   1.368  1.4643 -0.1457 -0.8450
    6MOL   H220 1830   4.202   4.674   1.593  0.2301  1.0101 -0.8387
    6MOL   H221 1831   4.129   4.476   1.781 -0.0615  0.4099  0.3511
    6MOL   H222 1832   4.097   4.470   1.606 -1.6234  1.0294 -1.1344
    6MOL   H223 1833   3.964   4.436   1.712  1.0530 -0.2778  0.8940
    6MOL   H224 1834   3.829   4.772   1.670  1.4976 -0.5882 -2.6153
    6MOL   H225 1835   3.807   4.608   1.713  0.0738 -0.3995 -0.0405
    6MOL   C226 1836   4.196   4.812   1.757  0.5928  0.3550  0.0856
    6MOL   C227 1837   4.108   4.919   1.813  0.1165 -0.2567 -1.3209
    6MOL   C228 1838   4.345   4.856   1.743  0.0466  0.1202  0.3185
    6MOL   C229 1839   4.426   4.749   1.673  0.5823  0.4013 -0.0135
    6MOL   C230 1840   4.452   4.618   1.743  0.0720 -0.4388 -0.6419
    6MOL   C231 1841   4.491   4.781   1.560  0.6938  0.5045  0.4565
    6MOL   H232 1842   4.189   4.738   1.837  0.7432 -0.0688 -0.2917
    6MOL   H233 1843   4.140   4.952   1.912  1.4540  0.3606 -1.9499
    6MOL   H234 1844   4.003   4.892   1.824  0.2988 -0.1483  1.0011
    6MOL   H235 1845   4.108   5.005   1.746 -3.2873  2.5578  2.0367
    6MOL   H236 1846   4.332   4.940   1.675  1.8312 -0.0590 -0.2874
    6MOL   H237 1847   4.362   4.569   1.782 -0.7470  0.2623 -1.6504
    6MOL   H238 1848   4.518   4.621   1.830  1.4737 -1.4069 -1.6312
    6MOL   H239 1849   4.501   4.548   1.675  1.4687 -1.6284  1.4868
    6MOL   H240 1850   4.477   4.879   1.517  1.0819 -0.0731 -1.0019
    6MOL   H241 1851   4.553   4.710   1.509 -1.4605 -1.1342  0.0598
    6MOL   C242 1852   4.421   4.909   1.871 -0.2961  0.1362  0.7820
    6MOL   C243 1853   4.383   4.837   2.002  0.6451  0.1276 -0.2992
    6MOL   C244 1854   4.419   5.061   1.884 -0.2343  0.1525 -0.3508
    6MOL   C245 1855   4.482   5.135   1.768 -0.1310 -0.1674  0.6606
    6MOL   C246 1856   4.404   5.252   1.720 -0.4046  0.0071  0.0122
    6MOL   C247 1857   4.597   5.095   1.705 -0.5089  0.2592 -0.0427
    6MOL   H248 1858   4.523   4.870   1.860 -0.9707 -0.9117 -2.5206
    6MOL   H249 1859   4.384   4.729   1.992 -0.7840  0.2027 -1.3169
    6MOL   H250 1860   4.293   4.872   2.052  0.1186 -1.5064 -0.0678
    6MOL   H251 1861   4.454   4.853   2.084 -1.5764 -2.7379  2.3002
    6MOL   H252 1862   4.314   5.081   1.865  0.4408  1.4078 -3.0430
    6MOL   H253 1863   4.303   5.215   1.699 -0.7065  0.4069  0.7637
    6MOL   H254 1864   4.451   5.301   1.635 -1.7908  1.7489  0.2325
    6MOL   H255 1865   4.399   5.321   1.804  0.9521  0.6036 -0.3968
    6MOL   H256 1866   4.643   4.999   1.724 -0.6372 -0.0651 -1.3068
    6MOL   H257 1867   4.640   5.157   1.628 -0.6684  1.5760  0.9081
    6MOL   C258 1868   4.464   5.123   2.020  0.3323  0.0800 -0.4638
    6MOL   C259 1869   4.604   5.069   2.062 -0.4209  0.7726 -0.7947
    6MOL   C260 1870   4.374   5.143   2.151  0.4890 -0.7002  0.1758
    6MOL   C261 1871   4.246   5.221   2.101 -0.5291 -0.3387 -0.2741
    6MOL   C262 1872   4.248   5.375   2.079  0.5289 -0.5713 -0.0046
    6MOL   C263 1873   4.136   5.147   2.098 -0.1342 -0.6061 -0.0659
    6MOL   H264 1874   4.473   5.228   1.991 -1.0773  0.3807  0.1702
    6MOL   H265 1875   4.675   5.152   2.069  1.2446 -0.6685 -0.1963
    6MOL   H266 1876   4.654   5.024   1.976  2.0253  0.5876  0.6579
    6MOL   H267 1877   4.593   5.002   2.147  4.2635 -0.5049 -1.0237
    6MOL   H268 1878   4.338   5.043   2.172 -0.8806 -0.9488 -3.0096
    6MOL   H269 1879   4.150   5.400   2.040  0.0718  0.6187  1.8730
    6MOL   H270 1880   4.317   5.413   2.002 -0.3716 -0.5302 -0.8013
    6MOL   H271 1881   4.254   5.416   2.180  0.0526 -1.0453  0.2111
    6MOL   H272 1882   4.133   5.044   2.131 -2.5546 -1.1309 -1.8099
    6MOL   H273 1883   4.039   5.191   2.080 -0.6520 -1.0321  1.5914
    6MOL   C274 1884   4.429   5.207   2.276 -0.3698  0.3275 -0.0397
    6MOL   C275 1885   4.527   5.326   2.242 -0.2244 -0.0088 -0.3640
    6MOL   C276 1886   4.491   5.118   2.397  0.1358  0.4304  0.7482
    6MOL   C277 1887   4.394   5.000   2.414 -0.1708  0.1578 -0.4278
    6MOL   C278 1888   4.246   5.025   2.448 -0.4357 -0.3910 -0.1453
    6MOL   C279 1889   4.427   4.873   2.387  0.8089  0.4042 -0.0660
    6MOL   H280 1890   4.348   5.261   2.324  0.5506  0.2309  1.6689
    6MOL   H281 1891   4.627   5.283   2.242 -0.8694 -1.5536  0.4797
    6MOL   H282 1892   4.523   5.400   2.321 -0.8847 -2.5403  2.0745
    6MOL   H283 1893   4.507   5.373   2.146 -1.3277 -0.8266 -0.5501
    6MOL   H284 1894   4.580   5.068   2.359 -1.1430 -0.5184 -1.1373
    6MOL   H285 1895   4.227   4.962   2.534  0.0301  0.3246  0.4888
    6MOL   H286 1896   4.193   4.995   2.358  3.1112 -0.6171 -2.2479
    6MOL   H287 1897   4.226   5.125   2.487  1.5898 -0.2459  0.5732
    6MOL   H288 1898   4.523   4.839   2.351  0.3794  1.0891 -1.9181
    6MOL   H289 1899   4.350   4.800   2.408  0.2430  0.5224 -1.6674
    6MOL   C290 1900   4.519   5.182   2.535 -0.3297 -0.2926 -0.4091
    6MOL   C291 1901   4.611   5.302   2.547 -0.3574 -0.4331  0.1358
    6MOL   C292 1902   4.555   5.090   2.656 -0.1343  1.1354  0.2539
    6MOL   C293 1903   4.483   5.127   2.786  0.0888  0.5916 -0.5252
    6MOL   C294 1904   4.340   5.079   2.803  0.2795  0.2388 -0.4279
    6MOL   C295 1905   4.543   5.196   2.888 -0.0055  0.3651  0.0115
    6MOL   H296 1906   4.420   5.221   2.556  0.5669  1.0418  1.5306
    6MOL   H297 1907   4.649   5.307   2.649  1.3366 -0.0886 -0.4845
    6MOL   H298 1908   4.554   5.394   2.532 -1.8884 -1.0430  2.0350
    6MOL   H299 1909   4.695   5.299   2.477 -0.8321  2.6904 -0.6519
    6MOL   H300 1910   4.506   4.995   2.633  1.2667  0.8489 -1.6133
    6MOL   H301 1911   4.263   5.156   2.808 -1.8862 -1.8063 -1.3710
    6MOL   H302 1912   4.327   5.020   2.894 -1.1182  0.2000 -0.6438
    6MOL   H303 1913   4.310   5.011   2.723 -0.3575  1.3564 -1.1411
    6MOL   H304 1914   4.644   5.234   2.882 -0.3379  1.1505 -0.7700
    6MOL   H305 1915   4.490   5.217   2.980 -0.2213  1.5144 -0.3647
    6MOL   C306 1916   4.705   5.049   2.675  0.3408 -0.2174 -0.9023
    6MOL   C307 1917   4.781   5.015   2.545 -0.3220  0.3375 -0.2144
    6MOL   C308 1918   4.727   4.932   2.780 -0.6675 -0.4043  0.4511
    6MOL   C309 1919   4.662   4.794   2.751  0.3749 -0.3018 -0.2426
    6MOL   C310 1920   4.539   4.766   2.827 -0.3265  0.7793  0.2150
    6MOL   C311 1921   4.721   4.698   2.677 -0.2821 -0.2334 -0.1903
    6MOL   H312 1922   4.756   5.136   2.718 -0.6723 -0.3346  0.5870
    6MOL   H313 1923   4.779   5.097   2.473  1.0509  0.9272  0.3992
    6MOL   H314 1924   4.737   4.937   2.483 -1.5861  0.2233  0.7954
    6MOL   H315 1925   4.884   4.985   2.563 -0.0505  0.6987 -1.1212
    6MOL   H316 1926   4.833   4.906   2.785 -0.6016 -0.5101 -1.0216
    6MOL   H317 1927   4.566   4.747   2.930  0.1459  1.9740  0.3227
    6MOL   H318 1928   4.487   4.684   2.777  0.8469 -0.0587  0.3623
    6MOL   H319 1929   4.466   4.848   2.824 -2.2734 -0.7911  2.8340
    6MOL   H320 1930   4.816   4.708   2.626 -0.0355 -1.1578  0.0653
    6MOL   H321 1931   4.677   4.600   2.664  0.3093 -0.2690 -2.1230
    6MOL   H322 1932   4.692   4.957   2.880 -1.0477  3.1333 -0.5193
    7MOL     C1 1933   5.986   3.039   2.303 -0.6109 -0.2064 -0.4352
    7MOL     C2 1934   6.122   2.982   2.345  0.0722  0.4558 -0.1212
    7MOL     C3 1935   5.987   3.145   2.189 -0.2739 -0.4230 -0.2045
    7MOL     C4 1936   6.082   3.261   2.220 -0.0814 -0.7437 -0.7178
    7MOL     C5 1937   6.187   3.290   2.113  0.7272  0.2047 -0.0603
    7MOL     C6 1938   6.077   3.336   2.333 -0.3687 -0.3500  0.3688
    7MOL     H7 1939   5.927   2.953   2.271  0.7745 -0.8059 -1.4237
    7MOL     H8 1940   6.105   2.934   2.441  0.9233 -1.1097 -0.7465
    7MOL     H9 1941   6.202   3.052   2.369  0.0313  0.3800  0.2419
    7MOL    H10 1942   6.152   2.911   2.268  2.2505  1.1127  0.0990
    7MOL    H11 1943   6.032   3.090   2.106 -0.0965 -0.8962  0.2000
    7MOL    H12 1944   6.245   3.204   2.078  0.6073  0.0340  0.1544
    7MOL    H13 1945   6.245   3.379   2.136  0.3720  0.3583  0.2546
    7MOL    H14 1946   6.130   3.314   2.024  0.8786 -0.0374 -0.2241
    7MOL    H15 1947   5.996   3.330   2.403  0.1255  3.2130  1.3432
    7MOL    H16 1948   6.142   3.421   2.347 -1.8290  0.4332  2.5068
    7MOL    H17 1949   5.923   3.057   2.391  2.4486 -0.3121  1.8647
    7MOL    C18 1950   5.842   3.188   2.136 -0.8180  0.0431  0.1259
    7MOL    C19 1951   5.745   3.219   2.246  0.6246 -0.3812 -0.6770
    7MOL    C20 1952   5.788   3.084   2.033 -0.1915  0.4106 -0.2382
    7MOL    C21 1953   5.882   3.060   1.916 -0.2382  0.8319 -0.4883
    7MOL    C22 1954   5.925   2.920   1.875  0.3962 -0.0690  0.0207
    7MOL    C23 1955   5.923   3.158   1.832  0.6908 -0.0839 -0.2122
    7MOL    H24 1956   5.854   3.281   2.079 -1.9893  1.2389  1.7658
    7MOL    H25 1957   5.720   3.124   2.294  1.0769  0.5903  1.5908
    7MOL    H26 1958   5.651   3.260   2.210  0.0458 -0.0566  1.1393
    7MOL    H27 1959   5.783   3.281   2.327 -2.1898  1.6014 -0.8090
    7MOL    H28 1960   5.796   2.988   2.084 -2.6957 -0.4546 -1.3788
    7MOL    H29 1961   5.834   2.874   1.837 -0.2034 -1.5311  3.0893
    7MOL    H30 1962   5.958   2.863   1.961  1.1271 -1.1799 -0.9788
    7MOL    H31 1963   5.998   2.903   1.796 -2.1523  0.7155 -2.6036
    7MOL    H32 1964   5.902   3.264   1.839  1.0688  0.0187 -0.6639
    7MOL    H33 1965   5.967   3.133   1.737 -2.1812  0.2022 -1.6828
    7MOL    C34 1966   5.641   3.097   1.984 -0.3756 -0.5828  0.8697
    7MOL    C35 1967   5.609   3.240   1.934 -0.4175 -0.0475  0.1184
    7MOL    C36 1968   5.534   3.028   2.069 -0.5640 -0.1483  0.3262
    7MOL    C37 1969   5.563   2.882   2.110  0.3361  0.5718 -0.0294
    7MOL    C38 1970   5.523   2.854   2.253  0.0516 -0.4766 -0.2607
    7MOL    C39 1971   5.623   2.790   2.037  0.7968 -0.3442 -0.4705
    7MOL    H40 1972   5.640   3.047   1.887  1.3494  1.3008 -0.1487
    7MOL    H41 1973   5.683   3.299   1.880 -0.6253  0.8049  0.7501
    7MOL    H42 1974   5.577   3.308   2.012  1.1681  2.9715 -1.7535
    7MOL    H43 1975   5.536   3.235   1.852 -0.5672  1.1396  0.1654
    7MOL    H44 1976   5.550   3.076   2.165 -0.4264  0.4193  0.0245
    7MOL    H45 1977   5.597   2.909   2.311 -0.0267  0.2019 -0.7896
    7MOL    H46 1978   5.528   2.748   2.275  0.7204 -0.4170 -0.1163
    7MOL    H47 1979   5.424   2.894   2.274  1.1544  1.9113  0.6260
    7MOL    H48 1980   5.657   2.803   1.935 -0.0196  0.1429 -0.6820
    7MOL    H49 1981   5.634   2.692   2.081 -1.6166 -0.1198  0.7067
    7MOL    C50 1982   5.384   3.060   2.032  0.2221  0.1720 -0.2541
    7MOL    C51 1983   5.337   3.171   2.134  0.2491 -0.5129  0.5862
    7MOL    C52 1984   5.272   2.948   2.024 -0.6333 -0.1132  0.2285
    7MOL    C53 1985   5.310   2.832   1.939  0.3300  0.3342 -0.1894
    7MOL    C54 1986   5.363   2.852   1.802 -0.0595  0.0133  0.4672
    7MOL    C55 1987   5.289   2.712   1.990 -0.1356  0.2025  0.0254
    7MOL    H56 1988   5.388   3.086   1.926  2.8827 -0.2251 -0.2961
    7MOL    H57 1989   5.255   3.233   2.098 -0.7569 -1.5554  1.0881
    7MOL    H58 1990   5.421   3.240   2.147 -1.4250  1.9296 -1.0769
    7MOL    H59 1991   5.313   3.116   2.224  1.6797 -1.0398  0.6625
    7MOL    H60 1992   5.264   2.898   2.120  1.4171 -3.1128 -1.0772
    7MOL    H61 1993   5.461   2.901   1.800 -0.0353 -0.0454  0.2156
    7MOL    H62 1994   5.297   2.895   1.726 -0.1391  0.1100  0.5911
    7MOL    H63 1995   5.391   2.753   1.765  0.1477 -0.3827  1.6679
    7MOL    H64 1996   5.254   2.687   2.089 -1.5472  0.8747 -0.2931
    7MOL    H65 1997   5.305   2.628   1.924  0.6626  1.3428 -1.2609
    7MOL    C66 1998   5.128   2.994   1.982  0.3281 -0.8962 -0.1848
    7MOL    C67 1999   5.123   3.100   1.874  0.4372  0.7793  0.6094
    7MOL    C68 2000   5.033   3.033   2.110  0.0622  0.3497 -0.2247
    7MOL    C69 2001   5.022   2.920   2.219 -0.7453  0.2226 -0.0579
    7MOL    C70 2002   5.019   2.966   2.364  0.3797  0.4049  0.4952
    7MOL    C71 2003   5.008   2.788   2.186 -0.2633  0.7715 -0.6157
    7MOL    H72 2004   5.086   2.908   1.930  1.8510 -0.8900 -1.4648
    7MOL    H73 2005   5.160   3.194   1.915  0.5771 -0.4048  3.2957
    7MOL    H74 2006   5.023   3.114   1.833 -0.1271 -0.4444  1.5261
    7MOL    H75 2007   5.191   3.079   1.792  1.1101 -0.3465  1.4491
    7MOL    H76 2008   5.085   3.108   2.169  0.7821 -1.3370  1.3346
    7MOL    H77 2009   5.104   3.020   2.406  1.9688 -1.4630 -0.2462
    7MOL    H78 2010   5.020   2.881   2.432 -0.8451  0.1692  0.2337
    7MOL    H79 2011   4.932   3.028   2.383  0.6840  0.5839  1.3019
    7MOL    H80 2012   5.000   2.768   2.080  0.3418  1.1234 -0.7272
    7MOL    H81 2013   5.005   2.702   2.251 -1.3631 -1.1969 -3.1274
    7MOL    C82 2014   4.884   3.087   2.082 -0.3793  0.1526 -0.4245
    7MOL    C83 2015   4.804   3.001   1.990  0.8362 -0.2165  0.0722
    7MOL    C84 2016   4.867   3.246   2.054  0.1059  0.1176 -0.0074
    7MOL    C85 2017   4.976   3.340   2.108 -0.9658 -0.8180  0.3156
    7MOL    C86 2018   5.009   3.355   2.259 -0.2424  0.4201 -0.3175
    7MOL    C87 2019   5.036   3.427   2.026  0.1531 -0.8322  0.1280
    7MOL    H88 2020   4.837   3.069   2.179  0.6805  1.6839  0.4081
    7MOL    H89 2021   4.702   3.002   2.029  0.5956 -0.1654 -0.5480
    7MOL    H90 2022   4.827   2.895   1.987 -2.8164 -1.0778 -0.2828
    7MOL    H91 2023   4.810   3.046   1.891  1.3475  2.6026  1.3171
    7MOL    H92 2024   4.879   3.261   1.946  1.3225  0.1508  0.1286
    7MOL    H93 2025   4.937   3.419   2.311 -0.1940 -0.2126  0.5500
    7MOL    H94 2026   5.107   3.394   2.285 -0.6376  0.2401  1.4873
    7MOL    H95 2027   5.010   3.259   2.310 -1.1845 -0.5481 -2.0814
    7MOL    H96 2028   5.020   3.417   1.919  0.1455 -1.1932  0.1627
    7MOL    H97 2029   5.103   3.504   2.060  1.8480 -2.9533  1.6937
    7MOL    C98 2030   4.724   3.302   2.085  0.3134  0.1520 -0.1524
    7MOL    C99 2031   4.679   3.272   2.231 -0.1428  0.5493  0.2210
    7MOL   C100 2032   4.608   3.298   1.980 -0.5289  0.1904  0.1062
    7MOL   C101 2033   4.651   3.337   1.835 -0.0110 -0.5607 -0.1389
    7MOL   C102 2034   4.700   3.478   1.811  0.0943 -0.6694  0.5881
    7MOL   C103 2035   4.651   3.240   1.733 -0.0891  0.0235 -0.3307
    7MOL   H104 2036   4.753   3.406   2.082  1.2066 -0.1195 -0.9012
    7MOL   H105 2037   4.762   3.256   2.300 -0.8850  1.2736  1.2864
    7MOL   H106 2038   4.618   3.183   2.221  1.3564 -0.4255 -0.4149
    7MOL   H107 2039   4.608   3.346   2.266  0.0731  2.6098 -3.4019
    7MOL   H108 2040   4.581   3.192   1.973  1.3549 -0.2272 -1.2099
    7MOL   H109 2041   4.625   3.551   1.842  0.9579 -0.4072  2.0875
    7MOL   H110 2042   4.732   3.504   1.709 -2.3539  0.4970  0.0912
    7MOL   H111 2043   4.789   3.489   1.873  2.2019 -1.3462 -2.1875
    7MOL   H112 2044   4.617   3.139   1.749  0.5131  0.0262  1.0558
    7MOL   H113 2045   4.680   3.260   1.631 -3.0343 -2.8461 -1.7924
    7MOL   C114 2046   4.473   3.374   2.015  0.4415  0.3405 -0.0063
    7MOL   C115 2047   4.500   3.512   2.084  0.4319 -0.4770  0.2180
    7MOL   C116 2048   4.359   3.298   2.085  0.4464 -0.0646 -0.2161
    7MOL   C117 2049   4.335   3.164   2.007  0.4278  0.0407 -0.7938
    7MOL   C118 2050   4.272   3.173   1.870 -0.1309  0.5468 -0.4980
    7MOL   C119 2051   4.364   3.044   2.062  0.2402 -0.1495  0.3306
    7MOL   H120 2052   4.427   3.390   1.918 -0.2584  0.7569  0.3926
    7MOL   H121 2053   4.498   3.508   2.192  1.5186 -0.0720  0.2670
    7MOL   H122 2054   4.427   3.583   2.046  1.4057  0.2388 -0.3727
    7MOL   H123 2055   4.588   3.573   2.062 -0.2063 -0.1960 -1.6523
    7MOL   H124 2056   4.396   3.255   2.178  1.2085 -0.6169 -0.7694
    7MOL   H125 2057   4.169   3.207   1.865 -0.5259 -0.6786 -0.9397
    7MOL   H126 2058   4.281   3.074   1.825  0.5090  0.9352 -1.2581
    7MOL   H127 2059   4.332   3.228   1.798 -0.0001  0.8009 -0.1970
    7MOL   H128 2060   4.402   3.031   2.162 -1.3632 -0.4504  0.9197
    7MOL   H129 2061   4.343   2.951   2.012 -2.2937 -0.1690  1.3745
    7MOL   C130 2062   4.220   3.364   2.115 -0.0009 -0.2334  0.1664
    7MOL   C131 2063   4.173   3.440   1.998  0.1250 -0.5063 -0.0680
    7MOL   C132 2064   4.209   3.442   2.247  0.1392 -0.1254 -0.2090
    7MOL   C133 2065   4.267   3.366   2.367 -0.3463  0.1490 -0.0695
    7MOL   C134 2066   4.358   3.447   2.463 -0.1730 -0.5488 -0.2745
    7MOL   C135 2067   4.238   3.237   2.385 -0.3181 -0.0625 -0.5854
    7MOL   H136 2068   4.159   3.275   2.131 -0.1429  0.0588  1.2770
    7MOL   H137 2069   4.210   3.543   1.997  0.3813 -0.5905  0.4111
    7MOL   H138 2070   4.065   3.436   1.984 -0.0651 -1.7389  1.5777
    7MOL   H139 2071   4.212   3.409   1.901  0.2242  1.1196 -0.5669
    7MOL   H140 2072   4.290   3.513   2.234  1.0989 -1.6817 -3.1480
    7MOL   H141 2073   4.419   3.378   2.521  1.1797  0.4547 -0.4687
    7MOL   H142 2074   4.292   3.485   2.542 -0.6190  0.8526 -1.2934
    7MOL   H143 2075   4.409   3.523   2.403 -1.6023  0.5359 -0.1571
    7MOL   H144 2076   4.185   3.171   2.319 -1.7671 -0.4500  0.9369
    7MOL   H145 2077   4.283   3.192   2.472 -0.8781 -1.0108 -0.7850
    7MOL   C146 2078   4.074   3.523   2.286  0.0346  0.2814 -0.0012
    7MOL   C147 2079   3.948   3.432   2.263  0.2594 -0.7944  0.0433
    7MOL   C148 2080   4.067   3.665   2.229 -0.5223  0.2437  0.6325
    7MOL   C149 2081   4.186   3.752   2.279  0.0857 -0.4583  0.0370
    7MOL   C150 2082   4.198   3.778   2.423  0.1671  0.2364 -0.0976
    7MOL   C151 2083   4.287   3.797   2.200 -0.0061 -0.3076 -0.2241
    7MOL   H152 2084   4.072   3.541   2.393  2.3196  0.5583  0.0183
    7MOL   H153 2085   3.927   3.419   2.157 -0.5139 -0.9767  0.2143
    7MOL   H154 2086   3.860   3.471   2.314 -0.3599  0.9053 -2.2789
    7MOL   H155 2087   3.984   3.335   2.297 -0.0093 -1.1384 -0.6473
    7MOL   H156 2088   4.085   3.670   2.121  1.4337  0.8462  0.9728
    7MOL   H157 2089   4.120   3.839   2.468  1.4748  1.6986  0.2360
    7MOL   H158 2090   4.292   3.824   2.456 -0.1104  1.5834 -1.1296
    7MOL   H159 2091   4.203   3.683   2.476 -0.4331 -0.0152 -0.4808
    7MOL   H160 2092   4.293   3.770   2.096 -0.8192  0.5975 -0.5035
    7MOL   H161 2093   4.364   3.864   2.236  1.9116 -2.5492  0.0292
    7MOL   C162 2094   3.929   3.745   2.244  0.1279  0.3865  1.0103
    7MOL   C163 2095   3.870   3.720   2.385  0.3615 -0.1945  0.0977
    7MOL   C164 2096   3.830   3.758   2.124  0.2441 -0.2667  0.4669
    7MOL   C165 2097   3.904   3.775   1.994  0.2840  0.2147  0.3769
    7MOL   C166 2098   3.983   3.904   1.982  0.0959  0.6021 -0.4469
    7MOL   C167 2099   3.926   3.683   1.898 -0.0761 -0.2853 -0.7144
    7MOL   H168 2100   3.968   3.847   2.247 -1.3599  1.0403 -1.0162
    7MOL   H169 2101   3.941   3.690   2.462 -0.4074  0.3793  1.0466
    7MOL   H170 2102   3.798   3.642   2.409  0.9401 -0.2600  1.6546
    7MOL   H171 2103   3.826   3.815   2.417 -0.2085 -0.2549 -0.4896
    7MOL   H172 2104   3.772   3.666   2.113  2.1785 -1.3177 -1.0765
    7MOL   H173 2105   3.970   3.960   1.889  2.4283  1.6260 -0.1785
    7MOL   H174 2106   4.089   3.885   1.998 -0.2256  0.4140  1.4729
    7MOL   H175 2107   3.947   3.974   2.057  1.1831  0.4201  0.2484
    7MOL   H176 2108   3.892   3.580   1.903 -1.8577  0.3240 -0.0610
    7MOL   H177 2109   3.983   3.721   1.814 -0.2624  1.7822  0.0720
    7MOL   C178 2110   3.712   3.859   2.152 -1.1645  0.0407 -0.6251
    7MOL   C179 2111   3.595   3.801   2.249  0.3628  0.1271 -0.6806
    7MOL   C180 2112   3.657   3.940   2.034 -0.4597 -0.5916 -0.3500
    7MOL   C181 2113   3.612   4.080   2.088  1.0648 -0.5261 -0.2116
    7MOL   C182 2114   3.729   4.181   2.107 -0.1633 -0.3252 -0.0566
    7MOL   C183 2115   3.487   4.120   2.120  0.1971 -0.2950  0.0566
    7MOL   H184 2116   3.761   3.937   2.211 -0.4026 -1.0397  0.1818
    7MOL   H185 2117   3.562   3.702   2.217 -0.3909  0.0376  0.3592
    7MOL   H186 2118   3.509   3.868   2.236  1.3401  1.1866 -1.7840
    7MOL   H187 2119   3.627   3.800   2.353  1.2568  1.0587 -0.9391
    7MOL   H188 2120   3.739   3.964   1.966 -0.2438 -0.9192 -0.2055
    7MOL   H189 2121   3.824   4.149   2.064  0.1709 -0.4560  0.7726
    7MOL   H190 2122   3.752   4.181   2.214 -0.0163 -2.2832 -0.0795
    7MOL   H191 2123   3.700   4.282   2.076 -0.4629 -0.9833 -2.0110
    7MOL   H192 2124   3.401   4.055   2.117  0.4430 -0.5480 -2.6065
    7MOL   H193 2125   3.468   4.223   2.145 -0.5953  0.3119 -2.9113
    7MOL   C194 2126   3.544   3.872   1.945  0.2508 -0.4729  0.6381
    7MOL   C195 2127   3.576   3.725   1.915  0.3072 -0.6768 -0.3749
    7MOL   C196 2128   3.486   3.952   1.822 -0.5874  0.0249  0.6337
    7MOL   C197 2129   3.335   3.959   1.833  0.4143  0.5733 -0.0389
    7MOL   C198 2130   3.239   3.837   1.830  0.3202 -0.8211 -0.1413
    7MOL   C199 2131   3.276   4.079   1.853 -0.2667 -0.3379  0.1640
    7MOL   H200 2132   3.460   3.856   2.012 -0.6221 -0.6466 -0.4772
    7MOL   H201 2133   3.499   3.683   1.850 -0.2891 -1.0210  0.5495
    7MOL   H202 2134   3.566   3.663   2.004 -0.0779  1.6990  1.2633
    7MOL   H203 2135   3.673   3.715   1.864  0.0222 -0.5848 -0.9387
    7MOL   H204 2136   3.520   4.056   1.826  0.6592 -0.3493  0.0145
    7MOL   H205 2137   3.137   3.865   1.858  1.3185  1.3096  1.4708
    7MOL   H206 2138   3.271   3.757   1.896  0.0545  0.5762  1.7338
    7MOL   H207 2139   3.243   3.788   1.733  1.1537 -0.4733 -0.2877
    7MOL   H208 2140   3.337   4.168   1.865  2.2248 -1.6274 -2.3386
    7MOL   H209 2141   3.170   4.093   1.865 -0.1638  0.1374  0.5631
    7MOL   C210 2142   3.551   3.901   1.685  0.1487  0.1319  0.4974
    7MOL   C211 2143   3.711   3.897   1.685 -0.0119  0.0365 -0.1473
    7MOL   C212 2144   3.492   3.955   1.543 -0.8547 -0.1389 -0.2668
    7MOL   C213 2145   3.498   3.840   1.434  0.0557  0.1366 -0.2432
    7MOL   C214 2146   3.372   3.763   1.416  0.1627  0.2368 -0.2089
    7MOL   C215 2147   3.607   3.815   1.362 -0.5567  0.3541  0.1607
    7MOL   H216 2148   3.523   3.796   1.678 -0.2618  0.1658  1.5598
    7MOL   H217 2149   3.762   3.951   1.766 -0.5786 -0.9312  0.8786
    7MOL   H218 2150   3.756   3.951   1.602 -0.9321  0.1500 -0.5700
    7MOL   H219 2151   3.745   3.794   1.688  0.0194 -0.0016 -1.7080
    7MOL   H220 2152   3.386   3.974   1.562 -1.0557 -1.2203 -0.2315
    7MOL   H221 2153   3.350   3.713   1.510  0.0380 -2.4849 -1.6399
    7MOL   H222 2154   3.393   3.688   1.341  1.4389  1.0509 -0.6781
    7MOL   H223 2155   3.286   3.826   1.391 -0.6172 -0.9510 -0.5786
    7MOL   H224 2156   3.701   3.868   1.371 -0.5914  0.2473  1.1361
    7MOL   H225 2157   3.605   3.741   1.283  0.7085  0.2228  0.2324
    7MOL   C226 2158   3.537   4.095   1.484 -0.4653  0.9660  0.4724
    7MOL   C227 2159   3.539   4.209   1.591 -0.3213  0.1601  0.2792
    7MOL   C228 2160   3.474   4.129   1.346 -0.0719 -0.0567 -0.7264
    7MOL   C229 2161   3.572   4.118   1.225  0.6225 -0.2160  0.5027
    7MOL   C230 2162   3.515   4.073   1.093 -0.0864 -0.2112 -0.1011
    7MOL   C231 2163   3.701   4.159   1.231  0.5093 -0.2794  0.0395
    7MOL   H232 2164   3.641   4.092   1.454 -1.2823  0.3785 -2.4303
    7MOL   H233 2165   3.613   4.181   1.666  0.8900 -0.7504 -1.2103
    7MOL   H234 2166   3.447   4.210   1.648 -0.3963  0.3918  0.1541
    7MOL   H235 2167   3.569   4.304   1.547 -1.2526  0.6261  0.6569
    7MOL   H236 2168   3.414   4.041   1.320  0.0107 -0.0212 -1.0377
    7MOL   H237 2169   3.432   4.003   1.104 -0.0566 -0.2284  0.0111
    7MOL   H238 2170   3.581   4.012   1.032  0.2865 -0.9364  1.0046
    7MOL   H239 2171   3.495   4.169   1.046  3.3623  0.0306 -1.1870
    7MOL   H240 2172   3.770   4.192   1.307  0.8886  0.5137 -0.6500
    7MOL   H241 2173   3.754   4.153   1.137 -0.1428  1.5199 -0.4594
    7MOL   C242 2174   3.381   4.256   1.334  0.1637  0.2754 -0.0940
    7MOL   C243 2175   3.449   4.390   1.347 -0.1928 -0.1530 -0.5463
    7MOL   C244 2176   3.248   4.254   1.412 -0.0586 -0.3761  0.4088
    7MOL   C245 2177   3.167   4.124   1.401  0.5513 -0.3661  0.1764
    7MOL   C246 2178   3.109   4.089   1.270  0.3771  0.2140  0.3434
    7MOL   C247 2179   3.154   4.049   1.508 -0.5515  0.3285  0.0492
    7MOL   H248 2180   3.358   4.247   1.228  2.3147  1.0477 -0.6469
    7MOL   H249 2181   3.558   4.392   1.337 -0.0018 -3.3410  0.3440
    7MOL   H250 2182   3.427   4.438   1.443 -2.0098 -0.5986 -0.7260
    7MOL   H251 2183   3.403   4.450   1.269  2.2172  3.7624  0.8647
    7MOL   H252 2184   3.284   4.248   1.515 -0.9675 -0.4213  0.7353
    7MOL   H253 2185   3.181   4.095   1.188 -0.6420 -3.5579 -0.9504
    7MOL   H254 2186   3.023   4.150   1.243 -0.9859 -2.4462 -1.5978
    7MOL   H255 2187   3.066   3.989   1.264 -1.4957  1.0734 -1.0012
    7MOL   H256 2188   3.199   4.076   1.602 -0.3165  2.0903 -0.5359
    7MOL   H257 2189   3.103   3.954   1.505  0.7172 -0.3355 -1.0786
    7MOL   C258 2190   3.147   4.368   1.395 -0.4925  0.3251  0.9706
    7MOL   C259 2191   3.136   4.401   1.238 -0.4175 -0.0474 -0.2819
    7MOL   C260 2192   3.166   4.496   1.482  0.4740 -0.2518  0.1776
    7MOL   C261 2193   3.208   4.463   1.630 -0.0228 -0.4210  0.3908
    7MOL   C262 2194   3.105   4.391   1.715 -0.0406 -0.1241 -0.6036
    7MOL   C263 2195   3.321   4.509   1.687  0.8858 -0.4899 -0.4709
    7MOL   H264 2196   3.054   4.325   1.430  0.2583  0.1391  2.7922
    7MOL   H265 2197   3.158   4.320   1.168  0.1615  0.7922 -1.0883
    7MOL   H266 2198   3.211   4.477   1.215 -1.7249  0.6106 -2.5784
    7MOL   H267 2199   3.042   4.449   1.214 -2.6907 -2.4873  3.2032
    7MOL   H268 2200   3.253   4.544   1.437 -0.4083  0.2835 -0.9739
    7MOL   H269 2201   3.063   4.304   1.665 -0.4770 -1.2790  1.7136
    7MOL   H270 2202   3.026   4.462   1.740  0.5209 -0.0390  1.0349
    7MOL   H271 2203   3.160   4.361   1.804 -2.4606 -1.7487  0.3839
    7MOL   H272 2204   3.394   4.567   1.633  0.7146 -0.0353 -0.2189
    7MOL   H273 2205   3.354   4.491   1.788  1.7265  0.1242 -0.6348
    7MOL   C274 2206   3.055   4.611   1.472  0.7608  0.4262  0.1232
    7MOL   C275 2207   2.916   4.542   1.479 -0.2147 -0.0338  0.6009
    7MOL   C276 2208   3.073   4.713   1.361  0.7806  0.4544  0.0074
    7MOL   C277 2209   3.214   4.774   1.360 -0.8448  0.3610  0.6828
    7MOL   C278 2210   3.278   4.776   1.224 -0.1462 -0.2698 -0.5079
    7MOL   C279 2211   3.273   4.829   1.465  0.2509  0.2744 -0.5700
    7MOL   H280 2212   3.063   4.675   1.560  1.1846  0.7041 -0.1169
    7MOL   H281 2213   2.910   4.461   1.551  1.4392 -0.3249  0.4224
    7MOL   H282 2214   2.884   4.494   1.386 -3.1846  1.9807  0.5123
    7MOL   H283 2215   2.835   4.607   1.510 -0.6424 -0.2276 -0.1009
    7MOL   H284 2216   3.076   4.653   1.270 -1.1803  1.9196 -1.0659
    7MOL   H285 2217   3.252   4.698   1.153 -0.4705  0.8952 -1.6885
    7MOL   H286 2218   3.386   4.769   1.238 -0.1129  1.2287  0.1026
    7MOL   H287 2219   3.246   4.872   1.183  0.8487  0.3520  0.1436
    7MOL   H288 2220   3.224   4.829   1.560 -0.0431 -0.4939 -0.7131
    7MOL   H289 2221   3.368   4.880   1.453  1.6039 -1.4778  2.2848
    7MOL   C290 2222   2.966   4.829   1.341  1.0004  0.9477  0.3213
    7MOL   C291 2223   2.926   4.911   1.472  1.1914 -0.1360 -0.0937
    7MOL   C292 2224   2.840   4.778   1.248 -0.2934  0.2777 -0.1938
    7MOL   C293 2225   2.875   4.692   1.125  1.0446 -0.0936  0.4175
    7MOL   C294 2226   2.787   4.565   1.115  0.5601  0.5193 -0.1902
    7MOL   C295 2227   2.970   4.716   1.033 -0.0159 -0.1703  0.1650
    7MOL   H296 2228   3.022   4.895   1.275  1.2302 -1.6134 -2.1989
    7MOL   H297 2229   3.007   4.919   1.545  1.6288 -2.3956 -0.2980
    7MOL   H298 2230   2.851   4.860   1.532  0.5801  0.9256  0.0496
    7MOL   H299 2231   2.888   5.010   1.448  2.4343  0.2801 -0.4110
    7MOL   H300 2232   2.793   4.713   1.322  2.1615 -0.1526  1.0112
    7MOL   H301 2233   2.688   4.590   1.076 -0.6297 -3.8561 -0.1744
    7MOL   H302 2234   2.778   4.508   1.207 -0.0540  1.1114  0.1279
    7MOL   H303 2235   2.822   4.503   1.033  1.1625 -1.7757  1.7697
    7MOL   H304 2236   3.035   4.802   1.038  0.5890 -0.7069  1.6540
    7MOL   H305 2237   2.985   4.656   0.945  1.7931 -0.9149  0.9724
    7MOL   C306 2238   2.738   4.889   1.209 -0.2797 -1.2175  0.3278
    7MOL   C307 2239   2.801   5.014   1.141 -0.3765  0.4191 -0.3171
    7MOL   C308 2240   2.640   4.936   1.317  0.2742 -0.0628  0.4027
    7MOL   C309 2241   2.551   4.824   1.373 -0.5202  0.3816  0.5108
    7MOL   C310 2242   2.429   4.772   1.289  0.5714 -0.2855  0.6174
    7MOL   C311 2243   2.568   4.774   1.497 -0.6365  0.2786  0.5184
    7MOL   H312 2244   2.669   4.842   1.139  0.0196 -1.3294  0.1061
    7MOL   H313 2245   2.899   5.049   1.175  0.7857 -0.6314 -2.4401
    7MOL   H314 2246   2.736   5.099   1.125  1.4539  1.9711  0.3096
    7MOL   H315 2247   2.817   4.980   1.038 -2.1293  0.9315 -0.7738
    7MOL   H316 2248   2.683   4.986   1.403  1.6822  0.0171 -0.3336
    7MOL   H317 2249   2.378   4.702   1.354  0.0757 -0.4619  0.0453
    7MOL   H318 2250   2.461   4.728   1.194  1.8491  0.2600  0.7742
    7MOL   H319 2251   2.365   4.857   1.265 -0.9481 -2.4013 -3.3622
    7MOL   H320 2252   2.656   4.807   1.550 -0.8770  1.1302  0.3890
    7MOL   H321 2253   2.513   4.699   1.551  0.6568  0.9830  2.8682
    7MOL   H322 2254   2.573   5.006   1.268  1.8730 -0.0093 -1.7916
    8MOL     C1 2255   0.595   4.088   3.974  0.0608 -0.0605 -0.5657
    8MOL     C2 2256   0.453   4.122   3.951 -0.3219  0.4191 -0.8038
    8MOL     C3 2257   0.650   4.084   4.122  0.6742 -0.4076  0.3349
    8MOL     C4 2258   0.632   4.210   4.205  0.5168  0.3971  0.5002
    8MOL     C5 2259   0.621   4.195   4.359  0.7059  0.4489  0.1750
    8MOL     C6 2260   0.615   4.333   4.148 -0.3230  0.5545  0.7262
    8MOL     H7 2261   0.612   3.986   3.941  2.0959  0.5509 -1.4727
    8MOL     H8 2262   0.390   4.042   3.992  0.5875  0.2848  0.3426
    8MOL     H9 2263   0.419   4.134   3.848 -0.8195 -0.3013 -0.7347
    8MOL    H10 2264   0.437   4.216   4.003 -1.3040 -0.2298  0.1004
    8MOL    H11 2265   0.577   4.019   4.170 -0.6522  0.7138 -0.1460
    8MOL    H12 2266   0.694   4.118   4.385  1.3314  0.6177 -1.0515
    8MOL    H13 2267   0.517   4.170   4.382  0.9031 -0.2333  0.3456
    8MOL    H14 2268   0.648   4.285   4.413  0.3432 -0.0510  1.2058
    8MOL    H15 2269   0.623   4.352   4.042 -2.6867 -1.3506  0.1431
    8MOL    H16 2270   0.588   4.414   4.214 -0.2270 -1.2502  3.0560
    8MOL    H17 2271   0.663   4.141   3.907 -0.3404  0.5255 -0.5111
    8MOL    C18 2272   0.800   4.036   4.137  0.1804  0.0907  0.6333
    8MOL    C19 2273   0.894   4.116   4.045 -0.5405 -0.2912  0.1936
    8MOL    C20 2274   0.824   3.884   4.112 -0.4073  0.7458 -0.1286
    8MOL    C21 2275   0.731   3.802   4.194 -0.1221  0.0404  0.3557
    8MOL    C22 2276   0.763   3.798   4.341 -0.9771  0.6825 -0.5891
    8MOL    C23 2277   0.622   3.744   4.141 -0.4022  0.4790 -0.0517
    8MOL    H24 2278   0.837   4.055   4.238  0.4713 -0.9467  0.7256
    8MOL    H25 2279   0.999   4.092   4.059 -0.2017  1.8167  1.5196
    8MOL    H26 2280   0.885   4.218   4.084 -1.1462 -0.5685  0.7942
    8MOL    H27 2281   0.873   4.100   3.939  1.2203 -0.1457 -0.1876
    8MOL    H28 2282   0.791   3.859   4.011 -0.4499  0.7744 -0.1215
    8MOL    H29 2283   0.682   3.759   4.403 -0.4249  0.5194  0.0418
    8MOL    H30 2284   0.778   3.901   4.372 -1.0622  0.7414 -0.7418
    8MOL    H31 2285   0.842   3.730   4.373 -0.7642  0.3029 -1.9257
    8MOL    H32 2286   0.590   3.765   4.039  0.1101  0.1646 -0.2780
    8MOL    H33 2287   0.563   3.671   4.194  0.7693 -0.4085  0.0466
    8MOL    C34 2288   0.972   3.833   4.134 -0.3414  0.2278  0.4391
    8MOL    C35 2289   1.058   3.905   4.239 -0.0527 -0.0081  0.8753
    8MOL    C36 2290   1.051   3.794   4.002  0.3210  0.6408  0.0991
    8MOL    C37 2291   0.959   3.705   3.908  0.3737 -0.3243 -0.4202
    8MOL    C38 2292   0.926   3.565   3.965  0.1964 -0.7498 -0.1771
    8MOL    C39 2293   0.909   3.744   3.793  0.2011 -0.1052  0.0633
    8MOL    H40 2294   0.971   3.733   4.177  3.4874 -0.7808 -1.5799
    8MOL    H41 2295   1.148   3.850   4.266  1.4122 -0.3476 -4.0617
    8MOL    H42 2296   1.009   3.921   4.335  1.7079  0.3291  1.7342
    8MOL    H43 2297   1.088   4.005   4.206  0.5356 -0.6241 -0.5290
    8MOL    H44 2298   1.047   3.889   3.948 -0.0423 -0.5117 -1.9497
    8MOL    H45 2299   1.022   3.513   3.959 -0.3880 -1.8784 -0.0312
    8MOL    H46 2300   0.850   3.518   3.902 -1.7637  0.2607  1.3716
    8MOL    H47 2301   0.881   3.585   4.062  0.3073  0.0469 -0.2933
    8MOL    H48 2302   0.940   3.845   3.769 -1.5860 -0.1230 -2.5261
    8MOL    H49 2303   0.842   3.689   3.729  0.9075 -0.0964 -0.6971
    8MOL    C50 2304   1.198   3.744   4.002 -1.0863  0.0531 -0.4248
    8MOL    C51 2305   1.211   3.616   4.094  0.1025  0.5506  0.4232
    8MOL    C52 2306   1.311   3.851   4.015  0.4175 -0.1098  0.4635
    8MOL    C53 2307   1.268   3.991   3.965 -0.5595  0.1791 -0.6339
    8MOL    C54 2308   1.237   4.009   3.814  0.0270 -0.0241 -0.7027
    8MOL    C55 2309   1.266   4.102   4.038  0.4427 -0.0803  0.1889
    8MOL    H56 2310   1.211   3.706   3.900 -1.2447 -2.2257  0.3784
    8MOL    H57 2311   1.309   3.611   4.142 -0.2333 -1.3744  0.9220
    8MOL    H58 2312   1.208   3.518   4.048  2.6320  0.9802 -0.7801
    8MOL    H59 2313   1.140   3.626   4.176 -1.7950 -1.5369 -0.9340
    8MOL    H60 2314   1.313   3.865   4.123 -0.9518 -1.4903  0.6822
    8MOL    H61 2315   1.203   3.913   3.776 -0.9444  0.2629 -0.5573
    8MOL    H62 2316   1.330   4.018   3.756  1.0486 -2.3358  0.5119
    8MOL    H63 2317   1.165   4.086   3.787 -0.3731  0.8303  2.5955
    8MOL    H64 2318   1.299   4.093   4.141  2.7845  0.7621 -0.4483
    8MOL    H65 2319   1.248   4.198   3.992  1.8655 -0.6944 -1.7248
    8MOL    C66 2320   1.450   3.804   3.958 -0.9732  0.0384  0.9149
    8MOL    C67 2321   1.481   3.653   3.937 -1.0217  0.4517 -0.1664
    8MOL    C68 2322   1.564   3.885   4.030 -0.8381  0.0802 -0.0336
    8MOL    C69 2323   1.672   3.918   3.932  0.6017 -0.1712  0.7658
    8MOL    C70 2324   1.651   4.041   3.831 -0.2432  0.3099 -0.3501
    8MOL    C71 2325   1.788   3.855   3.926  0.5402  0.7389 -0.2175
    8MOL    H72 2326   1.443   3.848   3.859  0.2855  0.0090  0.8065
    8MOL    H73 2327   1.406   3.593   3.884 -0.6476 -3.1633  3.1785
    8MOL    H74 2328   1.500   3.584   4.019  2.6968 -0.9472 -2.0846
    8MOL    H75 2329   1.564   3.631   3.870  0.2332  0.2047  1.4289
    8MOL    H76 2330   1.534   3.987   4.053 -0.0935 -0.1348  2.0053
    8MOL    H77 2331   1.752   4.074   3.807 -0.1251  0.0631 -0.1940
    8MOL    H78 2332   1.586   4.120   3.869  2.1832  2.7877 -1.1765
    8MOL    H79 2333   1.612   3.995   3.741 -0.7918 -3.3320  1.6585
    8MOL    H80 2334   1.805   3.767   3.987 -1.5357 -0.2231 -0.9831
    8MOL    H81 2335   1.869   3.882   3.861  3.2815  0.2688  2.8454
    8MOL    C82 2336   1.612   3.832   4.174 -0.1785 -0.3932  0.2279
    8MOL    C83 2337   1.496   3.817   4.278  0.2059 -0.1348  0.4825
    8MOL    C84 2338   1.723   3.925   4.246  0.4022  0.5077  1.0701
    8MOL    C85 2339   1.815   3.836   4.337  1.1283 -0.2007  0.0774
    8MOL    C86 2340   1.927   3.756   4.267 -0.4865  0.5636 -0.3200
    8MOL    C87 2341   1.808   3.836   4.475 -0.7674  0.0058  0.1244
    8MOL    H88 2342   1.658   3.737   4.149  1.6448  0.9793 -1.8745
    8MOL    H89 2343   1.426   3.739   4.249 -0.4327 -0.0070  1.6652
    8MOL    H90 2344   1.431   3.903   4.297 -0.1602 -0.3753  0.3295
    8MOL    H91 2345   1.536   3.788   4.375 -1.8625  2.4984  2.1904
    8MOL    H92 2346   1.789   3.961   4.166  0.4076 -2.4830 -0.3330
    8MOL    H93 2347   1.896   3.678   4.197  0.0776 -0.3013  0.4003
    8MOL    H94 2348   1.980   3.718   4.354  1.0281 -2.7237 -2.6037
    8MOL    H95 2349   1.988   3.823   4.207 -1.7918  1.6961 -0.4220
    8MOL    H96 2350   1.742   3.892   4.539 -0.6817 -1.3115  1.3870
    8MOL    H97 2351   1.875   3.778   4.537  1.5926  2.3015 -0.1898
    8MOL    C98 2352   1.684   4.065   4.315 -1.0208  0.2988 -0.2081
    8MOL    C99 2353   1.594   4.159   4.234 -0.0618  0.4167  0.1200
    8MOL   C100 2354   1.804   4.140   4.382  0.0568 -0.4076 -0.0044
    8MOL   C101 2355   1.750   4.243   4.494 -0.7238  0.1818 -0.0796
    8MOL   C102 2356   1.706   4.181   4.628 -0.0230 -0.5035  0.8717
    8MOL   C103 2357   1.744   4.373   4.470  0.3934  0.1662 -0.2838
    8MOL   H104 2358   1.619   4.031   4.396  1.5763 -2.0256  0.9819
    8MOL   H105 2359   1.494   4.118   4.225 -0.6871  1.7609  0.7963
    8MOL   H106 2360   1.620   4.166   4.129  0.2986 -0.2905  0.1563
    8MOL   H107 2361   1.574   4.252   4.287 -1.0044  0.9839 -1.2159
    8MOL   H108 2362   1.857   4.071   4.447  2.8480  1.9441  0.3269
    8MOL   H109 2363   1.627   4.113   4.598 -0.4448 -0.1634  1.2048
    8MOL   H110 2364   1.663   4.248   4.703 -2.0134 -0.4295 -0.3275
    8MOL   H111 2365   1.786   4.123   4.676  0.4539  0.5397  1.3638
    8MOL   H112 2366   1.781   4.417   4.378  0.3643 -0.8210 -0.7786
    8MOL   H113 2367   1.702   4.432   4.550 -0.7709  0.1009 -0.8258
    8MOL   C114 2368   1.918   4.203   4.294 -0.1269 -0.3243  0.0885
    8MOL   C115 2369   1.876   4.241   4.150  0.3101  0.0683 -0.2175
    8MOL   C116 2370   2.063   4.133   4.301 -0.3931  0.3315 -0.2991
    8MOL   C117 2371   2.108   4.099   4.446  0.5016 -0.3966 -0.3286
    8MOL   C118 2372   2.090   4.210   4.551  0.0565  0.6005 -0.4639
    8MOL   C119 2373   2.166   3.984   4.469  0.4659 -0.3460  0.0636
    8MOL   H120 2374   1.947   4.299   4.338 -1.7790  0.4119 -0.3654
    8MOL   H121 2375   1.962   4.273   4.092  1.0984 -2.0487 -0.2374
    8MOL   H122 2376   1.792   4.310   4.136  0.8752  0.8423  0.1767
    8MOL   H123 2377   1.847   4.154   4.091  1.1274 -1.9191  2.2156
    8MOL   H124 2378   2.057   4.029   4.267  0.1246  0.4652 -0.8008
    8MOL   H125 2379   2.106   4.309   4.509  0.3607  0.1518 -1.4264
    8MOL   H126 2380   2.169   4.191   4.624  0.3161  0.0552 -0.8756
    8MOL   H127 2381   1.991   4.202   4.597  0.5173 -0.2977  0.4061
    8MOL   H128 2382   2.178   3.902   4.399  0.8273 -1.2035  1.1082
    8MOL   H129 2383   2.206   3.962   4.567  3.5707  0.9341 -0.8503
    8MOL   C130 2384   2.180   4.195   4.219  0.0496 -0.3972 -0.4015
    8MOL   C131 2385   2.185   4.355   4.222 -0.0782  0.3555  0.3410
    8MOL   C132 2386   2.200   4.122   4.080 -0.3942  0.0116  0.1344
    8MOL   C133 2387   2.248   3.974   4.090  0.4273 -0.3573  0.3385
    8MOL   C134 2388   2.176   3.888   3.992  0.6465 -0.4469 -0.0839
    8MOL   C135 2389   2.345   3.927   4.167  0.1795 -0.3002 -0.0934
    8MOL   H136 2390   2.273   4.165   4.268 -1.0861 -2.8616  0.2828
    8MOL   H137 2391   2.272   4.391   4.167 -0.2933  0.9906  0.4243
    8MOL   H138 2392   2.187   4.405   4.319  1.1756  3.2441 -1.1199
    8MOL   H139 2393   2.096   4.394   4.173  0.2654 -0.1849 -0.7291
    8MOL   H140 2394   2.099   4.117   4.039  0.3167 -0.0335 -1.6496
    8MOL   H141 2395   2.217   3.912   3.894 -0.6625 -0.8776 -0.7421
    8MOL   H142 2396   2.070   3.909   3.987  0.4508 -1.0227  1.4356
    8MOL   H143 2397   2.212   3.785   4.003  1.2199 -0.2086  0.3169
    8MOL   H144 2398   2.401   3.987   4.238 -1.4859  1.7547 -0.4559
    8MOL   H145 2399   2.369   3.822   4.168 -1.7345 -0.7559  0.8086
    8MOL   C146 2400   2.292   4.196   3.971 -0.2012 -0.4776  0.0297
    8MOL   C147 2401   2.433   4.228   4.025  0.2043 -0.3515  0.1492
    8MOL   C148 2402   2.221   4.323   3.892  0.1689  0.4998 -0.7182
    8MOL   C149 2403   2.075   4.292   3.839  0.3442 -0.5087 -0.8290
    8MOL   C150 2404   1.967   4.400   3.852  0.2708  0.1122  0.2336
    8MOL   C151 2405   2.041   4.176   3.791  0.3766  0.0296 -0.4287
    8MOL   H152 2406   2.303   4.126   3.889 -0.6172  0.1452 -0.5694
    8MOL   H153 2407   2.488   4.138   4.053  1.0745  0.2621  0.4328
    8MOL   H154 2408   2.447   4.320   4.081  0.8141 -0.9922  1.0777
    8MOL   H155 2409   2.504   4.250   3.945 -0.0870 -0.1746 -0.0596
    8MOL   H156 2410   2.193   4.401   3.963  0.7136  0.6934 -0.7098
    8MOL   H157 2411   1.993   4.472   3.775  0.6368 -1.0826 -0.7731
    8MOL   H158 2412   1.955   4.451   3.948 -0.2172  0.2199  0.1155
    8MOL   H159 2413   1.865   4.365   3.835  0.1156  0.7830 -0.2506
    8MOL   H160 2414   2.116   4.098   3.785  1.2019  0.8479 -0.7793
    8MOL   H161 2415   1.942   4.157   3.751  0.0712  2.2869 -0.8155
    8MOL   C162 2416   2.312   4.386   3.773 -0.0434 -0.4304 -0.4614
    8MOL   C163 2417   2.366   4.270   3.690 -0.1754 -0.9399  0.5732
    8MOL   C164 2418   2.411   4.503   3.810 -0.3709  0.2128 -0.1502
    8MOL   C165 2419   2.386   4.574   3.943 -0.4189 -0.3564 -0.0674
    8MOL   C166 2420   2.253   4.641   3.957  0.5841 -0.7001 -0.0853
    8MOL   C167 2421   2.485   4.584   4.028  0.2991 -1.2510  0.3428
    8MOL   H168 2422   2.243   4.437   3.706 -1.3855 -1.1796  0.3414
    8MOL   H169 2423   2.429   4.205   3.750  0.4823 -0.7514  0.0926
    8MOL   H170 2424   2.423   4.300   3.602 -3.5534  0.8782 -1.0956
    8MOL   H171 2425   2.280   4.209   3.663 -1.1544  0.6982 -0.1150
    8MOL   H172 2426   2.505   4.458   3.838 -1.7779 -1.3303  2.2409
    8MOL   H173 2427   2.217   4.641   4.060  0.6287  1.3137 -0.0567
    8MOL   H174 2428   2.180   4.602   3.886  1.2774  1.2654 -1.9433
    8MOL   H175 2429   2.270   4.746   3.935 -2.2007 -0.1856  0.0390
    8MOL   H176 2430   2.584   4.543   4.012  0.2723 -0.8284 -0.9619
    8MOL   H177 2431   2.477   4.636   4.123  0.3322  0.5425 -0.6068
    8MOL   C178 2432   2.432   4.604   3.691 -0.4560  0.3890 -0.6284
    8MOL   C179 2433   2.407   4.567   3.540 -0.3668 -0.8226  0.0586
    8MOL   C180 2434   2.570   4.689   3.696  1.1465 -0.6494 -0.0256
    8MOL   C181 2435   2.544   4.833   3.646  0.3099  0.9866 -0.3910
    8MOL   C182 2436   2.490   4.925   3.753 -0.2460 -0.0126  0.2458
    8MOL   C183 2437   2.581   4.876   3.520  0.1821 -0.6026 -0.3070
    8MOL   H184 2438   2.349   4.673   3.710 -0.5615  0.1271 -0.1431
    8MOL   H185 2439   2.490   4.509   3.499  0.6824  0.8329 -0.1939
    8MOL   H186 2440   2.408   4.653   3.473  2.4193 -0.6524  0.2405
    8MOL   H187 2441   2.316   4.508   3.531 -0.4646 -0.4913 -1.2329
    8MOL   H188 2442   2.575   4.702   3.804  0.5655 -0.8190  0.0205
    8MOL   H189 2443   2.573   4.920   3.824 -0.8354  0.6552  0.9873
    8MOL   H190 2444   2.406   4.886   3.810 -0.5787  0.1619 -0.1258
    8MOL   H191 2445   2.481   5.026   3.713  2.2896 -0.9082 -2.7704
    8MOL   H192 2446   2.623   4.806   3.449  1.5712 -2.7650  2.5483
    8MOL   H193 2447   2.564   4.982   3.506  1.9039 -0.5027 -1.9131
    8MOL   C194 2448   2.697   4.621   3.638 -0.8422  0.7407  0.0782
    8MOL   C195 2449   2.721   4.475   3.688 -0.2256  0.3856  0.1203
    8MOL   C196 2450   2.831   4.704   3.650  0.0795  0.2610 -0.0160
    8MOL   C197 2451   2.892   4.724   3.511 -0.7114 -0.1062 -0.5433
    8MOL   C198 2452   2.945   4.597   3.451 -0.2752 -0.4680  0.4928
    8MOL   C199 2453   2.892   4.838   3.449  0.4706 -0.5100 -0.4035
    8MOL   H200 2454   2.677   4.610   3.532  1.0052 -0.1369 -0.2049
    8MOL   H201 2455   2.801   4.433   3.627 -2.2022  1.0394 -3.0447
    8MOL   H202 2456   2.630   4.420   3.660  1.4519 -1.2294 -2.3435
    8MOL   H203 2457   2.745   4.453   3.792  1.1543 -0.1213 -0.2924
    8MOL   H204 2458   2.799   4.804   3.680 -0.0194  0.6659 -1.4603
    8MOL   H205 2459   2.986   4.527   3.524  1.3207  0.6002  0.6353
    8MOL   H206 2460   3.018   4.625   3.375 -1.0011  0.2411  0.0486
    8MOL   H207 2461   2.867   4.537   3.405  0.2278 -1.2782  0.6735
    8MOL   H208 2462   2.860   4.929   3.498 -1.4680 -1.3492 -0.1004
    8MOL   H209 2463   2.939   4.848   3.352  2.4338  1.4662  0.6824
    8MOL   C210 2464   2.929   4.653   3.763 -0.2581 -0.4350  0.0780
    8MOL   C211 2465   2.866   4.677   3.905 -0.0291 -0.2792  0.7014
    8MOL   C212 2466   3.085   4.690   3.760  0.6797 -0.5856  0.7942
    8MOL   C213 2467   3.162   4.579   3.840  0.4219  0.7190 -0.1237
    8MOL   C214 2468   3.206   4.464   3.746  0.0275 -0.2303  0.3503
    8MOL   C215 2469   3.204   4.585   3.968 -0.1055  0.5433 -0.6776
    8MOL   H216 2470   2.936   4.545   3.749 -0.2968 -0.5949  1.2764
    8MOL   H217 2471   2.876   4.784   3.921  0.1548 -0.4851  2.0054
    8MOL   H218 2472   2.925   4.614   3.971  2.4223 -1.0688 -2.0778
    8MOL   H219 2473   2.763   4.648   3.921 -0.7718  0.5329 -2.1626
    8MOL   H220 2474   3.108   4.679   3.654  1.0314 -1.1102  0.9223
    8MOL   H221 2475   3.280   4.395   3.787 -0.8669 -1.3813  0.0423
    8MOL   H222 2476   3.244   4.481   3.645 -0.7591 -0.2354  0.0560
    8MOL   H223 2477   3.113   4.408   3.741  0.9574 -1.8265  0.5955
    8MOL   H224 2478   3.182   4.675   4.024 -3.1230  0.0064 -0.8933
    8MOL   H225 2479   3.253   4.504   4.021 -1.6227 -0.6040 -0.9708
    8MOL   C226 2480   3.126   4.835   3.804 -0.6218 -0.1550  0.3578
    8MOL   C227 2481   3.039   4.947   3.741 -0.3443 -0.0463  0.6506
    8MOL   C228 2482   3.280   4.859   3.783 -0.0828 -0.9013 -0.1188
    8MOL   C229 2483   3.345   4.929   3.910  0.5201  0.1645 -0.3836
    8MOL   C230 2484   3.311   5.069   3.943  0.6409 -0.0507  0.4199
    8MOL   C231 2485   3.437   4.862   3.982 -0.3820  0.0063  0.3282
    8MOL   H232 2486   3.108   4.829   3.911  2.4010 -0.7953  0.8551
    8MOL   H233 2487   3.082   5.041   3.777  1.8622 -0.0973 -1.7026
    8MOL   H234 2488   2.937   4.950   3.779  0.2704  1.6689  2.2636
    8MOL   H235 2489   3.037   4.957   3.633  2.0805 -0.2587  0.5487
    8MOL   H236 2490   3.332   4.763   3.786  2.6130  0.4413 -1.5698
    8MOL   H237 2491   3.388   5.133   3.988  0.1704  0.5093  0.4286
    8MOL   H238 2492   3.242   5.073   4.028  1.4985  1.3618  1.0719
    8MOL   H239 2493   3.264   5.118   3.858 -1.3321 -2.3513  0.1419
    8MOL   H240 2494   3.467   4.760   3.964 -1.4727 -0.0675 -1.2276
    8MOL   H241 2495   3.483   4.913   4.065 -0.6957  1.2421 -0.2340
    8MOL   C242 2496   3.335   4.909   3.647  0.8624  0.3284  0.0074
    8MOL   C243 2497   3.274   4.846   3.520  0.0820 -0.1045  0.2313
    8MOL   C244 2498   3.486   4.920   3.643  0.3073 -0.1800 -0.6017
    8MOL   C245 2499   3.521   5.050   3.572  0.2030 -0.2355 -0.3776
    8MOL   C246 2500   3.521   5.049   3.414 -0.8655  0.5479 -0.5016
    8MOL   C247 2501   3.530   5.167   3.634  0.2932 -0.6425 -0.6578
    8MOL   H248 2502   3.293   5.009   3.639  2.4573  1.0528  0.4119
    8MOL   H249 2503   3.166   4.834   3.516  0.3365 -2.3416 -0.9440
    8MOL   H250 2504   3.307   4.747   3.486 -1.5466  0.0393 -1.8780
    8MOL   H251 2505   3.296   4.904   3.430 -1.6136 -2.1236 -1.5435
    8MOL   H252 2506   3.523   4.933   3.744  0.1605 -0.9565 -0.4433
    8MOL   H253 2507   3.591   5.127   3.382 -1.5543  1.2201 -0.3874
    8MOL   H254 2508   3.427   5.078   3.366 -0.8042 -1.2970 -1.7665
    8MOL   H255 2509   3.551   4.955   3.368 -0.0979 -0.1871  1.4479
    8MOL   H256 2510   3.518   5.172   3.741 -1.9399  2.4888 -0.9969
    8MOL   H257 2511   3.550   5.258   3.580 -0.0283 -0.9035 -1.2145
    8MOL   C258 2512   3.567   4.794   3.587 -0.1366 -0.4481 -0.0463
    8MOL   C259 2513   3.538   4.669   3.673  0.3423  0.4709 -1.2611
    8MOL   C260 2514   3.719   4.825   3.562  0.5771 -0.0339  0.2892
    8MOL   C261 2515   3.760   4.763   3.426 -0.5681  0.1016  0.3900
    8MOL   C262 2516   3.759   4.615   3.419  1.0508  0.8490 -0.2938
    8MOL   C263 2517   3.805   4.836   3.322 -0.0290  0.0569  0.1133
    8MOL   H264 2518   3.525   4.774   3.488  0.0087 -2.7149  0.3245
    8MOL   H265 2519   3.439   4.633   3.646  1.8450 -2.1068 -3.6538
    8MOL   H266 2520   3.555   4.689   3.779  0.5894 -2.8296 -0.6272
    8MOL   H267 2521   3.601   4.582   3.655 -1.3235 -1.3151  1.2385
    8MOL   H268 2522   3.737   4.930   3.539  0.1599  0.3335  1.6159
    8MOL   H269 2523   3.767   4.554   3.509 -0.8175  1.3813  0.2501
    8MOL   H270 2524   3.837   4.578   3.353  1.9265  0.6092  0.8630
    8MOL   H271 2525   3.666   4.580   3.374  1.2221  1.5841 -1.2312
    8MOL   H272 2526   3.796   4.943   3.324 -1.6034 -0.0423 -0.4801
    8MOL   H273 2527   3.840   4.789   3.231 -1.1372  0.7514 -0.6764
    8MOL   C274 2528   3.817   4.789   3.670 -0.1293  0.4619  0.1789
    8MOL   C275 2529   3.788   4.854   3.805  0.5079  0.2415  0.4857
    8MOL   C276 2530   3.965   4.806   3.626  0.0262  0.2895 -0.3985
    8MOL   C277 2531   4.044   4.681   3.661 -0.1579 -0.3324  0.5708
    8MOL   C278 2532   4.081   4.656   3.809  0.0671 -0.6039  0.0023
    8MOL   C279 2533   4.103   4.595   3.577 -0.2392 -0.0262  0.0045
    8MOL   H280 2534   3.802   4.683   3.688  0.3633  0.1480 -1.1676
    8MOL   H281 2535   3.785   4.961   3.786 -0.1775 -0.1617 -1.8153
    8MOL   H282 2536   3.868   4.837   3.877  1.1780 -0.1888 -0.3418
    8MOL   H283 2537   3.697   4.826   3.856 -0.7213  0.5146 -1.5001
    8MOL   H284 2538   3.977   4.810   3.517 -1.2060  1.5492 -0.5066
    8MOL   H285 2539   3.999   4.603   3.858  0.9877 -2.1477 -0.1224
    8MOL   H286 2540   4.089   4.755   3.854 -1.7598 -0.9538  1.1440
    8MOL   H287 2541   4.177   4.606   3.819 -0.5289 -1.6040  0.8655
    8MOL   H288 2542   4.085   4.613   3.473  0.9835  2.9015  0.2703
    8MOL   H289 2543   4.164   4.509   3.598  0.7083  0.7009  0.2657
    8MOL   C290 2544   4.049   4.934   3.666 -0.4790  0.2466 -0.4028
    8MOL   C291 2545   3.989   5.068   3.616 -0.9011  0.0519  0.1141
    8MOL   C292 2546   4.211   4.914   3.639 -0.0432  0.1741  0.2607
    8MOL   C293 2547   4.295   4.960   3.765 -0.0945 -0.3437 -0.2499
    8MOL   C294 2548   4.296   5.112   3.804 -0.2191 -0.4441  0.5712
    8MOL   C295 2549   4.366   4.874   3.835  0.6487 -0.0557  0.2413
    8MOL   H296 2550   4.029   4.946   3.773 -0.2998 -0.7666 -0.2538
    8MOL   H297 2551   4.045   5.159   3.637  0.9436 -1.3713  1.5518
    8MOL   H298 2552   3.898   5.097   3.669 -0.1921  1.9036  0.3467
    8MOL   H299 2553   3.958   5.070   3.511  0.9606  0.6521 -0.4346
    8MOL   H300 2554   4.233   4.811   3.614  1.8809 -0.0902  2.7428
    8MOL   H301 2555   4.331   5.139   3.904  1.6859  0.5185 -0.3318
    8MOL   H302 2556   4.198   5.160   3.811  0.8588  1.8309  0.4524
    8MOL   H303 2557   4.359   5.159   3.730 -1.3201  1.6924  0.9581
    8MOL   H304 2558   4.375   4.769   3.811 -0.1206 -0.4495  1.5627
    8MOL   H305 2559   4.414   4.907   3.926  0.2490 -1.2212  0.8912
    8MOL   C306 2560   4.269   4.989   3.514  0.4870  0.6258 -0.8771
    8MOL   C307 2561   4.201   4.940   3.388  0.5289  0.5276 -0.3438
    8MOL   C308 2562   4.428   4.971   3.494 -0.4363  0.4038  0.2305
    8MOL   C309 2563   4.501   5.061   3.396  0.5501 -0.1443  0.5742
    8MOL   C310 2564   4.527   5.196   3.456  1.1051  0.3243  0.3707
    8MOL   C311 2565   4.561   5.022   3.278 -0.0936  0.0676  0.1326
    8MOL   H312 2566   4.237   5.093   3.523 -1.8186 -0.0798 -0.5591
    8MOL   H313 2567   4.229   4.839   3.360 -2.7413 -0.9289  1.4843
    8MOL   H314 2568   4.238   4.998   3.303 -0.4429  2.6942  0.6744
    8MOL   H315 2569   4.093   4.948   3.386  0.4272 -0.8983 -0.6883
    8MOL   H316 2570   4.488   4.967   3.586 -0.6467 -2.0428  0.2920
    8MOL   H317 2571   4.606   5.200   3.531 -0.8922 -0.1249  2.5336
    8MOL   H318 2572   4.432   5.231   3.495  1.3873 -0.7951  2.1191
    8MOL   H319 2573   4.556   5.264   3.376  2.3363  0.2620  0.7596
    8MOL   H320 2574   4.545   4.919   3.249  1.0307 -0.2683  0.6433
    8MOL   H321 2575   4.624   5.085   3.217 -1.2938  1.7611  0.6282
    8MOL   H322 2576   4.440   4.869   3.459 -1.5587 -0.1709  1.4604
    9MOL     C1 2577   3.965   4.791   5.599  0.2313  0.4173  0.8788
    9MOL     C2 2578   3.851   4.789   5.503 -0.0688  0.5122 -0.2348
    9MOL     C3 2579   3.942   4.708   5.730  0.1343  0.3920  0.3429
    9MOL     C4 2580   3.819   4.754   5.811 -0.3968 -0.1509  0.1901
    9MOL     C5 2581   3.743   4.637   5.867  0.0598 -0.2736  0.3287
    9MOL     C6 2582   3.786   4.884   5.822 -0.4532 -0.4095 -0.1096
    9MOL     H7 2583   4.057   4.768   5.546 -1.6973 -2.3893 -1.3418
    9MOL     H8 2584   3.771   4.854   5.538 -1.9211 -0.8010 -1.9017
    9MOL     H9 2585   3.817   4.688   5.478  2.0555 -0.1476 -0.5373
    9MOL    H10 2586   3.874   4.840   5.409 -0.3911  1.4619  0.2045
    9MOL    H11 2587   3.908   4.615   5.684 -0.6602  1.5175 -1.4060
    9MOL    H12 2588   3.663   4.667   5.936 -0.9401  0.8671 -1.2946
    9MOL    H13 2589   3.802   4.565   5.924 -0.3962 -0.0221  1.1279
    9MOL    H14 2590   3.704   4.578   5.784 -1.6294 -0.5326  1.2728
    9MOL    H15 2591   3.855   4.961   5.790  1.2015 -1.4638  0.8076
    9MOL    H16 2592   3.693   4.908   5.870 -0.1915 -0.1152  0.2598
    9MOL    H17 2593   3.981   4.894   5.633  0.0104  0.4005  1.0305
    9MOL    C18 2594   4.064   4.678   5.821 -0.4127  0.0928 -0.5990
    9MOL    C19 2595   4.098   4.816   5.893  0.4425  0.4312 -0.1283
    9MOL    C20 2596   4.187   4.614   5.744 -0.2619  1.2216  0.1226
    9MOL    C21 2597   4.143   4.502   5.657  0.2431  0.0685 -0.2355
    9MOL    C22 2598   4.091   4.381   5.728 -0.2710 -0.6639  0.5294
    9MOL    C23 2599   4.153   4.496   5.526 -0.4973  0.3498 -0.2662
    9MOL    H24 2600   4.032   4.613   5.902  0.5214  1.0187  0.5403
    9MOL    H25 2601   4.176   4.808   5.969 -1.1924 -0.8207  1.4397
    9MOL    H26 2602   4.013   4.835   5.959  0.8932  0.0670  0.5675
    9MOL    H27 2603   4.109   4.899   5.823  2.3076  1.7724  1.6946
    9MOL    H28 2604   4.210   4.698   5.678  2.1344 -0.8861 -1.8239
    9MOL    H29 2605   4.156   4.331   5.800  1.0375  0.4728  0.1690
    9MOL    H30 2606   4.065   4.296   5.664 -1.4605  0.9362 -1.1467
    9MOL    H31 2607   4.006   4.407   5.791  0.6350  1.3370  0.9658
    9MOL    H32 2608   4.191   4.574   5.462 -1.8975 -0.3408 -2.0092
    9MOL    H33 2609   4.126   4.402   5.479 -0.1032 -0.7844  1.7351
    9MOL    C34 2610   4.327   4.581   5.818  0.0273  0.1288  0.6156
    9MOL    C35 2611   4.295   4.523   5.961  0.0951  0.5335 -0.2500
    9MOL    C36 2612   4.430   4.700   5.811  0.1912  0.2160 -0.1269
    9MOL    C37 2613   4.436   4.771   5.670  0.4264  0.0156  0.5235
    9MOL    C38 2614   4.494   4.691   5.560 -0.5451 -0.1763  0.1109
    9MOL    C39 2615   4.396   4.903   5.657  1.1318  0.2307  0.5189
    9MOL    H40 2616   4.368   4.494   5.766 -0.7421 -0.5189  1.0826
    9MOL    H41 2617   4.385   4.473   5.997  0.2139 -0.3008 -1.6762
    9MOL    H42 2618   4.204   4.463   5.965 -0.0352  0.6181 -1.7264
    9MOL    H43 2619   4.269   4.605   6.028  2.7490  0.1012  1.3922
    9MOL    H44 2620   4.381   4.771   5.878 -0.3832  0.0581 -0.3695
    9MOL    H45 2621   4.441   4.709   5.467 -0.7003  0.8525  0.4007
    9MOL    H46 2622   4.476   4.584   5.577 -0.7395 -0.0658  0.6218
    9MOL    H47 2623   4.603   4.693   5.555 -0.4225 -2.4421  1.0572
    9MOL    H48 2624   4.365   4.954   5.747 -0.7959 -0.2395  0.1494
    9MOL    H49 2625   4.394   4.957   5.563  2.3505 -0.3275  0.1625
    9MOL    C50 2626   4.579   4.679   5.856  0.4385  0.2615 -0.4566
    9MOL    C51 2627   4.633   4.542   5.818  0.1928  0.4246  0.1436
    9MOL    C52 2628   4.607   4.717   6.010 -0.3208  0.0006 -0.0493
    9MOL    C53 2629   4.576   4.863   6.043 -1.1493  0.0262  0.1584
    9MOL    C54 2630   4.514   4.884   6.181 -0.4697 -0.2304 -0.0341
    9MOL    C55 2631   4.612   4.972   5.965 -0.4854 -0.2817  0.4388
    9MOL    H56 2632   4.639   4.751   5.799 -0.1003  1.0781  0.0007
    9MOL    H57 2633   4.614   4.524   5.712 -2.4956 -0.6722  0.7558
    9MOL    H58 2634   4.582   4.461   5.871  0.9228  0.4509  0.9091
    9MOL    H59 2635   4.739   4.528   5.837 -0.6263 -2.7427  2.8595
    9MOL    H60 2636   4.533   4.667   6.072  0.3263 -1.4384 -0.3945
    9MOL    H61 2637   4.485   4.988   6.191 -0.8081 -0.3281  0.0019
    9MOL    H62 2638   4.593   4.853   6.250  0.6413  0.1214 -1.1301
    9MOL    H63 2639   4.426   4.820   6.186 -0.1454 -0.7545 -0.8742
    9MOL    H64 2640   4.663   4.967   5.870 -0.1671  0.4736  0.5705
    9MOL    H65 2641   4.583   5.068   6.004 -2.0134 -0.5099 -0.1041
    9MOL    C66 2642   4.748   4.685   6.080  0.3875 -0.0340 -0.1388
    9MOL    C67 2643   4.866   4.739   5.993  1.2307 -0.0024 -0.4513
    9MOL    C68 2644   4.769   4.529   6.128  0.1749  0.5632  0.2348
    9MOL    C69 2645   4.645   4.461   6.192  0.4781 -0.4535  0.0937
    9MOL    C70 2646   4.632   4.311   6.168 -0.2002 -0.0257  0.0341
    9MOL    C71 2647   4.547   4.517   6.265 -0.2607 -0.2912 -0.2858
    9MOL    H72 2648   4.738   4.739   6.174  2.8598 -0.2067  0.2566
    9MOL    H73 2649   4.880   4.670   5.911  0.4000 -0.8288  0.0919
    9MOL    H74 2650   4.962   4.741   6.045  2.4092  0.5664 -2.6032
    9MOL    H75 2651   4.852   4.835   5.943  1.5499  1.5377  2.2937
    9MOL    H76 2652   4.759   4.475   6.034  1.8652 -0.5668  0.6799
    9MOL    H77 2653   4.658   4.283   6.066 -0.9686  0.7292 -0.3729
    9MOL    H78 2654   4.535   4.264   6.188  0.0410 -0.8032 -0.6012
    9MOL    H79 2655   4.704   4.258   6.231  1.1146  0.9482 -0.6431
    9MOL    H80 2656   4.541   4.621   6.292  0.5606 -0.4230  0.3972
    9MOL    H81 2657   4.473   4.447   6.302  0.8454 -1.9341 -1.1361
    9MOL    C82 2658   4.910   4.493   6.195  0.4707  0.2386  0.0038
    9MOL    C83 2659   4.957   4.354   6.147  0.5976  0.1955 -0.5911
    9MOL    C84 2660   4.910   4.501   6.350 -0.5024  1.1651  0.3466
    9MOL    C85 2661   4.855   4.626   6.412 -0.6330 -0.3679  0.6826
    9MOL    C86 2662   4.937   4.753   6.392  0.4536  0.4064 -0.0825
    9MOL    C87 2663   4.743   4.628   6.490  0.0938  0.4128 -0.1972
    9MOL    H88 2664   4.981   4.568   6.161 -0.0642  1.1212  0.7923
    9MOL    H89 2665   5.065   4.356   6.138  0.6111  1.0435 -0.2491
    9MOL    H90 2666   4.916   4.308   6.056 -2.3334  1.6997 -0.0861
    9MOL    H91 2667   4.922   4.280   6.218  1.8634  0.7134  0.5883
    9MOL    H92 2668   4.835   4.426   6.376  0.2292  1.2915  2.9446
    9MOL    H93 2669   4.876   4.840   6.416  1.6505  1.5479 -1.1129
    9MOL    H94 2670   4.948   4.757   6.284  0.0872  0.6507 -0.1094
    9MOL    H95 2671   5.031   4.747   6.446  0.8823  0.1524 -0.8489
    9MOL    H96 2672   4.689   4.538   6.517 -0.3401  0.7858  0.2061
    9MOL    H97 2673   4.710   4.713   6.548  1.6843 -0.2829  1.7643
    9MOL    C98 2674   5.047   4.456   6.425  0.4396 -0.5661 -0.0518
    9MOL    C99 2675   5.173   4.511   6.368 -0.1501  0.2327  1.4953
    9MOL   C100 2676   5.068   4.305   6.476 -0.1813  0.0915  0.0698
    9MOL   C101 2677   4.935   4.251   6.544 -0.4749  0.5092  0.5631
    9MOL   C102 2678   4.890   4.111   6.503  0.0102 -0.7610  0.0805
    9MOL   C103 2679   4.857   4.321   6.622  0.0575  0.0808  0.0445
    9MOL   H104 2680   5.036   4.511   6.519 -2.6219  0.8220 -1.1429
    9MOL   H105 2681   5.255   4.534   6.436  1.7193 -0.9329 -0.3001
    9MOL   H106 2682   5.153   4.604   6.314 -0.4727  1.1419  3.1567
    9MOL   H107 2683   5.230   4.450   6.298 -0.1513  1.1601  0.6573
    9MOL   H108 2684   5.071   4.246   6.384 -0.8126 -0.5323  0.4458
    9MOL   H109 2685   4.965   4.033   6.514 -0.0980 -0.5961  2.4191
    9MOL   H110 2686   4.850   4.111   6.402  1.5831 -0.3854 -0.5514
    9MOL   H111 2687   4.813   4.071   6.569 -1.0984 -1.3787 -1.5702
    9MOL   H112 2688   4.880   4.422   6.654 -0.9049  0.7450 -1.3183
    9MOL   H113 2689   4.764   4.277   6.654  1.5719 -2.6843  0.8614
    9MOL   C114 2690   5.191   4.273   6.568 -0.3822 -0.0643  0.3394
    9MOL   C115 2691   5.214   4.358   6.697 -0.7012 -0.0694 -0.1746
    9MOL   C116 2692   5.322   4.231   6.498 -0.8026  0.3160  0.0952
    9MOL   C117 2693   5.300   4.120   6.388  0.3936 -0.1615 -0.6163
    9MOL   C118 2694   5.328   4.158   6.245  0.6668  0.1796  0.0781
    9MOL   C119 2695   5.251   3.996   6.409 -0.2011  0.5535  0.2504
    9MOL   H120 2696   5.164   4.183   6.621 -1.0451  0.1029  0.2865
    9MOL   H121 2697   5.260   4.299   6.777  1.3729  1.2885 -0.3503
    9MOL   H122 2698   5.122   4.403   6.735  0.1130  1.1192  0.3783
    9MOL   H123 2699   5.273   4.447   6.676 -0.5194  0.0985  0.9880
    9MOL   H124 2700   5.349   4.323   6.446  0.8957 -0.2265 -0.0282
    9MOL   H125 2701   5.362   4.261   6.233 -2.6010  1.2765 -0.0180
    9MOL   H126 2702   5.238   4.141   6.186  0.4584 -3.8954  1.3699
    9MOL   H127 2703   5.404   4.087   6.211  0.6559  0.4027 -0.4028
    9MOL   H128 2704   5.216   3.966   6.507  0.0995  0.3363  0.2899
    9MOL   H129 2705   5.241   3.930   6.325 -2.1975  0.4237  0.5536
    9MOL   C130 2706   5.449   4.197   6.586 -0.2132  0.3665 -0.7247
    9MOL   C131 2707   5.428   4.077   6.680 -0.2035  0.3411 -0.9456
    9MOL   C132 2708   5.539   4.316   6.642  0.1084  0.0528  0.5828
    9MOL   C133 2709   5.561   4.422   6.531  0.7557 -0.2768 -0.7692
    9MOL   C134 2710   5.563   4.560   6.586  0.2860 -0.4985 -0.6325
    9MOL   C135 2711   5.585   4.398   6.399  0.1107  0.4149  0.3604
    9MOL   H136 2712   5.516   4.150   6.514  0.7606 -2.3565  1.8803
    9MOL   H137 2713   5.413   4.107   6.784  0.5695 -1.1303 -0.3755
    9MOL   H138 2714   5.520   4.017   6.687  0.3829  1.5018  2.1642
    9MOL   H139 2715   5.351   4.005   6.654 -0.4117  0.6085 -1.0598
    9MOL   H140 2716   5.478   4.372   6.712 -1.8013 -0.8817 -0.3104
    9MOL   H141 2717   5.588   4.638   6.515 -1.4197  1.3327  0.7340
    9MOL   H142 2718   5.651   4.558   6.650 -0.2055 -2.4264  0.0285
    9MOL   H143 2719   5.477   4.591   6.645 -0.1467 -1.1987 -0.8861
    9MOL   H144 2720   5.586   4.296   6.366  0.1872 -0.1936  2.1752
    9MOL   H145 2721   5.596   4.484   6.335 -3.2018  0.0715 -0.7697
    9MOL   C146 2722   5.677   4.285   6.709 -0.2853  0.0931 -0.4290
    9MOL   C147 2723   5.757   4.186   6.618  0.1139 -0.3440  0.0135
    9MOL   C148 2724   5.672   4.244   6.860  0.2021  0.1944 -0.2756
    9MOL   C149 2725   5.577   4.329   6.947 -0.0769  0.4690 -0.4738
    9MOL   C150 2726   5.493   4.246   7.046  0.0234 -0.2313  0.3048
    9MOL   C151 2727   5.557   4.457   6.940 -0.9892 -0.7718 -0.3288
    9MOL   H152 2728   5.735   4.377   6.704  1.2028 -0.7897 -0.0177
    9MOL   H153 2729   5.743   4.217   6.515 -1.4010  0.2639  0.3839
    9MOL   H154 2730   5.742   4.080   6.639 -1.5597  0.4313  3.2388
    9MOL   H155 2731   5.864   4.193   6.635  0.1720 -0.6388 -0.2288
    9MOL   H156 2732   5.619   4.149   6.852  0.5895  0.0427 -1.1069
    9MOL   H157 2733   5.551   4.219   7.134  3.4074  1.1740 -1.3944
    9MOL   H158 2734   5.465   4.154   6.995  1.7600  0.4876 -2.0486
    9MOL   H159 2735   5.404   4.294   7.085  0.0013  1.2168 -1.4620
    9MOL   H160 2736   5.616   4.520   6.873 -0.5661 -0.5368  0.2636
    9MOL   H161 2737   5.474   4.507   6.988 -1.3801 -0.4488 -1.3214
    9MOL   C162 2738   5.810   4.234   6.940  0.2580  0.0819 -0.1759
    9MOL   C163 2739   5.896   4.351   6.897  0.3367  0.2971 -0.1905
    9MOL   C164 2740   5.882   4.099   6.920  0.8907  0.4081  0.0768
    9MOL   C165 2741   5.797   3.977   6.961 -0.4699 -0.2041 -0.5859
    9MOL   C166 2742   5.816   3.849   6.882 -0.3128 -0.6869  0.6984
    9MOL   C167 2743   5.707   3.973   7.063  0.1928 -0.3780 -0.1413
    9MOL   H168 2744   5.786   4.256   7.044  1.8934  0.4141  0.1434
    9MOL   H169 2745   5.838   4.438   6.867  1.7925  0.3253 -3.1819
    9MOL   H170 2746   5.951   4.330   6.805  0.1855  0.7290 -0.3796
    9MOL   H171 2747   5.970   4.386   6.970  1.1319  0.2587 -0.9713
    9MOL   H172 2748   5.891   4.088   6.812  0.9345 -0.4029  0.1577
    9MOL   H173 2749   5.919   3.811   6.879 -0.0684 -0.2059  2.7439
    9MOL   H174 2750   5.794   3.872   6.777  1.8909  1.8721  0.7423
    9MOL   H175 2751   5.742   3.776   6.913 -2.0387  0.5527 -0.4325
    9MOL   H176 2752   5.679   4.056   7.126 -1.5764 -0.8393 -0.3012
    9MOL   H177 2753   5.657   3.878   7.076 -2.1392  0.7592 -0.5213
    9MOL   C178 2754   6.027   4.093   6.981  0.1459  0.0574 -0.1504
    9MOL   C179 2755   6.018   4.120   7.137  0.7047 -0.3243 -0.0323
    9MOL   C180 2756   6.153   4.165   6.914 -0.5354  0.3052  0.4338
    9MOL   C181 2757   6.152   4.175   6.759  0.2537 -0.0776 -0.7110
    9MOL   C182 2758   6.207   4.299   6.699 -0.1122 -0.5687 -0.1119
    9MOL   C183 2759   6.112   4.084   6.667 -0.7652 -0.6419 -0.0436
    9MOL   H184 2760   6.049   3.987   6.967  1.8564  0.5049 -0.9538
    9MOL   H185 2761   5.988   4.219   7.169 -0.5231 -1.0079  0.9868
    9MOL   H186 2762   6.113   4.107   7.188  0.9647  0.8334 -0.2210
    9MOL   H187 2763   5.958   4.052   7.198 -0.5940  0.6380 -0.2122
    9MOL   H188 2764   6.153   4.262   6.965 -2.5189  0.1618  0.7434
    9MOL   H189 2765   6.315   4.300   6.683 -0.3442 -1.9330 -1.8710
    9MOL   H190 2766   6.193   4.387   6.762  0.6627 -1.2613  1.0458
    9MOL   H191 2767   6.160   4.330   6.606 -0.7211 -1.2741 -0.0421
    9MOL   H192 2768   6.083   3.990   6.712 -0.7230  1.2420  4.2028
    9MOL   H193 2769   6.110   4.093   6.559 -1.6754 -3.5210 -0.3242
    9MOL   C194 2770   6.295   4.103   6.962 -0.3737 -1.3336 -0.1155
    9MOL   C195 2771   6.404   4.208   6.956 -0.6393  0.7244  0.5354
    9MOL   C196 2772   6.334   3.957   6.909 -0.0412  0.4906  0.2206
    9MOL   C197 2773   6.341   3.864   7.029  0.2013 -0.1805  0.4360
    9MOL   C198 2774   6.458   3.883   7.121 -0.1979 -0.6018  0.0626
    9MOL   C199 2775   6.244   3.777   7.046  0.7363 -0.2697 -0.5009
    9MOL   H200 2776   6.286   4.083   7.068 -1.5899  1.1989  0.2922
    9MOL   H201 2777   6.368   4.289   7.019 -1.5131 -0.5321  1.6829
    9MOL   H202 2778   6.439   4.248   6.861 -0.3552 -1.3895 -0.2945
    9MOL   H203 2779   6.501   4.191   7.002 -1.6426  1.8673  3.1438
    9MOL   H204 2780   6.251   3.922   6.847  1.4532  0.4088 -1.7997
    9MOL   H205 2781   6.504   3.792   7.160  1.0493  0.0993  0.2665
    9MOL   H206 2782   6.423   3.937   7.209 -0.8178  2.3600 -1.9075
    9MOL   H207 2783   6.537   3.943   7.075 -0.9924 -0.5748 -1.2865
    9MOL   H208 2784   6.154   3.776   6.985  0.0314 -0.0052  0.5204
    9MOL   H209 2785   6.235   3.708   7.129 -1.1483 -1.1037 -1.3499
    9MOL   C210 2786   6.458   3.949   6.810 -0.1344  0.4291 -0.0613
    9MOL   C211 2787   6.450   4.026   6.681 -1.0905 -0.2032 -0.7283
    9MOL   C212 2788   6.507   3.807   6.777  0.5008 -0.3339  0.4548
    9MOL   C213 2789   6.660   3.813   6.773  0.1065 -0.1248 -0.4066
    9MOL   C214 2790   6.743   3.874   6.663 -0.8506 -0.0421 -0.8043
    9MOL   C215 2791   6.730   3.776   6.882  0.2227 -0.0842  0.0478
    9MOL   H216 2792   6.542   3.984   6.870  0.2357  1.1991 -1.0013
    9MOL   H217 2793   6.353   4.017   6.632 -1.2238  1.4735 -0.7973
    9MOL   H218 2794   6.535   4.007   6.615 -0.8526 -1.2856 -0.1219
    9MOL   H219 2795   6.468   4.133   6.696  0.1314 -0.6969  1.6069
    9MOL   H220 2796   6.487   3.741   6.862 -0.5059 -1.1438 -0.3984
    9MOL   H221 2797   6.706   3.816   6.579 -2.2813  0.1135 -0.2944
    9MOL   H222 2798   6.849   3.852   6.677 -0.9795  0.1045  0.3896
    9MOL   H223 2799   6.730   3.982   6.655 -0.7369  0.0051 -0.3486
    9MOL   H224 2800   6.671   3.749   6.968 -1.6080 -0.4370 -1.2841
    9MOL   H225 2801   6.837   3.785   6.895  0.4558 -1.8891 -0.5486
    9MOL   C226 2802   6.436   3.731   6.660 -0.1562  0.0129  0.6342
    9MOL   C227 2803   6.283   3.722   6.660  0.0707  0.3156 -0.1376
    9MOL   C228 2804   6.503   3.605   6.615 -0.7440  0.5175 -0.9646
    9MOL   C229 2805   6.498   3.603   6.464  0.6404  0.1840 -0.5037
    9MOL   C230 2806   6.608   3.674   6.391 -0.2963  0.7135 -0.8274
    9MOL   C231 2807   6.400   3.546   6.389 -0.3314  0.2258 -0.7502
    9MOL   H232 2808   6.458   3.792   6.573 -1.8948  2.3581  1.7632
    9MOL   H233 2809   6.245   3.824   6.657 -1.2334 -0.0192  2.9931
    9MOL   H234 2810   6.236   3.676   6.747 -0.8334  0.2910 -0.6312
    9MOL   H235 2811   6.244   3.669   6.573  0.8276  1.0147 -0.9089
    9MOL   H236 2812   6.611   3.611   6.628 -0.7302  1.9282 -1.6425
    9MOL   H237 2813   6.596   3.782   6.395 -0.1198  0.6721  1.5376
    9MOL   H238 2814   6.622   3.642   6.288 -1.6314 -2.6457 -0.0250
    9MOL   H239 2815   6.705   3.647   6.434 -0.4819  1.0250 -0.2080
    9MOL   H240 2816   6.315   3.492   6.430 -0.6457  2.3509  1.4604
    9MOL   H241 2817   6.396   3.543   6.281  0.3679 -1.3268 -0.7585
    9MOL   C242 2818   6.465   3.466   6.685 -0.0785  0.3426 -0.1895
    9MOL   C243 2819   6.466   3.472   6.840 -0.6489 -0.2559 -0.2649
    9MOL   C244 2820   6.517   3.329   6.627  0.4021  0.0138  0.4113
    9MOL   C245 2821   6.414   3.219   6.638  0.3077  0.0313 -0.2692
    9MOL   C246 2822   6.315   3.212   6.520 -0.8150 -0.2834 -0.8244
    9MOL   C247 2823   6.413   3.127   6.733  0.6386  0.7295  0.0565
    9MOL   H248 2824   6.360   3.475   6.656 -0.6261  3.3988  2.4219
    9MOL   H249 2825   6.561   3.472   6.893 -1.0142  0.7014  0.3928
    9MOL   H250 2826   6.402   3.392   6.878  1.0934 -0.2694  2.7470
    9MOL   H251 2827   6.404   3.559   6.863  0.2958 -0.3193  2.7661
    9MOL   H252 2828   6.524   3.345   6.519  0.2131 -0.8595  0.2619
    9MOL   H253 2829   6.367   3.214   6.424  0.4530 -1.4996 -0.1862
    9MOL   H254 2830   6.249   3.298   6.528  1.0383  1.2312 -1.2852
    9MOL   H255 2831   6.267   3.115   6.536 -0.5435 -0.3662 -0.5042
    9MOL   H256 2832   6.490   3.134   6.809  0.9774  1.0036 -0.3078
    9MOL   H257 2833   6.350   3.040   6.745 -0.8504  2.3349  4.8765
    9MOL   C258 2834   6.659   3.290   6.677 -0.1276 -0.6422  0.3614
    9MOL   C259 2835   6.766   3.403   6.709 -0.5753 -0.3213 -0.2054
    9MOL   C260 2836   6.725   3.175   6.595 -0.1107  0.0245  0.2154
    9MOL   C261 2837   6.779   3.060   6.684  0.7229 -0.1670  0.0511
    9MOL   C262 2838   6.887   3.099   6.783 -0.2907 -1.3271  0.4502
    9MOL   C263 2839   6.717   2.942   6.696  0.0757  0.2884  0.4916
    9MOL   H264 2840   6.632   3.251   6.776 -0.2172 -1.5923 -0.0347
    9MOL   H265 2841   6.726   3.461   6.792 -2.6007  0.8787 -1.9598
    9MOL   H266 2842   6.799   3.479   6.638  1.2871 -0.6487  0.2995
    9MOL   H267 2843   6.853   3.357   6.756 -0.6570 -1.1629 -0.8502
    9MOL   H268 2844   6.644   3.124   6.544 -0.9823 -0.1687  1.7492
    9MOL   H269 2845   6.862   3.165   6.866 -1.7297 -2.0710  0.6295
    9MOL   H270 2846   6.964   3.146   6.722 -1.7045  0.1536 -0.2448
    9MOL   H271 2847   6.917   3.005   6.828  2.9521  0.0195  1.2655
    9MOL   H272 2848   6.629   2.920   6.638  0.3963  0.6981 -0.1670
    9MOL   H273 2849   6.744   2.867   6.768 -0.0206 -0.2106  0.0066
    9MOL   C274 2850   6.831   3.214   6.486  0.1176 -0.3104  0.3714
    9MOL   C275 2851   6.760   3.312   6.377  1.0749  0.4419  0.2327
    9MOL   C276 2852   6.907   3.106   6.406 -0.0579  0.0643  0.1912
    9MOL   C277 2853   7.051   3.162   6.363 -1.0160  1.2829 -0.6579
    9MOL   C278 2854   7.153   3.151   6.473  0.0062 -0.6292  0.1325
    9MOL   C279 2855   7.082   3.224   6.245  0.1983 -0.4423 -0.1421
    9MOL   H280 2856   6.907   3.271   6.539 -1.6443  1.9550  0.5632
    9MOL   H281 2857   6.836   3.344   6.305 -0.3898 -1.7981 -2.4081
    9MOL   H282 2858   6.708   3.401   6.412 -0.6109 -0.1084 -0.7990
    9MOL   H283 2859   6.691   3.258   6.312  1.0909  0.8202 -0.1008
    9MOL   H284 2860   6.936   3.028   6.476 -0.4525  1.3784  1.8434
    9MOL   H285 2861   7.253   3.185   6.446 -1.1006  4.0541  1.4386
    9MOL   H286 2862   7.140   3.054   6.522 -2.3858  0.9691  2.8517
    9MOL   H287 2863   7.119   3.224   6.547  1.2408 -0.6011  0.6983
    9MOL   H288 2864   7.010   3.220   6.164 -1.7427 -0.2491  1.5544
    9MOL   H289 2865   7.174   3.278   6.232  0.2735 -0.3428  0.7884
    9MOL   C290 2866   6.841   3.031   6.289  1.2808  0.1423 -0.3574
    9MOL   C291 2867   6.701   2.977   6.321 -0.0507  0.0402 -0.0597
    9MOL   C292 2868   6.939   2.914   6.243  0.2236  0.5551  0.3768
    9MOL   C293 2869   6.958   2.914   6.093 -0.2841 -0.2842  0.1700
    9MOL   C294 2870   6.828   2.894   6.017 -0.2457  0.1927  0.1134
    9MOL   C295 2871   7.075   2.928   6.031  0.3893  0.0788  0.1296
    9MOL   H296 2872   6.829   3.102   6.207 -1.6601  0.2230  0.1008
    9MOL   H297 2873   6.623   3.053   6.318 -0.6289 -0.5759 -0.6278
    9MOL   H298 2874   6.704   2.945   6.425  2.2408  0.7111  0.1058
    9MOL   H299 2875   6.680   2.893   6.255 -0.7502 -0.3998  0.7248
    9MOL   H300 2876   7.043   2.932   6.272  1.2536  0.4617 -3.0195
    9MOL   H301 2877   6.766   2.983   6.030 -0.5905  0.1592 -1.2583
    9MOL   H302 2878   6.769   2.806   6.043  0.8613 -0.6972 -0.3577
    9MOL   H303 2879   6.845   2.899   5.910  2.1127  0.2959  0.4787
    9MOL   H304 2880   7.165   2.934   6.090 -0.0160 -2.3728  1.0143
    9MOL   H305 2881   7.088   2.935   5.924  1.3323 -1.4036  0.1330
    9MOL   C306 2882   6.923   2.771   6.308  0.2025  0.2284  0.0107
    9MOL   C307 2883   6.922   2.769   6.469 -0.1460  0.2541 -0.2208
    9MOL   C308 2884   7.018   2.658   6.249  0.6949 -0.3499  0.3017
    9MOL   C309 2885   6.979   2.513   6.296 -0.2275 -0.2523  0.1866
    9MOL   C310 2886   6.854   2.453   6.238 -0.6427 -0.7051  0.3873
    9MOL   C311 2887   7.050   2.448   6.383 -0.3046  0.0654 -0.1889
    9MOL   H312 2888   6.822   2.741   6.280  0.0513 -0.0063  0.7739
    9MOL   H313 2889   7.015   2.796   6.518 -1.9541  1.6764  2.5271
    9MOL   H314 2890   6.902   2.666   6.498  0.0727 -1.0511 -4.3071
    9MOL   H315 2891   6.840   2.825   6.512  0.7781  1.9116 -0.5832
    9MOL   H316 2892   7.044   2.666   6.144  1.4723  1.6835  0.6327
    9MOL   H317 2893   6.760   2.497   6.272 -1.2982 -2.1831  0.5416
    9MOL   H318 2894   6.851   2.347   6.263 -2.6289 -0.8010 -0.1603
    9MOL   H319 2895   6.855   2.461   6.129  1.0112 -0.6698  0.3986
    9MOL   H320 2896   7.143   2.479   6.428  0.3989 -1.9561 -0.2127
    9MOL   H321 2897   7.026   2.345   6.407 -0.4721 -0.2992 -1.8337
    9MOL   H322 2898   7.117   2.669   6.294  0.3633  1.6064  0.6045
   10MOL     C1 2899   4.772   6.587   0.460  0.2869  0.4311 -0.3073
   10MOL     C2 2900   4.867   6.522   0.555 -0.0091  0.0671 -0.0149
   10MOL     C3 2901   4.811   6.562   0.313 -0.2983  0.3722  0.2432
   10MOL     C4 2902   4.934   6.643   0.272 -0.7435 -0.4004 -0.8705
   10MOL     C5 2903   5.010   6.585   0.152  0.0869 -0.1996  0.0223
   10MOL     C6 2904   4.975   6.759   0.334  0.2837  0.5474  0.6337
   10MOL     H7 2905   4.677   6.541   0.488  1.8932 -1.8593  1.5317
   10MOL     H8 2906   4.967   6.553   0.524  0.7966 -1.2881  1.1300
   10MOL     H9 2907   4.865   6.417   0.585  1.4521  0.0997  0.2328
   10MOL    H10 2908   4.847   6.580   0.646  1.4659 -2.0238  1.6948
   10MOL    H11 2909   4.836   6.456   0.308 -0.7657  0.3198 -1.3241
   10MOL    H12 2910   4.961   6.599   0.056  0.7156 -1.0397 -0.4328
   10MOL    H13 2911   4.991   6.477   0.154  0.2229 -0.2594 -1.4406
   10MOL    H14 2912   5.118   6.592   0.146  0.1292 -0.9012 -0.0965
   10MOL    H15 2913   4.921   6.801   0.418 -0.7065  0.8088 -0.1218
   10MOL    H16 2914   5.071   6.805   0.313 -0.9281  2.8580 -0.0326
   10MOL    H17 2915   4.755   6.692   0.486 -0.0288  0.6975 -1.5402
   10MOL    C18 2916   4.687   6.585   0.211  0.2341  0.1731 -0.2828
   10MOL    C19 2917   4.609   6.720   0.242 -0.1203  0.3712 -0.7752
   10MOL    C20 2918   4.597   6.455   0.207 -0.1330 -0.3173 -0.8946
   10MOL    C21 2919   4.676   6.322   0.199 -0.1088  0.6223  0.6482
   10MOL    C22 2920   4.767   6.300   0.080  0.2702  0.4094 -0.8025
   10MOL    C23 2921   4.656   6.229   0.294 -0.1086  0.5926  0.3029
   10MOL    H24 2922   4.740   6.601   0.117 -0.9827 -1.0139 -1.1807
   10MOL    H25 2923   4.675   6.804   0.262 -2.6015  2.2244 -0.0536
   10MOL    H26 2924   4.542   6.702   0.326 -0.0353  0.9172 -0.5910
   10MOL    H27 2925   4.547   6.747   0.156 -0.8759 -1.4560 -0.8236
   10MOL    H28 2926   4.555   6.447   0.307 -1.0719 -0.9832 -1.3314
   10MOL    H29 2927   4.714   6.261   7.886  1.3663  0.0888 -1.3432
   10MOL    H30 2928   4.829   6.218   0.117 -0.5352  1.6385  3.6063
   10MOL    H31 2929   4.824   6.392   0.065 -1.0113  1.2019 -0.9089
   10MOL    H32 2930   4.590   6.250   0.377  1.7584 -0.9632  2.2501
   10MOL    H33 2931   4.694   6.128   0.296 -0.5056  0.4353 -0.1502
   10MOL    C34 2932   4.474   6.458   0.109  0.4997 -0.5810 -0.3406
   10MOL    C35 2933   4.515   6.494   7.856 -0.2779  0.2074  0.0274
   10MOL    C36 2934   4.346   6.540   0.152 -0.0294 -0.1286 -0.4308
   10MOL    C37 2935   4.306   6.525   0.301  0.3689 -0.8358 -0.6164
   10MOL    C38 2936   4.262   6.657   0.375 -0.2503 -0.5611 -0.1104
   10MOL    C39 2937   4.307   6.405   0.371 -0.5573 -0.2666  0.3328
   10MOL    H40 2938   4.436   6.356   0.105 -1.2114  0.0391 -0.4790
   10MOL    H41 2939   4.613   6.458   7.825 -0.4257 -1.2533  1.2341
   10MOL    H42 2940   4.518   6.598   7.822 -0.4661  0.4520  0.7523
   10MOL    H43 2941   4.454   6.449   7.778  2.1257 -0.4026 -1.5686
   10MOL    H44 2942   4.377   6.644   0.147 -0.3779 -0.0211 -0.3358
   10MOL    H45 2943   4.337   6.735   0.363 -0.6606 -0.2808 -0.9222
   10MOL    H46 2944   4.244   6.639   0.481  0.4332  1.8115  0.4365
   10MOL    H47 2945   4.169   6.704   0.344 -0.5654 -0.6936  0.6149
   10MOL    H48 2946   4.335   6.311   0.326 -0.9892  0.9539 -2.6329
   10MOL    H49 2947   4.262   6.413   0.469  0.1671  1.4498  0.5372
   10MOL    C50 2948   4.220   6.526   0.063  0.3580 -0.2114 -0.1504
   10MOL    C51 2949   4.208   6.379   0.026 -0.2935 -0.1064 -0.0269
   10MOL    C52 2950   4.208   6.614   7.823  0.3790 -0.2882 -0.3145
   10MOL    C53 2951   4.229   6.762   7.855 -0.0360  0.0455 -0.0748
   10MOL    C54 2952   4.322   6.833   7.760 -0.3602  0.2482 -0.0391
   10MOL    C55 2953   4.191   6.830   0.066  0.1013 -0.0468 -0.8012
   10MOL    H56 2954   4.136   6.563   0.122  0.5100 -1.3195  0.7682
   10MOL    H57 2955   4.223   6.308   0.108  2.5070  0.4640  0.0048
   10MOL    H58 2956   4.296   6.349   7.862  0.2561  2.0074 -0.3171
   10MOL    H59 2957   4.114   6.341   7.878 -0.6888 -1.6293  2.2217
   10MOL    H60 2958   4.301   6.582   7.776  1.0874 -1.5810  1.8875
   10MOL    H61 2959   4.422   6.790   7.761 -0.0088  1.0551 -0.0298
   10MOL    H62 2960   4.338   6.939   7.778 -1.3421 -0.2306  3.9263
   10MOL    H63 2961   4.289   6.833   7.656  2.1250 -0.1930 -0.8561
   10MOL    H64 2962   4.127   6.793   0.145  0.8279  2.5624  1.0826
   10MOL    H65 2963   4.226   6.930   0.087 -0.7361  0.9972 -4.0541
   10MOL    C66 2964   4.086   6.587   7.731 -0.6702  0.1704  0.4884
   10MOL    C67 2965   4.137   6.639   7.590  0.5894  0.6433  0.1561
   10MOL    C68 2966   3.944   6.647   7.759  0.0436  0.4959 -0.0409
   10MOL    C69 2967   3.898   6.633   0.009 -0.1383  0.2863  0.1358
   10MOL    C70 2968   3.841   6.501   0.057 -0.0172  0.5047  0.1309
   10MOL    C71 2969   3.884   6.748   0.079 -1.1912 -0.1909  0.5359
   10MOL    H72 2970   4.079   6.479   7.725 -4.0351  0.3366  0.6305
   10MOL    H73 2971   4.244   6.641   7.567  0.8132  2.5517  1.2760
   10MOL    H74 2972   4.099   6.741   7.582  0.4698  0.4324 -2.5999
   10MOL    H75 2973   4.114   6.571   7.508 -0.2768 -0.3045  1.1801
   10MOL    H76 2974   3.951   6.755   7.747  1.4669  0.5044  0.8002
   10MOL    H77 2975   3.912   6.424   0.028 -0.8933  1.1056 -3.8544
   10MOL    H78 2976   3.737   6.485   0.028 -0.0274  4.0376 -2.1225
   10MOL    H79 2977   3.843   6.497   0.166  4.0092 -0.3608  0.1229
   10MOL    H80 2978   3.919   6.840   0.033  1.7527 -3.1295 -3.4540
   10MOL    H81 2979   3.851   6.745   0.182  2.0376 -0.5222  1.6061
   10MOL    C82 2980   3.835   6.592   7.665  0.7277  0.7093  0.5722
   10MOL    C83 2981   3.853   6.440   7.631 -0.1931  0.4314  0.4085
   10MOL    C84 2982   3.819   6.691   7.537 -0.1944  0.3152 -0.6283
   10MOL    C85 2983   3.784   6.831   7.582  0.3956  0.0290 -0.3789
   10MOL    C86 2984   3.660   6.861   7.674  0.7606  0.3493  0.1267
   10MOL    C87 2985   3.864   6.929   7.553 -0.0087  0.1729  0.0393
   10MOL    H88 2986   3.741   6.593   7.720 -0.6016 -0.2682 -1.6210
   10MOL    H89 2987   3.859   6.378   7.721 -0.5436 -0.9812 -0.5243
   10MOL    H90 2988   3.933   6.420   7.559 -0.7985  2.8791 -0.9914
   10MOL    H91 2989   3.757   6.401   7.597 -0.0864 -0.4409  1.0812
   10MOL    H92 2990   3.918   6.697   7.491  0.5034 -0.6735  0.7196
   10MOL    H93 2991   3.693   6.895   7.773  0.6859 -3.8886  1.6784
   10MOL    H94 2992   3.613   6.764   7.689 -0.6706  0.5850 -2.5457
   10MOL    H95 2993   3.591   6.931   7.628  1.2206  1.9091  1.7447
   10MOL    H96 2994   3.950   6.911   7.490  1.3406  3.0588  0.9761
   10MOL    H97 2995   3.852   7.031   7.589  1.8557  0.5097 -0.2505
   10MOL    C98 2996   3.720   6.628   7.428 -0.0600 -0.1665 -0.5384
   10MOL    C99 2997   3.797   6.546   7.318 -0.0848  0.0599 -0.6287
   10MOL   C100 2998   3.604   6.716   7.371 -0.6893 -0.3668  0.7725
   10MOL   C101 2999   3.476   6.639   7.369  0.5033 -0.4767  0.3886
   10MOL   C102 3000   3.406   6.628   7.500 -0.2585 -0.3077 -0.3217
   10MOL   C103 3001   3.438   6.577   7.256 -0.1887 -0.6677 -0.2122
   10MOL   H104 3002   3.673   6.545   7.479  0.2728 -0.6344 -0.9872
   10MOL   H105 3003   3.856   6.609   7.252  1.6728  0.0078  0.8696
   10MOL   H106 3004   3.728   6.509   7.242 -1.3843 -0.4858  0.7733
   10MOL   H107 3005   3.866   6.471   7.356  0.6465  0.9268 -0.2294
   10MOL   H108 3006   3.578   6.790   7.447 -1.3810 -0.3191  0.4960
   10MOL   H109 3007   3.499   6.612   7.556 -2.0313 -0.5926  2.6470
   10MOL   H110 3008   3.336   6.545   7.501  0.0516 -0.5732  1.8427
   10MOL   H111 3009   3.364   6.722   7.537 -0.4846 -0.1254 -1.0325
   10MOL   H112 3010   3.487   6.575   7.159 -1.1482  1.5480 -0.7760
   10MOL   H113 3011   3.343   6.526   7.252  0.0379 -1.0644 -0.5895
   10MOL   C114 3012   3.635   6.798   7.231  0.6099  0.2672  0.9847
   10MOL   C115 3013   3.762   6.883   7.238 -0.5933  0.5325  0.0855
   10MOL   C116 3014   3.520   6.887   7.171 -0.5940 -0.0081  0.2513
   10MOL   C117 3015   3.545   6.901   7.018 -0.0614 -0.8248 -0.2287
   10MOL   C118 3016   3.473   6.798   6.936  0.2915  0.3315 -0.2283
   10MOL   C119 3017   3.607   6.995   6.943 -0.6921 -0.1494 -0.0303
   10MOL   H120 3018   3.657   6.720   7.158 -1.1032  0.4379  0.2592
   10MOL   H121 3019   3.806   6.894   7.139 -0.4648  1.2768  0.2220
   10MOL   H122 3020   3.846   6.850   7.300 -2.6505 -1.7439  1.7647
   10MOL   H123 3021   3.743   6.988   7.260  0.6293  0.6063  0.8730
   10MOL   H124 3022   3.434   6.821   7.183 -0.8935  0.4873  0.8715
   10MOL   H125 3023   3.530   6.705   6.927 -2.3462 -1.0195 -4.5523
   10MOL   H126 3024   3.471   6.822   6.830 -1.6340  0.0688 -0.2707
   10MOL   H127 3025   3.369   6.780   6.961  0.1823  1.9853  0.5837
   10MOL   H128 3026   3.659   7.077   6.989 -2.5595  1.6010 -0.9563
   10MOL   H129 3027   3.618   7.003   6.836  0.9898 -0.1246  0.1377
   10MOL   C130 3028   3.492   7.025   7.239  0.1115  0.0471 -0.6347
   10MOL   C131 3029   3.524   7.052   7.385 -0.0879  0.1978 -0.1411
   10MOL   C132 3030   3.354   7.091   7.210 -0.6907  0.3606  0.0248
   10MOL   C133 3031   3.370   7.238   7.166  0.6749 -0.4859 -0.6066
   10MOL   C134 3032   3.394   7.268   7.020  0.1508 -0.3069 -0.0706
   10MOL   C135 3033   3.365   7.338   7.257  0.0623 -0.0115 -0.3870
   10MOL   H136 3034   3.565   7.090   7.191 -0.8099  0.8186 -0.9988
   10MOL   H137 3035   3.519   7.159   7.404  1.5611  0.4844 -1.1761
   10MOL   H138 3036   3.629   7.037   7.411 -0.1135  1.0469  0.4758
   10MOL   H139 3037   3.451   6.989   7.435  0.2303  0.9810  1.3289
   10MOL   H140 3038   3.334   7.053   7.110 -1.8463 -0.0584  0.4062
   10MOL   H141 3039   3.402   7.376   7.011 -0.0939 -0.0859  2.1025
   10MOL   H142 3040   3.316   7.243   6.947  1.0142 -2.2945 -0.3539
   10MOL   H143 3041   3.489   7.228   6.984  0.9019  0.3107  1.2149
   10MOL   H144 3042   3.339   7.322   7.360  0.5031  0.9047 -0.1275
   10MOL   H145 3043   3.391   7.440   7.232  1.0465 -0.4655 -1.2481
   10MOL   C146 3044   3.233   7.073   7.318  0.4277 -0.1353 -0.1283
   10MOL   C147 3045   3.208   6.920   7.339 -0.7496 -0.5133 -0.1244
   10MOL   C148 3046   3.099   7.153   7.301 -0.1851 -0.7013 -0.0659
   10MOL   C149 3047   3.049   7.215   7.434 -0.3200  0.1799 -0.7356
   10MOL   C150 3048   3.011   7.117   7.542 -0.0031 -0.1751 -0.1058
   10MOL   C151 3049   3.037   7.346   7.451  0.1829 -0.1401  0.6653
   10MOL   H152 3050   3.270   7.109   7.414  1.1341  0.6814 -0.6927
   10MOL   H153 3051   3.157   6.866   7.259 -0.5754  0.1189 -0.6636
   10MOL   H154 3052   3.140   6.917   7.424 -0.9883 -0.4018 -0.3092
   10MOL   H155 3053   3.298   6.863   7.362  0.1876  1.1761  0.4548
   10MOL   H156 3054   3.133   7.233   7.236  2.6936 -0.7146  1.3530
   10MOL   H157 3055   2.937   7.150   7.615  0.9393 -1.5628  1.5221
   10MOL   H158 3056   3.093   7.080   7.604  3.0928  3.3075 -1.8507
   10MOL   H159 3057   2.970   7.027   7.497  1.0427 -2.6427  3.6168
   10MOL   H160 3058   3.051   7.416   7.370  0.9011  0.2383  1.1125
   10MOL   H161 3059   3.001   7.383   7.545 -1.7861  0.2249 -0.2046
   10MOL   C162 3060   2.984   7.094   7.218  0.1633 -0.8446 -0.4322
   10MOL   C163 3061   3.029   7.051   7.081 -0.0233  0.2271 -0.2862
   10MOL   C164 3062   2.852   7.190   7.213 -0.0619  0.2840  0.0957
   10MOL   C165 3063   2.727   7.108   7.232 -0.0873  0.0506  0.4252
   10MOL   C166 3064   2.697   7.004   7.125 -0.5582 -0.9240  0.6033
   10MOL   C167 3065   2.640   7.116   7.332  0.1446 -0.3560 -0.5090
   10MOL   H168 3066   2.944   7.007   7.270 -0.0031 -0.0795  0.7366
   10MOL   H169 3067   3.097   7.119   7.030 -0.1338 -1.6232 -2.9672
   10MOL   H170 3068   2.939   7.031   7.023  0.2465  1.6002 -1.2135
   10MOL   H171 3069   3.080   6.956   7.093  1.5109  1.3509  2.5987
   10MOL   H172 3070   2.846   7.255   7.301  2.4462 -2.2813  2.2384
   10MOL   H173 3071   2.711   7.032   7.021 -1.1265 -2.0268  0.2186
   10MOL   H174 3072   2.592   6.974   7.130 -1.1386  1.0809  0.7110
   10MOL   H175 3073   2.750   6.910   7.142  2.5300  0.7415  0.3623
   10MOL   H176 3074   2.640   7.184   7.416  2.2721 -1.6687  0.6178
   10MOL   H177 3075   2.555   7.049   7.335  0.7094 -1.0547  0.2144
   10MOL   C178 3076   2.843   7.291   7.096  0.1890 -0.0049 -0.1314
   10MOL   C179 3077   2.966   7.380   7.070  0.2044 -0.3101 -0.1512
   10MOL   C180 3078   2.711   7.378   7.093 -0.1448 -0.3048 -0.2817
   10MOL   C181 3079   2.681   7.398   6.944 -0.2418 -0.1653 -0.0738
   10MOL   C182 3080   2.625   7.280   6.877 -0.5033  0.9179  1.4118
   10MOL   C183 3081   2.692   7.512   6.879  0.8989  0.3246  0.3802
   10MOL   H184 3082   2.843   7.220   7.013  1.9193 -0.1661 -0.0016
   10MOL   H185 3083   3.036   7.337   6.998  1.2043 -2.0489  1.7987
   10MOL   H186 3084   3.003   7.412   7.168 -0.2473  1.3882 -0.5229
   10MOL   H187 3085   2.937   7.476   7.027  0.6187 -0.7817 -1.4799
   10MOL   H188 3086   2.625   7.321   7.130 -1.0258  0.1915 -1.5270
   10MOL   H189 3087   2.705   7.211   6.851 -0.3336  2.0658 -1.2311
   10MOL   H190 3088   2.565   7.309   6.791 -2.3913 -0.4892  2.2353
   10MOL   H191 3089   2.557   7.221   6.938 -1.6574 -1.3265 -1.9150
   10MOL   H192 3090   2.721   7.602   6.932  1.0691 -0.0551  0.9380
   10MOL   H193 3091   2.671   7.514   6.773  0.8093 -2.0377  0.3113
   10MOL   C194 3092   2.697   7.508   7.176  0.4099  0.1660 -0.2825
   10MOL   C195 3093   2.751   7.499   7.321 -0.3646  0.2037 -0.0925
   10MOL   C196 3094   2.552   7.579   7.169  0.4107 -0.0627  0.1834
   10MOL   C197 3095   2.570   7.733   7.135 -0.3969 -0.0192 -0.4686
   10MOL   C198 3096   2.620   7.826   7.243 -0.5980 -0.4366 -0.3055
   10MOL   C199 3097   2.529   7.789   7.014  0.3312 -0.3386 -0.0541
   10MOL   H200 3098   2.763   7.582   7.131 -0.5269  0.9664 -0.3709
   10MOL   H201 3099   2.705   7.417   7.375  0.1971 -0.1213 -0.1081
   10MOL   H202 3100   2.731   7.592   7.373  1.8544  1.2453 -1.0242
   10MOL   H203 3101   2.859   7.488   7.333 -0.4635 -0.2700  0.3600
   10MOL   H204 3102   2.511   7.535   7.078  1.7092 -0.0875 -0.4044
   10MOL   H205 3103   2.586   7.794   7.341 -1.4989  1.1402 -0.0899
   10MOL   H206 3104   2.598   0.039   7.225  1.2165 -0.1708 -1.0970
   10MOL   H207 3105   2.729   7.815   7.242 -0.5277 -0.1761  1.8311
   10MOL   H208 3106   2.475   7.731   6.941  0.8958  0.3735 -1.0515
   10MOL   H209 3107   2.531   0.001   6.987 -1.4171 -1.3370 -4.4918
   10MOL   C210 3108   2.451   7.553   7.288 -0.3275 -0.0530  0.1153
   10MOL   C211 3109   2.439   7.401   7.324  0.4236 -0.0476  0.1595
   10MOL   C212 3110   2.316   7.640   7.281 -0.0624  0.6307  0.6112
   10MOL   C213 3111   2.299   7.718   7.411 -0.5673  0.4569  0.2758
   10MOL   C214 3112   2.270   7.637   7.540  0.5777  0.2806  0.4189
   10MOL   C215 3113   2.323   7.847   7.418 -0.4588  0.4047 -0.6534
   10MOL   H216 3114   2.506   7.588   7.375  0.0484 -0.1095 -0.0993
   10MOL   H217 3115   2.508   7.364   7.399  2.0188  0.7780 -0.8854
   10MOL   H218 3116   2.436   7.333   7.239  0.2678 -0.0394  0.1571
   10MOL   H219 3117   2.345   7.389   7.378  0.3372 -2.3289 -0.4737
   10MOL   H220 3118   2.337   7.712   7.202 -1.3193 -0.9385 -1.1785
   10MOL   H221 3119   2.164   7.611   7.550  0.7024 -0.0773  0.7885
   10MOL   H222 3120   2.276   7.697   7.631 -4.4381  0.2383  0.9611
   10MOL   H223 3121   2.333   7.552   7.565  1.3160  1.2466  1.8697
   10MOL   H224 3122   2.359   0.007   7.330 -2.1647  1.1548 -0.9193
   10MOL   H225 3123   2.306   0.009   7.509  0.6544  0.7641 -0.6451
   10MOL   C226 3124   2.193   7.563   7.235  0.2975 -0.1187  0.2976
   10MOL   C227 3125   2.203   7.509   7.090  0.1376  0.0213 -0.0695
   10MOL   C228 3126   2.049   7.631   7.257 -0.2915 -0.1141  0.3663
   10MOL   C229 3127   1.939   7.526   7.269 -0.7313  0.3101 -0.1032
   10MOL   C230 3128   1.919   7.455   7.403 -0.5750 -0.6778 -0.5057
   10MOL   C231 3129   1.877   7.480   7.156  0.1875  0.6449 -0.9625
   10MOL   H232 3130   2.182   7.474   7.297 -2.5891  0.4308  0.6810
   10MOL   H233 3131   2.109   7.458   7.067 -0.1797 -0.5898  2.4739
   10MOL   H234 3132   2.279   7.432   7.087  0.6429  0.3126  3.5196
   10MOL   H235 3133   2.223   7.592   7.022  2.1486 -0.3686  0.0231
   10MOL   H236 3134   2.053   7.665   7.361  1.8939 -0.9545  0.5822
   10MOL   H237 3135   2.004   7.389   7.412  0.1347 -0.1205 -2.8073
   10MOL   H238 3136   1.830   7.392   7.413 -0.3052 -1.0078 -0.2212
   10MOL   H239 3137   1.912   7.522   7.488 -0.0038 -0.2263 -0.8133
   10MOL   H240 3138   1.890   7.533   7.062 -3.9057 -0.8116 -2.4612
   10MOL   H241 3139   1.802   7.404   7.146  1.4062 -0.7356  0.1964
   10MOL   C242 3140   2.015   7.754   7.161 -0.6076 -0.1586  0.1115
   10MOL   C243 3141   2.117   7.868   7.143 -0.7168 -0.7207  0.0041
   10MOL   C244 3142   1.875   7.813   7.196  0.4516 -0.6253 -0.5119
   10MOL   C245 3143   1.787   7.816   7.073 -0.5817 -0.1592 -0.0508
   10MOL   C246 3144   1.829   0.013   6.958  0.4464  0.2346 -0.2132
   10MOL   C247 3145   1.682   7.730   7.056 -0.3465 -0.3350  0.2418
   10MOL   H248 3146   2.006   7.713   7.061  3.2480 -2.4056  0.6083
   10MOL   H249 3147   2.208   7.827   7.100 -0.1410 -0.6298  1.1186
   10MOL   H250 3148   2.149   0.017   7.239  2.1583  0.5171 -1.4306
   10MOL   H251 3149   2.092   0.048   7.066 -3.2078 -0.2446  1.1965
   10MOL   H252 3150   1.823   7.742   7.260 -0.5656 -0.3014 -0.9607
   10MOL   H253 3151   1.929   7.879   6.922  0.2481 -1.4305  0.4056
   10MOL   H254 3152   1.829   0.117   6.990  1.4635 -0.1065  0.9455
   10MOL   H255 3153   1.763   0.003   6.872  0.6322 -2.6720 -0.0701
   10MOL   H256 3154   1.655   7.657   7.131  0.0585  0.0371  0.7504
   10MOL   H257 3155   1.632   7.732   6.960 -1.5928  0.1086  0.8918
   10MOL   C258 3156   1.858   0.054   7.290 -0.2189 -0.2003  0.2509
   10MOL   C259 3157   1.935   0.020   7.423 -0.0648 -0.2661  0.0682
   10MOL   C260 3158   1.708   0.101   7.309 -0.5423 -0.5491  0.3210
   10MOL   C261 3159   1.662   0.192   7.197 -0.1637 -0.1635  0.3272
   10MOL   C262 3160   1.726   0.326   7.166  0.2683 -0.3750 -0.1687
   10MOL   C263 3161   1.560   0.167   7.113 -0.2509  0.0502 -1.1823
   10MOL   H264 3162   1.916   0.135   7.246 -1.4071  0.7283  0.3943
   10MOL   H265 3163   2.042   0.005   7.408 -0.1854  0.9799 -2.3333
   10MOL   H266 3164   1.892   7.823   7.469 -1.1979 -0.4982 -1.4000
   10MOL   H267 3165   1.945   0.101   7.495  1.8550 -1.3507  1.0550
   10MOL   H268 3166   1.645   0.014   7.290  0.6168 -1.8650  2.3160
   10MOL   H269 3167   1.733   0.343   7.059 -0.7975 -2.7283 -0.6563
   10MOL   H270 3168   1.814   0.355   7.223 -0.2519 -2.4848  1.8149
   10MOL   H271 3169   1.651   0.395   7.205 -0.1319 -1.0686  0.2999
   10MOL   H272 3170   1.498   0.080   7.129 -1.2288  0.6420 -1.6929
   10MOL   H273 3171   1.529   0.227   7.029  1.0313 -2.8337 -3.7864
   10MOL   C274 3172   1.641   0.139   7.451 -0.2393  0.6247 -0.0750
   10MOL   C275 3173   1.719   0.259   7.503  0.4924  0.4206 -0.0558
   10MOL   C276 3174   1.632   0.017   7.550  0.2680 -0.1449 -0.2541
   10MOL   C277 3175   1.586   7.779   7.478  0.1317  0.4291 -0.4344
   10MOL   C278 3176   1.450   7.790   7.405  0.4156 -0.4081 -0.2167
   10MOL   C279 3177   1.650   7.659   7.491 -0.4641  0.1006 -0.0536
   10MOL   H280 3178   1.538   0.171   7.433 -0.4438 -1.1807 -2.3865
   10MOL   H281 3179   1.666   0.354   7.498 -2.5811 -1.3254 -1.9297
   10MOL   H282 3180   1.811   0.276   7.448  1.6843 -0.2585  1.6615
   10MOL   H283 3181   1.761   0.227   7.599  0.5966 -0.9360 -0.5416
   10MOL   H284 3182   1.724   7.887   7.604  0.1528 -0.4936 -0.2002
   10MOL   H285 3183   1.464   7.801   7.297  3.2728  0.0406  0.1751
   10MOL   H286 3184   1.388   7.876   7.433 -0.5239 -0.8762 -0.8411
   10MOL   H287 3185   1.391   7.700   7.423  0.0050 -0.5048 -1.9685
   10MOL   H288 3186   1.741   7.650   7.549 -1.2156 -0.6089  1.0523
   10MOL   H289 3187   1.612   7.569   7.446 -1.6971 -0.0764  1.2741
   10MOL   C290 3188   1.540   0.040   7.678  0.2741  0.1262 -0.1944
   10MOL   C291 3189   1.535   0.176   7.734  0.6006 -0.1081 -0.0667
   10MOL   C292 3190   1.557   7.821   7.784 -0.0208 -0.3971 -0.1877
   10MOL   C293 3191   1.423   7.769   7.827 -0.5182  0.1677 -0.1124
   10MOL   C294 3192   1.336   7.855   0.029 -0.6745 -0.5982 -1.0866
   10MOL   C295 3193   1.378   7.651   7.790 -0.6193  0.4336 -0.9641
   10MOL   H296 3194   1.438   0.030   7.639 -0.1588 -1.4156  1.2679
   10MOL   H297 3195   1.473   0.183   7.824 -0.0938  3.7064 -0.7442
   10MOL   H298 3196   1.491   0.252   7.669 -1.6629  0.6114  2.2018
   10MOL   H299 3197   1.632   0.217   7.759  1.1448 -0.7681 -1.0591
   10MOL   H300 3198   1.608   7.745   7.724  0.1930 -0.2456 -0.2004
   10MOL   H301 3199   1.394   7.863   0.121 -0.0621 -1.9808 -1.3418
   10MOL   H302 3200   1.245   7.804   0.060 -1.1051  0.4028 -0.6772
   10MOL   H303 3201   1.307   0.061   7.885 -0.7216  1.0583  3.0810
   10MOL   H304 3202   1.428   7.578   7.728 -0.3933 -0.0994 -0.1555
   10MOL   H305 3203   1.284   7.623   7.835  0.3360  0.7396  1.2729
   10MOL   C306 3204   1.655   7.848   0.015  0.6074  0.5931 -0.2765
   10MOL   C307 3205   1.795   7.868   7.856  0.7669  0.2191  0.6585
   10MOL   C308 3206   1.642   7.729   0.113 -0.0793 -0.2592  1.1010
   10MOL   C309 3207   1.730   7.747   0.246  0.0863 -0.3409 -0.1666
   10MOL   C310 3208   1.747   7.620   0.328 -0.1910  0.3451 -0.0793
   10MOL   C311 3209   1.785   7.867   0.283  0.7342  0.5769 -0.2000
   10MOL   H312 3210   1.625   0.048   0.065  1.4114  0.0216  1.3080
   10MOL   H313 3211   1.817   7.795   7.778 -0.0719 -0.7116  1.2772
   10MOL   H314 3212   1.868   7.858   0.044  1.9314 -2.4559 -0.6749
   10MOL   H315 3213   1.807   0.071   7.806  0.0070 -0.4207 -0.7774
   10MOL   H316 3214   1.541   7.700   0.144 -0.7248 -0.9820 -1.5554
   10MOL   H317 3215   1.760   7.537   0.259 -1.8685 -0.0527  0.0551
   10MOL   H318 3216   1.647   7.608   0.371  0.2131  0.0284  0.7592
   10MOL   H319 3217   1.833   7.620   0.395 -0.2259 -0.8205 -0.0403
   10MOL   H320 3218   1.785   0.064   0.223 -1.6426 -0.5112 -1.8960
   10MOL   H321 3219   1.832   7.872   0.381 -0.3089  2.1954  0.2478
   10MOL   H322 3220   1.670   7.639   0.058  0.4702 -0.2845  1.4184
   11MOL     C1 3221   4.290   5.781   6.928  0.1197 -0.0560  0.3104
   11MOL     C2 3222   4.212   5.733   7.051  0.6175 -0.5110 -1.1347
   11MOL     C3 3223   4.378   5.656   6.878  0.1198 -0.0283  0.0924
   11MOL     C4 3224   4.498   5.622   6.978 -0.6915  0.6580 -0.2460
   11MOL     C5 3225   4.569   5.497   6.939  0.1161  0.3692 -0.0884
   11MOL     C6 3226   4.549   5.694   7.079  0.3981  0.3080 -0.5714
   11MOL     H7 3227   4.223   5.816   6.850  0.2997 -2.7910 -1.1454
   11MOL     H8 3228   4.281   5.679   7.115 -0.7874  0.6689  1.4389
   11MOL     H9 3229   4.141   5.657   7.020  0.1504 -0.1257 -1.0023
   11MOL    H10 3230   4.168   5.816   7.105  0.9108  0.1134 -1.8383
   11MOL    H11 3231   4.317   5.567   6.869 -0.4528  0.6405 -3.3759
   11MOL    H12 3232   4.484   5.429   6.946  0.0290  0.4111 -0.7189
   11MOL    H13 3233   4.635   5.467   7.021 -1.0053 -1.0033  0.3099
   11MOL    H14 3234   4.621   5.501   6.843  0.9029 -0.2152  0.3083
   11MOL    H15 3235   4.522   5.791   7.119  0.6038  0.0610  0.1751
   11MOL    H16 3236   4.640   5.664   7.129 -0.9520 -1.1162  1.0817
   11MOL    H17 3237   4.360   5.862   6.947  0.7248 -0.1375 -1.4893
   11MOL    C18 3238   4.426   5.687   6.729 -0.1748 -0.0501 -0.6843
   11MOL    C19 3239   4.507   5.812   6.724  0.2575  0.1164 -0.0076
   11MOL    C20 3240   4.316   5.682   6.620 -0.6130  0.2050 -0.2974
   11MOL    C21 3241   4.213   5.569   6.633 -0.2072  0.1783  0.4751
   11MOL    C22 3242   4.269   5.430   6.619 -0.4415 -0.1931  0.4526
   11MOL    C23 3243   4.087   5.585   6.668 -0.1257 -0.4496 -0.3657
   11MOL    H24 3244   4.501   5.617   6.692  1.4460  0.5901  1.2486
   11MOL    H25 3245   4.579   5.821   6.805  0.2287 -1.3731  0.1955
   11MOL    H26 3246   4.434   5.892   6.733  0.8608  0.8285 -1.3321
   11MOL    H27 3247   4.559   5.824   6.629  1.3269  0.5092  0.6205
   11MOL    H28 3248   4.270   5.778   6.644 -0.5938  0.1198  0.0945
   11MOL    H29 3249   4.378   5.436   6.624 -0.3739 -2.5352  3.4295
   11MOL    H30 3250   4.238   5.381   6.527  0.2400  0.5740 -0.1939
   11MOL    H31 3251   4.245   5.377   6.711  2.2559  1.2282  2.0378
   11MOL    H32 3252   4.049   5.685   6.683 -0.2988 -0.2634 -1.9497
   11MOL    H33 3253   4.016   5.505   6.687  1.1226 -1.2346  1.1160
   11MOL    C34 3254   4.362   5.697   6.466  0.3665  0.0833 -0.2269
   11MOL    C35 3255   4.496   5.627   6.435 -0.4352 -0.7710 -0.8495
   11MOL    C36 3256   4.358   5.840   6.406 -0.9375 -0.2820  0.0535
   11MOL    C37 3257   4.225   5.911   6.431  0.6196 -0.8786  0.4776
   11MOL    C38 3258   4.093   5.844   6.377 -0.6463  0.1249  0.1435
   11MOL    C39 3259   4.217   6.035   6.489 -0.0641 -0.8212  0.5685
   11MOL    H40 3260   4.294   5.639   6.403  0.6609 -0.5297  0.0170
   11MOL    H41 3261   4.573   5.692   6.476 -2.3504  1.6995 -0.9922
   11MOL    H42 3262   4.522   5.630   6.330  0.5054  1.5262 -0.5773
   11MOL    H43 3263   4.499   5.526   6.475  0.2737 -1.1402 -1.8400
   11MOL    H44 3264   4.426   5.887   6.477  0.4019  0.1111 -1.4596
   11MOL    H45 3265   4.093   5.740   6.408 -0.8808 -0.0677 -0.4806
   11MOL    H46 3266   4.075   5.848   6.269 -0.0736  0.7364  0.0664
   11MOL    H47 3267   4.010   5.898   6.423 -0.9116  0.6936 -0.9805
   11MOL    H48 3268   4.308   6.083   6.523 -0.4939  1.4346 -1.3980
   11MOL    H49 3269   4.123   6.087   6.498  0.6196  0.5434 -0.1169
   11MOL    C50 3270   4.392   5.854   6.258  0.7024  0.5095 -0.5474
   11MOL    C51 3271   4.324   5.746   6.171 -0.7644 -0.0588  0.2448
   11MOL    C52 3272   4.535   5.909   6.221  0.6117  0.1957 -0.7203
   11MOL    C53 3273   4.600   6.014   6.310 -0.2496  0.2217  0.2279
   11MOL    C54 3274   4.555   6.161   6.315 -0.3747  0.1822 -0.3322
   11MOL    C55 3275   4.705   5.978   6.389 -0.7122 -0.1433  0.5844
   11MOL    H56 3276   4.332   5.938   6.225  1.4061  0.8416 -0.9851
   11MOL    H57 3277   4.242   5.685   6.207 -0.7493 -0.6024 -0.6305
   11MOL    H58 3278   4.391   5.682   6.114  0.2343  0.9622  0.2581
   11MOL    H59 3279   4.276   5.799   6.089 -0.1553 -1.5537 -1.1097
   11MOL    H60 3280   4.601   5.824   6.241  0.1207 -0.1705 -0.6392
   11MOL    H61 3281   4.625   6.214   6.379 -0.2479  0.4078 -0.6547
   11MOL    H62 3282   4.455   6.166   6.358  0.5697 -0.0661  1.9458
   11MOL    H63 3283   4.568   6.211   6.219 -1.1832 -0.4289 -0.7661
   11MOL    H64 3284   4.749   5.880   6.381 -1.8535 -0.5093 -1.7076
   11MOL    H65 3285   4.746   6.047   6.461  0.3669 -2.0014  1.7731
   11MOL    C66 3286   4.549   5.963   6.072  0.0670 -0.9163 -0.2184
   11MOL    C67 3287   4.435   6.062   6.035  0.4628 -0.0351 -0.0395
   11MOL    C68 3288   4.584   5.858   5.959 -0.5238 -0.1243 -0.6047
   11MOL    C69 3289   4.722   5.784   5.982  0.3484 -0.3845 -0.2934
   11MOL    C70 3290   4.729   5.649   5.917  0.2726  0.2713  0.0775
   11MOL    C71 3291   4.828   5.829   6.054 -0.4714 -0.4478  0.0086
   11MOL    H72 3292   4.634   6.028   6.055 -0.0162 -0.5406  0.7557
   11MOL    H73 3293   4.341   6.017   6.001 -0.3125  1.5897 -0.1081
   11MOL    H74 3294   4.458   6.127   5.950 -1.7403 -1.9377 -2.1827
   11MOL    H75 3295   4.395   6.128   6.112 -0.0371  0.8005 -0.9967
   11MOL    H76 3296   4.506   5.784   5.971  1.7039 -2.1963  1.6378
   11MOL    H77 3297   4.770   5.666   5.818  0.1245  1.5549  0.2254
   11MOL    H78 3298   4.629   5.606   5.923  0.2978 -0.1353 -2.2166
   11MOL    H79 3299   4.796   5.580   5.969 -0.9320 -0.4970  0.6400
   11MOL    H80 3300   4.833   5.926   6.102  0.6164  0.4180 -1.8225
   11MOL    H81 3301   4.914   5.767   6.073 -1.2555 -1.9072 -1.1331
   11MOL    C82 3302   4.588   5.919   5.812  0.9490 -0.4900 -0.3357
   11MOL    C83 3303   4.670   6.046   5.811 -0.7131  0.5176 -0.2576
   11MOL    C84 3304   4.445   5.921   5.747  0.0762  0.0032  0.5222
   11MOL    C85 3305   4.380   5.786   5.751 -0.3725  1.0303  0.1111
   11MOL    C86 3306   4.227   5.791   5.761 -0.3584  0.4606 -0.7749
   11MOL    C87 3307   4.436   5.669   5.729  0.2643 -0.0513 -0.0169
   11MOL    H88 3308   4.646   5.858   5.743 -0.0542  1.0228 -2.6170
   11MOL    H89 3309   4.630   6.142   5.845 -1.4845  0.0039  0.3010
   11MOL    H90 3310   4.702   6.065   5.709 -1.2031  0.7613 -0.3676
   11MOL    H91 3311   4.756   6.022   5.874 -1.6579 -3.4691 -0.3596
   11MOL    H92 3312   4.369   5.985   5.794 -1.0918  1.0443 -2.6475
   11MOL    H93 3313   4.180   5.852   5.685 -0.6448 -1.2100 -1.9608
   11MOL    H94 3314   4.188   5.824   5.857 -1.0815 -0.5697 -0.7018
   11MOL    H95 3315   4.179   5.695   5.739  0.2560  0.0362 -0.2970
   11MOL    H96 3316   4.541   5.661   5.707  0.4107 -1.5721  1.0863
   11MOL    H97 3317   4.384   5.574   5.732  1.1873 -0.5475  0.2882
   11MOL    C98 3318   4.438   5.976   5.592  0.3531  0.5538 -0.4316
   11MOL    C99 3319   4.542   5.902   5.499  0.1747  0.3146 -0.1041
   11MOL   C100 3320   4.438   6.135   5.586 -0.6875  0.1246 -0.2955
   11MOL   C101 3321   4.326   6.201   5.670  0.9566  0.3099 -0.1259
   11MOL   C102 3322   4.182   6.159   5.645 -0.6110 -0.0921  0.2067
   11MOL   C103 3323   4.347   6.282   5.776 -0.2841 -0.8497 -0.7627
   11MOL   H104 3324   4.338   5.950   5.558  0.4339 -0.5903  0.1845
   11MOL   H105 3325   4.638   5.934   5.538 -0.2231 -0.0019  1.1312
   11MOL   H106 3326   4.529   5.913   5.391  0.8649 -2.5700 -0.5217
   11MOL   H107 3327   4.530   5.795   5.516 -1.7912  0.9780  3.1994
   11MOL   H108 3328   4.521   6.166   5.649  0.0114 -2.7482  0.2686
   11MOL   H109 3329   4.150   6.154   5.541 -1.7241  1.6717  0.4382
   11MOL   H110 3330   4.109   6.220   5.697 -0.5379 -1.3704  1.8448
   11MOL   H111 3331   4.171   6.056   5.678  0.1239  0.1660  1.2719
   11MOL   H112 3332   4.447   6.303   5.810 -0.9510 -1.4956  1.7022
   11MOL   H113 3333   4.275   6.335   5.838 -0.3414 -1.0321 -0.6731
   11MOL   C114 3334   4.457   6.204   5.450  0.8562  0.2864  0.2214
   11MOL   C115 3335   4.365   6.151   5.336 -0.3880  0.4744 -0.0187
   11MOL   C116 3336   4.612   6.213   5.410  0.6473  0.3211  0.0978
   11MOL   C117 3337   4.705   6.272   5.517 -0.4959 -0.4803  0.1450
   11MOL   C118 3338   4.847   6.208   5.528  0.4861 -0.9322  0.0775
   11MOL   C119 3339   4.668   6.380   5.596  0.4091 -0.0074 -0.1319
   11MOL   H120 3340   4.420   6.307   5.450 -0.8446 -0.3043  0.6957
   11MOL   H121 3341   4.402   6.057   5.294 -2.2040 -0.0790 -0.3841
   11MOL   H122 3342   4.349   6.224   5.256  0.4431 -1.9180 -2.4421
   11MOL   H123 3343   4.265   6.136   5.374 -0.5654 -0.2241 -0.7502
   11MOL   H124 3344   4.644   6.110   5.399 -1.2531 -0.3376  0.4655
   11MOL   H125 3345   4.893   6.215   5.627 -1.2401 -2.3366  1.0244
   11MOL   H126 3346   4.907   6.264   5.458 -1.2052  2.4271  1.2249
   11MOL   H127 3347   4.837   6.109   5.484 -1.5513  0.2863 -2.3294
   11MOL   H128 3348   4.568   6.419   5.604 -0.2071 -1.8294  1.3494
   11MOL   H129 3349   4.746   6.429   5.652  0.5842  0.6337 -0.9166
   11MOL   C130 3350   4.654   6.276   5.274  0.0812  0.6193 -0.7417
   11MOL   C131 3351   4.583   6.408   5.252 -0.4845  0.3578 -0.3959
   11MOL   C132 3352   4.632   6.182   5.148 -0.4431  0.2367 -0.1964
   11MOL   C133 3353   4.712   6.057   5.152 -0.2060  0.1889  0.7985
   11MOL   C134 3354   4.654   5.940   5.071  0.2089 -0.2503  0.0501
   11MOL   C135 3355   4.824   6.036   5.214 -0.0917 -0.9072  1.3599
   11MOL   H136 3356   4.761   6.298   5.282  0.1542  0.4088 -1.0999
   11MOL   H137 3357   4.477   6.399   5.228 -0.3337 -1.8050 -0.2851
   11MOL   H138 3358   4.629   6.481   5.185 -0.4873  1.4095  0.7136
   11MOL   H139 3359   4.595   6.466   5.344  0.5691 -2.3953  1.2796
   11MOL   H140 3360   4.529   6.150   5.160 -0.1704 -0.6381 -0.1514
   11MOL   H141 3361   4.689   5.937   4.968  1.1290 -2.1395  0.3795
   11MOL   H142 3362   4.547   5.953   5.085  0.6961  1.2586  2.6165
   11MOL   H143 3363   4.688   5.847   5.118 -2.0226 -0.2639  1.7442
   11MOL   H144 3364   4.878   6.110   5.271  0.1529  1.0747 -1.3530
   11MOL   H145 3365   4.884   5.947   5.201  0.9800  0.3075 -2.5511
   11MOL   C146 3366   4.651   6.254   5.003  0.1787  0.0671 -0.9310
   11MOL   C147 3367   4.786   6.334   5.004 -1.0551 -0.8927  0.0773
   11MOL   C148 3368   4.518   6.317   4.941  0.5848  0.3449 -0.3040
   11MOL   C149 3369   4.397   6.218   4.940 -0.6753 -0.1430  0.8061
   11MOL   C150 3370   4.270   6.286   4.961 -0.0211  0.1785 -0.3773
   11MOL   C151 3371   4.405   6.092   4.913  0.2856  0.7168  0.0732
   11MOL   H152 3372   4.683   6.173   4.937  1.9871 -0.4734  0.5565
   11MOL   H153 3373   4.791   6.417   5.074  1.8380 -0.7319 -0.2560
   11MOL   H154 3374   4.805   6.376   4.906 -0.0035  1.3656  1.2163
   11MOL   H155 3375   4.885   6.290   5.020  0.4886  1.3992 -2.7236
   11MOL   H156 3376   4.481   6.402   4.998 -1.4027 -0.1174 -0.8769
   11MOL   H157 3377   4.189   6.221   4.993  1.1996 -1.2546 -0.1403
   11MOL   H158 3378   4.237   6.344   4.875 -0.6805  0.5707  0.1330
   11MOL   H159 3379   4.285   6.360   5.040  1.2696  0.4406 -0.8533
   11MOL   H160 3380   4.497   6.045   4.885 -0.0923 -0.5432  0.9378
   11MOL   H161 3381   4.318   6.028   4.912  0.0902  0.9199  2.3368
   11MOL   C162 3382   4.537   6.390   4.797  0.3394  0.0489  0.3129
   11MOL   C163 3383   4.610   6.290   4.703  0.7909 -0.0239 -0.3352
   11MOL   C164 3384   4.589   6.536   4.807  0.4232 -0.9889 -0.5731
   11MOL   C165 3385   4.502   6.622   4.902  0.0557 -0.3067  0.1589
   11MOL   C166 3386   4.357   6.663   4.869 -0.1332 -0.0238 -0.2470
   11MOL   C167 3387   4.556   6.664   5.015 -0.4402  0.3661  0.0326
   11MOL   H168 3388   4.441   6.407   4.749  0.1391 -0.4400  0.5370
   11MOL   H169 3389   4.712   6.277   4.739  1.8123  4.0547 -1.4530
   11MOL   H170 3390   4.614   6.322   4.599 -0.6175 -2.3646 -1.1309
   11MOL   H171 3391   4.570   6.190   4.716 -2.0765  0.9769 -1.0919
   11MOL   H172 3392   4.685   6.526   4.857 -0.4451 -1.1654  1.1020
   11MOL   H173 3393   4.290   6.577   4.866  0.3766 -0.4706  1.0040
   11MOL   H174 3394   4.349   6.703   4.768 -2.6687  0.8026  0.2399
   11MOL   H175 3395   4.313   6.731   4.942 -1.4232  0.4243 -1.4214
   11MOL   H176 3396   4.657   6.634   5.040 -0.3088  1.3002  0.6280
   11MOL   H177 3397   4.505   6.724   5.089  1.0310  1.7604 -0.0479
   11MOL   C178 3398   4.622   6.615   4.672  0.5859  0.3999 -0.5661
   11MOL   C179 3399   4.520   6.583   4.566 -0.1302  0.2157 -0.3411
   11MOL   C180 3400   4.771   6.606   4.625  0.2922  0.6793 -0.1976
   11MOL   C181 3401   4.880   6.634   4.732 -0.4702  0.3067  0.2686
   11MOL   C182 3402   5.002   6.543   4.734  0.3377 -0.4319 -0.4272
   11MOL   C183 3403   4.864   6.725   4.830  0.4829 -0.5349  0.1745
   11MOL   H184 3404   4.608   6.719   4.702  1.6408 -0.0951  1.6972
   11MOL   H185 3405   4.550   6.494   4.511  2.0713  0.4633  0.3866
   11MOL   H186 3406   4.520   6.667   4.496 -1.0040  2.3129  2.1129
   11MOL   H187 3407   4.419   6.580   4.606 -0.1057 -0.0222 -0.2992
   11MOL   H188 3408   4.785   6.499   4.607 -2.6503  0.2387 -0.1246
   11MOL   H189 3409   5.062   6.565   4.822  0.3367  0.2355 -0.5900
   11MOL   H190 3410   5.064   6.579   4.651 -0.3193  0.4927 -0.5255
   11MOL   H191 3411   4.983   6.436   4.722 -1.9429  0.0775 -1.6141
   11MOL   H192 3412   4.768   6.774   4.824  0.6991 -0.1885 -0.4186
   11MOL   H193 3413   4.934   6.749   4.909  1.4418  2.8239 -1.6274
   11MOL   C194 3414   4.812   6.677   4.497  0.0713 -0.1686 -0.7541
   11MOL   C195 3415   4.761   6.818   4.501  0.6482  0.3823  0.9365
   11MOL   C196 3416   4.789   6.602   4.361 -0.1140  0.0708  0.5868
   11MOL   C197 3417   4.863   6.468   4.348 -0.2731 -0.1441  0.1489
   11MOL   C198 3418   4.778   6.357   4.285 -0.2150  0.3880  0.7796
   11MOL   C199 3419   4.990   6.443   4.399  0.0948  0.4572  0.7555
   11MOL   H200 3420   4.919   6.694   4.504 -0.3356  2.3083 -0.0913
   11MOL   H201 3421   4.784   6.857   4.600 -1.0458  1.2880  1.0044
   11MOL   H202 3422   4.654   6.826   4.479  0.7587 -1.0706 -0.1889
   11MOL   H203 3423   4.820   6.884   4.437  0.1600  1.1427  1.2572
   11MOL   H204 3424   4.682   6.582   4.369 -0.7590  2.7092 -0.8728
   11MOL   H205 3425   4.741   6.372   4.184 -2.2357  0.5403  1.5158
   11MOL   H206 3426   4.697   6.336   4.355 -0.6754  0.9717  0.4196
   11MOL   H207 3427   4.841   6.269   4.275  0.2873  0.7235  0.9485
   11MOL   H208 3428   5.055   6.522   4.433  0.5008  0.4295  0.0457
   11MOL   H209 3429   5.032   6.344   4.406  1.3511  0.9678  0.5633
   11MOL   C210 3430   4.809   6.685   4.231 -0.0113  0.2807 -0.1614
   11MOL   C211 3431   4.956   6.734   4.218 -0.1398  0.4318  0.4560
   11MOL   C212 3432   4.683   6.776   4.183 -0.5987  0.4187  0.0695
   11MOL   C213 3433   4.544   6.727   4.220 -0.5564 -0.2455  0.0935
   11MOL   C214 3434   4.501   6.581   4.183 -0.2454  0.7547 -0.4943
   11MOL   C215 3435   4.460   6.803   4.297 -0.4669  0.3659  0.0314
   11MOL   H216 3436   4.807   6.604   4.158  2.5856 -0.8817  0.9879
   11MOL   H217 3437   4.983   6.764   4.116  3.2674 -0.2099  1.1067
   11MOL   H218 3438   5.041   6.670   4.241 -1.0373 -0.8658  0.2099
   11MOL   H219 3439   4.971   6.823   4.278 -1.6177  0.5724  0.6392
   11MOL   H220 3440   4.695   6.865   4.245 -0.3017  2.0555 -2.2695
   11MOL   H221 3441   4.582   6.524   4.138 -1.0719  0.8242 -2.1142
   11MOL   H222 3442   4.413   6.575   4.118 -0.8491  0.4423  0.3463
   11MOL   H223 3443   4.476   6.527   4.274  0.3326  0.5123 -0.4820
   11MOL   H224 3444   4.488   6.902   4.329  0.4559 -0.0123  0.4445
   11MOL   H225 3445   4.361   6.778   4.330  0.0296 -1.8030 -0.0492
   11MOL   C226 3446   4.682   6.826   4.033 -0.3121 -0.6578 -0.7790
   11MOL   C227 3447   4.700   6.709   3.925  0.3288  0.2939 -0.3333
   11MOL   C228 3448   4.766   6.956   4.002 -0.3616  0.1963 -0.3934
   11MOL   C229 3449   4.677   7.069   4.050 -0.0342  0.4695 -0.0971
   11MOL   C230 3450   4.724   7.132   4.181  0.1343  0.1389 -0.4986
   11MOL   C231 3451   4.550   7.095   4.005  0.3794  0.3659 -0.2777
   11MOL   H232 3452   4.579   6.857   4.015 -0.5714 -1.0358  0.0244
   11MOL   H233 3453   4.787   6.647   3.947 -0.2904 -0.8003 -0.9698
   11MOL   H234 3454   4.700   6.739   3.821 -0.2138 -2.5398 -1.1935
   11MOL   H235 3455   4.628   6.628   3.930  0.3089  0.4400  2.4310
   11MOL   H236 3456   4.856   6.951   4.064 -0.2008  2.1458 -0.4208
   11MOL   H237 3457   4.662   7.219   4.200 -0.7520 -0.8407  1.0981
   11MOL   H238 3458   4.824   7.175   4.172 -0.7957  2.3436 -0.6405
   11MOL   H239 3459   4.710   7.070   4.269  1.5967 -0.4078 -0.6272
   11MOL   H240 3460   4.501   7.049   3.921  1.8507 -2.6764  0.4924
   11MOL   H241 3461   4.486   7.160   4.064  1.7292  0.8906  0.6504
   11MOL   C242 3462   4.819   6.980   3.858  0.1028 -0.0198 -0.1858
   11MOL   C243 3463   4.935   6.883   3.815  0.2049 -0.0241  0.2643
   11MOL   C244 3464   4.851   7.129   3.814 -0.2333 -0.4977  0.2109
   11MOL   C245 3465   4.794   7.154   3.679  1.0401 -0.2290  0.3013
   11MOL   C246 3466   4.856   7.086   3.552  0.2478  0.0603  0.5346
   11MOL   C247 3467   4.683   7.231   3.662  0.2418  0.6377  0.3099
   11MOL   H248 3468   4.740   6.956   3.787  0.6870 -0.5662 -0.6561
   11MOL   H249 3469   5.031   6.898   3.865  1.4557  0.9300 -2.3030
   11MOL   H250 3470   4.950   6.894   3.707 -1.7178  0.6175  0.0548
   11MOL   H251 3471   4.904   6.779   3.829  0.9445 -0.1551  0.9866
   11MOL   H252 3472   4.805   7.204   3.877  1.3725  1.5759 -1.0043
   11MOL   H253 3473   4.812   7.130   3.462 -0.3136  0.3742  0.9574
   11MOL   H254 3474   4.810   6.988   3.550 -0.5580  0.4385 -0.2028
   11MOL   H255 3475   4.965   7.082   3.550  0.3037  1.1298  1.0578
   11MOL   H256 3476   4.637   7.262   3.755  0.2847 -1.8182  1.1835
   11MOL   H257 3477   4.639   7.245   3.565  3.3519  0.1644 -1.2424
   11MOL   C258 3478   5.000   7.189   3.819 -0.6198 -0.6301 -0.1725
   11MOL   C259 3479   5.064   7.165   3.958  0.7205 -0.2100  0.0559
   11MOL   C260 3480   5.028   7.331   3.755  0.2151 -0.0754  0.6378
   11MOL   C261 3481   5.164   7.332   3.679 -0.3392  0.6684  0.1237
   11MOL   C262 3482   5.297   7.285   3.743 -0.1820  0.3084  0.1776
   11MOL   C263 3483   5.157   7.359   3.551 -1.0990 -0.4371  0.1222
   11MOL   H264 3484   5.061   7.122   3.759 -0.8506 -0.6940 -0.3366
   11MOL   H265 3485   5.049   7.063   3.994 -0.4844  1.3496  4.3375
   11MOL   H266 3486   5.023   7.226   4.039 -1.9902  1.0504 -2.1721
   11MOL   H267 3487   5.170   7.189   3.960  0.2248  2.0970  2.9244
   11MOL   H268 3488   4.959   7.344   3.672  1.4537 -0.1482 -0.4187
   11MOL   H269 3489   5.378   7.318   3.678 -1.0716 -1.2837 -1.7994
   11MOL   H270 3490   5.290   7.177   3.743 -0.0620  0.2812  1.8283
   11MOL   H271 3491   5.323   7.317   3.845  0.1006 -0.8637  0.4759
   11MOL   H272 3492   5.071   7.400   3.501  0.6466  0.9150 -1.8706
   11MOL   H273 3493   5.236   7.335   3.482 -0.0443  1.2860  0.7051
   11MOL   C274 3494   5.005   7.452   3.862  0.1832  0.3056 -0.6553
   11MOL   C275 3495   4.873   7.461   3.933 -0.5258  0.0348 -0.2611
   11MOL   C276 3496   5.051   7.595   3.820 -0.1918 -0.0901 -0.0149
   11MOL   C277 3497   5.140   7.664   3.924  0.4111  0.9641  0.5526
   11MOL   C278 3498   5.291   7.628   3.925  0.6377  0.2032  0.3325
   11MOL   C279 3499   5.086   7.735   4.020  0.0805  0.2533  0.5011
   11MOL   H280 3500   5.074   7.428   3.943 -0.4729 -1.3655 -0.5718
   11MOL   H281 3501   4.852   7.391   4.014 -3.8002  0.6434 -0.5455
   11MOL   H282 3502   4.794   7.459   3.859  2.0701 -1.7377 -3.1017
   11MOL   H283 3503   4.854   7.560   3.973  1.0547  0.3923 -0.3290
   11MOL   H284 3504   5.128   7.577   3.745 -0.1951  0.9370 -0.2707
   11MOL   H285 3505   5.327   7.649   4.026  0.5704 -0.3360  0.4746
   11MOL   H286 3506   5.354   7.660   3.842  0.3053 -0.6720 -0.2645
   11MOL   H287 3507   5.297   7.519   3.933 -0.1523 -0.0194 -1.8378
   11MOL   H288 3508   4.979   7.750   4.022 -0.0392 -0.4979  0.0661
   11MOL   H289 3509   5.139   7.783   4.100 -1.8772 -0.2503  2.1545
   11MOL   C290 3510   4.946   7.686   3.753 -0.4358 -0.1641 -0.8137
   11MOL   C291 3511   4.898   7.621   3.624  0.4086 -0.3038  0.1194
   11MOL   C292 3512   4.972   7.840   3.729 -0.7023  0.2346  0.3442
   11MOL   C293 3513   4.849   0.035   3.696  0.2703  0.4648 -0.2586
   11MOL   C294 3514   4.760   0.075   3.811 -0.0502  0.0673 -0.0703
   11MOL   C295 3515   4.820   0.086   3.576  0.1168 -0.0691  1.5607
   11MOL   H296 3516   4.857   7.691   3.817  1.2009 -0.2784  1.5380
   11MOL   H297 3517   4.838   7.688   3.563  2.5189  2.9270  1.4820
   11MOL   H298 3518   4.834   7.536   3.650 -1.3171  1.1361  0.6709
   11MOL   H299 3519   4.979   7.591   3.558  0.1297  2.2138 -1.4424
   11MOL   H300 3520   5.006   7.876   3.826  1.2428  1.3520 -0.7160
   11MOL   H301 3521   4.711   7.874   3.839  0.1990  0.3775  1.4594
   11MOL   H302 3522   4.675   0.139   3.789 -2.5365 -3.2220 -0.3643
   11MOL   H303 3523   4.806   0.117   3.901  3.0358 -1.3939 -0.8914
   11MOL   H304 3524   4.885   0.070   3.492  0.2667 -2.6491  2.1319
   11MOL   H305 3525   4.738   0.154   3.557  1.6302  0.9379 -1.6971
   11MOL   C306 3526   5.102   7.874   3.652 -0.7716 -0.1081 -0.4081
   11MOL   C307 3527   5.143   0.126   3.677 -0.1989 -0.3104 -0.2642
   11MOL   C308 3528   5.118   7.836   3.503  0.3918 -0.8609 -0.7443
   11MOL   C309 3529   5.226   7.743   3.455  0.1491  0.3783 -0.5094
   11MOL   C310 3530   5.180   7.658   3.335  0.4749 -0.6784 -0.2498
   11MOL   C311 3531   5.356   7.748   3.493  0.2921  0.0058  0.9809
   11MOL   H312 3532   5.179   7.804   3.685 -0.0628  1.9170  2.3786
   11MOL   H313 3533   5.141   0.155   3.782  0.3408  0.7989 -0.5490
   11MOL   H314 3534   5.074   0.194   3.627  1.4495  0.5056 -1.4890
   11MOL   H315 3535   5.247   0.143   3.649 -0.6777  1.8439 -0.7890
   11MOL   H316 3536   5.024   7.790   3.472 -1.1816  1.1756  0.8321
   11MOL   H317 3537   5.270   7.615   3.292  0.5139  1.2676 -2.2335
   11MOL   H318 3538   5.147   7.729   3.259  0.6322 -0.8773 -0.5053
   11MOL   H319 3539   5.096   7.592   3.358 -1.4603 -0.2979 -5.5161
   11MOL   H320 3540   5.391   7.814   3.571 -0.0426 -0.1218  1.2419
   11MOL   H321 3541   5.432   7.689   3.444  0.2403  0.7554 -0.0334
   11MOL   H322 3542   5.129   0.034   3.443  3.4675 -0.3860  0.4365
   12MOL     C1 3543   3.848   3.115   5.199 -0.3290 -0.4395  0.0303
   12MOL     C2 3544   3.903   2.971   5.183  0.4175  0.0124 -0.5954
   12MOL     C3 3545   3.732   3.149   5.110  0.7367  0.3957  0.1932
   12MOL     C4 3546   3.757   3.151   4.959  0.1178 -0.0088  0.6941
   12MOL     C5 3547   3.640   3.110   4.872  0.2071 -0.1977  0.0132
   12MOL     C6 3548   3.879   3.172   4.900  0.3208  0.0350 -0.4609
   12MOL     H7 3549   3.805   3.113   5.299 -0.4150 -1.2324 -0.0125
   12MOL     H8 3550   3.821   2.900   5.172  1.1628 -0.6471 -2.0726
   12MOL     H9 3551   3.962   2.949   5.272 -0.5400 -3.4946 -0.7387
   12MOL    H10 3552   3.971   2.975   5.098  0.8990  0.0831 -0.2116
   12MOL    H11 3553   3.661   3.067   5.120  0.0912  1.0248  0.8002
   12MOL    H12 3554   3.661   3.112   4.765 -0.8114 -3.0139 -0.2825
   12MOL    H13 3555   3.561   3.183   4.889  0.0308 -0.1680 -0.8821
   12MOL    H14 3556   3.607   3.011   4.904  1.0343 -1.2437 -2.2320
   12MOL    H15 3557   3.960   3.199   4.966  1.0428 -0.4596 -1.1315
   12MOL    H16 3558   3.902   3.164   4.795  1.2132 -1.3187 -0.1815
   12MOL    H17 3559   3.929   3.187   5.195 -1.6556  1.0864  0.1395
   12MOL    C18 3560   3.664   3.281   5.154  0.8901  0.5631  0.1582
   12MOL    C19 3561   3.761   3.401   5.155 -0.5196  0.4366  0.3457
   12MOL    C20 3562   3.582   3.276   5.292 -0.5626  0.3065 -0.0496
   12MOL    C21 3563   3.496   3.144   5.310  0.5560 -0.6252 -1.2084
   12MOL    C22 3564   3.387   3.121   5.213 -0.2833  0.7490  0.2317
   12MOL    C23 3565   3.505   3.065   5.416 -0.1134 -0.2318  0.2880
   12MOL    H24 3566   3.589   3.308   5.080  3.0386 -0.3357 -2.4264
   12MOL    H25 3567   3.836   3.385   5.233 -0.7690 -1.9557  0.1378
   12MOL    H26 3568   3.718   3.497   5.184  1.7193  1.8915 -0.9508
   12MOL    H27 3569   3.815   3.442   5.069  2.0099 -1.6331  0.8816
   12MOL    H28 3570   3.652   3.261   5.374 -1.5723  1.2102  0.9915
   12MOL    H29 3571   3.417   3.160   5.115 -1.1275  0.6408 -0.0731
   12MOL    H30 3572   3.296   3.170   5.247 -0.1720 -0.6645  2.7189
   12MOL    H31 3573   3.366   3.014   5.216 -3.1525  1.2300 -1.0846
   12MOL    H32 3574   3.569   3.088   5.500  1.8931  1.3832 -1.6101
   12MOL    H33 3575   3.448   2.973   5.409  0.2034 -0.3749 -0.5409
   12MOL    C34 3576   3.485   3.398   5.333 -0.0482  0.2395 -0.1836
   12MOL    C35 3577   3.423   3.459   5.206  0.4668  0.1098 -0.5887
   12MOL    C36 3578   3.552   3.504   5.435 -0.6678 -0.7882 -0.5111
   12MOL    C37 3579   3.598   3.446   5.566 -0.0169  0.4665  0.8846
   12MOL    C38 3580   3.743   3.463   5.598  0.4638 -0.6257 -0.5781
   12MOL    C39 3581   3.521   3.368   5.640 -0.1549  0.4462 -0.2796
   12MOL    H40 3582   3.404   3.342   5.380 -0.3858  0.6067 -0.3274
   12MOL    H41 3583   3.497   3.518   5.153  0.4590 -2.4554 -3.5747
   12MOL    H42 3584   3.328   3.513   5.219 -0.3405 -0.9558 -1.9491
   12MOL    H43 3585   3.397   3.379   5.137  0.3128  0.3611 -0.8267
   12MOL    H44 3586   3.646   3.512   5.381 -1.4126 -0.3559 -1.7644
   12MOL    H45 3587   3.814   3.447   5.517 -0.9792 -3.3094 -1.3648
   12MOL    H46 3588   3.778   3.404   5.683  0.4188 -1.4839 -1.1557
   12MOL    H47 3589   3.764   3.561   5.641  2.1580 -1.6112  0.9474
   12MOL    H48 3590   3.419   3.343   5.614  0.2795 -0.2219 -1.3477
   12MOL    H49 3591   3.555   3.321   5.731 -2.2386  0.0048  0.2866
   12MOL    C50 3592   3.484   3.645   5.454 -0.1047 -0.0542 -0.1541
   12MOL    C51 3593   3.338   3.629   5.488 -0.3229 -0.3173  0.1809
   12MOL    C52 3594   3.523   3.764   5.355 -0.3842 -0.0162 -0.4248
   12MOL    C53 3595   3.677   3.790   5.356 -0.8246  0.0486 -0.4918
   12MOL    C54 3596   3.758   3.789   5.223 -0.3129  0.3714 -0.1700
   12MOL    C55 3597   3.741   3.829   5.467  0.1366  0.2433 -0.4844
   12MOL    H56 3598   3.548   3.680   5.536  0.5416 -0.0820 -0.6477
   12MOL    H57 3599   3.317   3.537   5.542 -0.4189  0.1862  1.0065
   12MOL    H58 3600   3.271   3.632   5.402  3.2817  2.1516 -2.7247
   12MOL    H59 3601   3.316   3.706   5.562  1.5097 -1.0704  1.5373
   12MOL    H60 3602   3.495   3.728   5.256  1.0345  0.9207 -1.1856
   12MOL    H61 3603   3.729   3.700   5.169  1.5575 -0.6892  0.5147
   12MOL    H62 3604   3.863   3.770   5.246 -0.6300 -2.2717 -0.8054
   12MOL    H63 3605   3.744   3.868   5.149 -1.0086 -1.7063 -2.3140
   12MOL    H64 3606   3.695   3.830   5.565 -0.1521  2.2173 -0.6227
   12MOL    H65 3607   3.843   3.863   5.475  0.3410 -1.0840  3.8976
   12MOL    C66 3608   3.448   3.909   5.365 -0.3047  0.3069 -0.6238
   12MOL    C67 3609   3.443   3.967   5.506  0.0116 -0.7631 -0.7194
   12MOL    C68 3610   3.307   3.910   5.300 -0.4375  0.0586 -0.0828
   12MOL    C69 3611   3.285   3.836   5.164 -0.4504 -0.1502  0.9103
   12MOL    C70 3612   3.382   3.883   5.049  0.0259  0.4919  0.0201
   12MOL    C71 3613   3.189   3.739   5.149 -0.1313  0.3659  0.4403
   12MOL    H72 3614   3.522   3.969   5.313  2.1996 -1.4211  0.8685
   12MOL    H73 3615   3.364   3.918   5.563  0.6803 -1.2001 -0.1658
   12MOL    H74 3616   3.428   4.074   5.504  1.0952 -0.6141 -1.4958
   12MOL    H75 3617   3.538   3.952   5.558 -2.2520 -3.0587  2.9815
   12MOL    H76 3618   3.250   3.859   5.378 -1.8486 -0.7518 -1.5906
   12MOL    H77 3619   3.481   3.903   5.090  0.2895  1.7804 -1.2217
   12MOL    H78 3620   3.355   3.974   4.995 -1.0933 -0.6495 -1.4012
   12MOL    H79 3621   3.391   3.804   4.974  0.4603 -0.4025  1.0021
   12MOL    H80 3622   3.130   3.716   5.237  0.1150 -0.3720  0.4148
   12MOL    H81 3623   3.170   3.694   5.053  0.5923  0.0156  0.4532
   12MOL    C82 3624   3.240   4.050   5.290 -0.3995 -0.5208 -1.1706
   12MOL    C83 3625   3.338   4.162   5.258  0.1767  0.0238  0.0370
   12MOL    C84 3626   3.137   4.090   5.400 -0.3332  0.2628  0.1642
   12MOL    C85 3627   3.041   3.974   5.435 -0.6855  0.1170  0.0615
   12MOL    C86 3628   3.019   3.969   5.585  0.0969  0.2214  0.6161
   12MOL    C87 3629   2.976   3.900   5.341  0.1012  0.0208  0.2896
   12MOL    H88 3630   3.184   4.043   5.197 -0.4009 -0.6659 -1.1589
   12MOL    H89 3631   3.399   4.139   5.171  2.2524  1.3039  1.1350
   12MOL    H90 3632   3.404   4.206   5.332 -0.9892  4.0665 -1.2392
   12MOL    H91 3633   3.286   4.246   5.213 -0.1367  0.1960  0.7173
   12MOL    H92 3634   3.204   4.108   5.484  0.0095  1.6360 -0.3730
   12MOL    H93 3635   3.107   3.991   5.645 -0.4974 -1.9405  2.3800
   12MOL    H94 3636   2.989   3.868   5.615  3.3684 -0.7420  0.8166
   12MOL    H95 3637   2.946   4.048   5.605  1.6380  1.8506 -0.0945
   12MOL    H96 3638   2.991   3.915   5.235  3.2445 -0.1311  0.6570
   12MOL    H97 3639   2.901   3.832   5.378 -2.6802  2.7092 -0.2437
   12MOL    C98 3640   3.052   4.220   5.385  0.3311  0.8288 -0.2784
   12MOL    C99 3641   2.997   4.236   5.248  0.2174 -0.0979 -0.3409
   12MOL   C100 3642   3.122   4.348   5.441  0.2660  0.5906  0.4064
   12MOL   C101 3643   3.178   4.326   5.584 -0.1873 -1.0082  0.7313
   12MOL   C102 3644   3.332   4.353   5.604 -0.2616  0.0906 -0.1826
   12MOL   C103 3645   3.105   4.282   5.686 -0.6096 -0.3458 -0.0023
   12MOL   H104 3646   2.967   4.215   5.453  2.0776  1.7964  2.0479
   12MOL   H105 3647   3.072   4.284   5.185  2.2803 -1.0357  1.3140
   12MOL   H106 3648   2.904   4.291   5.247  0.5012  0.4519  1.5471
   12MOL   H107 3649   2.970   4.139   5.206  0.7387 -0.3919 -0.0055
   12MOL   H108 3650   3.214   4.363   5.385  0.3315 -1.5462 -0.1150
   12MOL   H109 3651   3.343   4.461   5.592  0.2731  0.2731  1.8858
   12MOL   H110 3652   3.393   4.306   5.526  0.3077  0.4970  0.0128
   12MOL   H111 3653   3.372   4.327   5.702 -2.3338  0.0333  0.6801
   12MOL   H112 3654   3.001   4.261   5.669 -0.9252  0.7041  0.5797
   12MOL   H113 3655   3.157   4.264   5.779 -0.0279  2.0984  0.1875
   12MOL   C114 3656   3.034   4.482   5.436  0.1435  0.5795 -0.2789
   12MOL   C115 3657   2.886   4.458   5.483  0.2491  0.2556 -0.0857
   12MOL   C116 3658   3.048   4.576   5.307 -0.0574 -0.0696 -0.1466
   12MOL   C117 3659   3.190   4.582   5.255 -0.2780 -0.5935  0.4326
   12MOL   C118 3660   3.286   4.655   5.350 -0.2102  0.5161 -0.4113
   12MOL   C119 3661   3.235   4.529   5.136  0.1664 -0.7543 -0.3973
   12MOL   H120 3662   3.074   4.544   5.516  0.5529 -2.2599  1.8102
   12MOL   H121 3663   2.850   4.542   5.541 -0.2060  1.1361 -1.6080
   12MOL   H122 3664   2.884   4.378   5.557 -1.4086  0.4583  0.1214
   12MOL   H123 3665   2.814   4.429   5.406 -1.5841 -0.9847  2.0357
   12MOL   H124 3666   3.004   4.510   5.233  1.3557  1.1756 -2.1491
   12MOL   H125 3667   3.388   4.654   5.312 -1.0255 -1.7982 -2.6736
   12MOL   H126 3668   3.286   4.602   5.445  2.7679 -0.1550 -0.7460
   12MOL   H127 3669   3.257   4.756   5.379 -0.4677  1.2616 -3.0829
   12MOL   H128 3670   3.167   4.474   5.071  1.3778  0.3681 -2.6670
   12MOL   H129 3671   3.338   4.534   5.106  0.0482  2.5940 -0.3953
   12MOL   C130 3672   2.982   4.716   5.307  0.0189 -0.2188 -0.0769
   12MOL   C131 3673   2.982   4.785   5.444  0.0938 -0.8819  0.3329
   12MOL   C132 3674   2.851   4.734   5.229 -0.1103  0.4894 -0.2327
   12MOL   C133 3675   2.842   4.656   5.100  0.5982 -0.1288  0.2314
   12MOL   C134 3676   2.711   4.593   5.061  0.1549  0.2659 -0.2123
   12MOL   C135 3677   2.949   4.661   5.012 -0.2624  0.7871  0.5622
   12MOL   H136 3678   3.046   4.784   5.251 -0.5661 -0.9081 -1.5921
   12MOL   H137 3679   2.971   4.893   5.430 -1.3825 -0.9158  1.1802
   12MOL   H138 3680   3.070   4.767   5.504  0.3247  0.3347  0.3852
   12MOL   H139 3681   2.892   4.744   5.491  1.1115 -1.3625  1.8949
   12MOL   H140 3682   2.787   4.672   5.292 -0.3847 -0.7864 -1.7266
   12MOL   H141 3683   2.720   4.531   4.972 -2.2440 -0.4316 -0.0242
   12MOL   H142 3684   2.654   4.683   5.039 -0.0639 -0.6713 -3.8316
   12MOL   H143 3685   2.666   4.528   5.137 -3.2504  1.2347 -1.3111
   12MOL   H144 3686   3.035   4.722   5.034  0.3538  0.4245 -0.8487
   12MOL   H145 3687   2.951   4.610   4.917 -1.1377  3.1487 -0.7533
   12MOL   C146 3688   2.799   4.880   5.203  0.3812 -0.1363  0.0416
   12MOL   C147 3689   2.907   4.974   5.145  0.3362 -0.9324 -0.3003
   12MOL   C148 3690   2.710   4.936   5.315  0.3475  0.2629 -0.0640
   12MOL   C149 3691   2.610   4.833   5.380 -0.3701 -0.2001  0.4907
   12MOL   C150 3692   2.494   4.786   5.302 -0.0608 -0.4399  0.1572
   12MOL   C151 3693   2.628   4.798   5.510  0.7456  0.1568  0.1732
   12MOL   H152 3694   2.725   4.867   5.124  0.9511 -2.1722 -0.1960
   12MOL   H153 3695   2.868   5.058   5.088 -1.2900  0.4421  2.6895
   12MOL   H154 3696   2.969   4.911   5.082  1.1706  0.9485 -1.3748
   12MOL   H155 3697   2.969   5.022   5.221 -1.7545  1.7637 -0.2216
   12MOL   H156 3698   2.776   4.963   5.397 -0.2641 -0.2246  0.5910
   12MOL   H157 3699   2.467   4.684   5.328 -1.6355  0.1573  0.8781
   12MOL   H158 3700   2.515   4.782   5.195 -1.6992 -0.9004 -0.1507
   12MOL   H159 3701   2.407   4.851   5.308 -0.1997 -0.5916 -0.1819
   12MOL   H160 3702   2.718   4.828   5.562  1.3276  1.2183 -1.4188
   12MOL   H161 3703   2.564   4.726   5.561 -0.0136 -0.8724 -2.1878
   12MOL   C162 3704   2.629   5.066   5.289 -0.0810  0.5295 -0.1775
   12MOL   C163 3705   2.573   5.069   5.139  0.1756 -0.3858  0.2544
   12MOL   C164 3706   2.713   5.193   5.324  0.0049 -0.0152 -0.0555
   12MOL   C165 3707   2.770   5.195   5.476 -0.0098 -0.4794  0.1899
   12MOL   C166 3708   2.904   5.270   5.488 -0.4088 -0.9258  0.4506
   12MOL   C167 3709   2.701   5.148   5.580  0.4183  0.3277 -0.0785
   12MOL   H168 3710   2.539   5.069   5.350 -0.3259 -2.3602 -0.3008
   12MOL   H169 3711   2.523   5.161   5.106 -0.3042 -0.4225  0.8766
   12MOL   H170 3712   2.509   4.984   5.116 -2.2959  1.4643  0.0715
   12MOL   H171 3713   2.657   5.067   5.070  0.7557 -2.9407  0.9784
   12MOL   H172 3714   2.808   5.189   5.271 -1.4633 -0.3406 -2.7496
   12MOL   H173 3715   2.888   5.378   5.493  1.3019 -0.5533 -1.2481
   12MOL   H174 3716   2.972   5.251   5.405 -2.3907  1.6208 -1.8534
   12MOL   H175 3717   2.959   5.238   5.576 -0.2189  1.4260  1.2025
   12MOL   H176 3718   2.606   5.098   5.568  0.4093  0.4129 -0.3620
   12MOL   H177 3719   2.738   5.162   5.681  0.3865  1.1075 -0.1727
   12MOL   C178 3720   2.649   5.331   5.300  0.5967  0.2597  0.2467
   12MOL   C179 3721   2.506   5.341   5.366 -0.3444  0.0724 -0.2993
   12MOL   C180 3722   2.659   5.401   5.155 -0.6521  0.4285 -0.1779
   12MOL   C181 3723   2.798   5.397   5.091 -0.4684 -0.6608  0.0628
   12MOL   C182 3724   2.807   5.366   4.944 -0.0725 -0.6631 -0.0952
   12MOL   C183 3725   2.912   5.417   5.166  0.5640 -0.8558  0.5952
   12MOL   H184 3726   2.710   5.388   5.370  2.8089 -3.0180  1.1618
   12MOL   H185 3727   2.493   5.446   5.392  1.1167  0.2493 -0.2471
   12MOL   H186 3728   2.500   5.281   5.457  1.7417  0.2275 -0.0360
   12MOL   H187 3729   2.428   5.303   5.300 -1.2438 -2.9717  2.3910
   12MOL   H188 3730   2.593   5.341   5.092  0.9741 -0.1559 -1.3565
   12MOL   H189 3731   2.755   5.447   4.891 -0.9840 -0.1718  1.5166
   12MOL   H190 3732   2.750   5.274   4.929  1.5440 -1.5560 -0.8640
   12MOL   H191 3733   2.902   5.356   4.892  0.0411 -0.1385  0.0074
   12MOL   H192 3734   2.914   5.442   5.272  2.0731 -0.8357  0.5673
   12MOL   H193 3735   3.009   5.421   5.119  0.3186 -1.8461  0.0015
   12MOL   C194 3736   2.596   5.542   5.130 -0.0073 -0.6585  0.1800
   12MOL   C195 3737   2.630   5.638   5.247  0.7305  0.0789 -0.3958
   12MOL   C196 3738   2.437   5.550   5.098 -0.0564  0.3553 -0.2716
   12MOL   C197 3739   2.399   5.454   4.987  0.0588 -0.4189  0.8172
   12MOL   C198 3740   2.289   5.354   5.018 -0.1983  0.5022  0.0770
   12MOL   C199 3741   2.458   5.453   4.863  0.6033 -0.0247 -0.3324
   12MOL   H200 3742   2.644   5.579   5.040 -0.6781  1.7544  0.7653
   12MOL   H201 3743   2.630   5.741   5.214 -0.8309  0.5152  0.9500
   12MOL   H202 3744   2.734   5.615   5.272  0.1535 -2.4238 -0.1493
   12MOL   H203 3745   2.565   5.629   5.334 -0.8228  0.7031 -1.4821
   12MOL   H204 3746   2.389   5.505   5.185 -0.9699  0.2636 -0.8119
   12MOL   H205 3747   2.290   5.280   4.938  0.6800 -1.2904  1.7228
   12MOL   H206 3748   2.196   5.409   5.004 -0.4909  0.0148  0.1169
   12MOL   H207 3749   2.287   5.307   5.116  2.8133 -0.7040 -0.3816
   12MOL   H208 3750   2.533   5.526   4.835  0.7233 -0.8509 -2.2072
   12MOL   H209 3751   2.429   5.371   4.800  0.3850 -1.0968  1.1234
   12MOL   C210 3752   2.373   5.689   5.090  0.8628  0.4934  0.1624
   12MOL   C211 3753   2.217   5.694   5.104  0.1776  0.0620  0.0509
   12MOL   C212 3754   2.423   5.780   4.968 -0.3083 -0.0194  0.1970
   12MOL   C213 3755   2.507   5.895   5.018  0.2356 -0.0337  0.0530
   12MOL   C214 3756   2.444   6.012   5.090 -0.1599  0.9130  0.5109
   12MOL   C215 3757   2.642   5.891   5.004  0.4002 -0.1930 -0.2375
   12MOL   H216 3758   2.400   5.737   5.184 -0.9377 -0.5032  1.2171
   12MOL   H217 3759   2.172   5.660   5.011  0.2390  1.9831 -0.7142
   12MOL   H218 3760   2.183   5.796   5.125  2.6468  0.8785  0.2038
   12MOL   H219 3761   2.174   5.631   5.181 -0.2972 -0.1417 -0.3802
   12MOL   H220 3762   2.477   5.709   4.906  0.0442  0.8001 -0.4457
   12MOL   H221 3763   2.515   6.091   5.115  1.2450 -0.4725  0.9857
   12MOL   H222 3764   2.422   5.968   5.188 -1.2731  0.6579  0.1608
   12MOL   H223 3765   2.352   6.057   5.052 -1.1544 -0.9747  0.6181
   12MOL   H224 3766   2.702   5.811   4.962  0.3538 -0.0185 -0.6358
   12MOL   H225 3767   2.695   5.977   5.042 -2.4922  0.9538  1.4159
   12MOL   C226 3768   2.317   5.824   4.852  0.0415  0.5463 -0.3460
   12MOL   C227 3769   2.279   5.706   4.770  0.0531  1.1005 -0.1080
   12MOL   C228 3770   2.357   5.948   4.763 -0.0424 -0.3207 -0.1633
   12MOL   C229 3771   2.227   6.032   4.734 -0.5274 -0.1249 -0.7079
   12MOL   C230 3772   2.121   5.974   4.642  0.2143  0.0289 -0.0289
   12MOL   C231 3773   2.206   6.150   4.794 -0.0808  0.1601 -0.8341
   12MOL   H232 3774   2.230   5.855   4.910  0.4629 -0.8493  1.0703
   12MOL   H233 3775   2.251   5.616   4.823  0.3261  1.3994  0.5552
   12MOL   H234 3776   2.349   5.657   4.702 -1.2715  0.3244 -0.9187
   12MOL   H235 3777   2.196   5.730   4.704  1.0089  1.6718 -1.1185
   12MOL   H236 3778   2.408   6.013   4.833  1.0342 -1.6568  0.3018
   12MOL   H237 3779   2.172   5.901   4.580  2.1425  0.5310  0.9089
   12MOL   H238 3780   2.079   6.056   4.584  0.2948 -0.8829 -1.3969
   12MOL   H239 3781   2.046   5.933   4.709  1.3930  0.8701  1.8505
   12MOL   H240 3782   2.267   6.201   4.867 -1.9448  0.2191  0.7286
   12MOL   H241 3783   2.109   6.190   4.769  0.8654  2.0188 -1.6181
   12MOL   C242 3784   2.447   5.936   4.631 -0.5095  0.4971 -0.1305
   12MOL   C243 3785   2.581   5.854   4.662 -0.1318 -0.6947 -0.0456
   12MOL   C244 3786   2.474   6.064   4.553 -0.0098 -0.5973  0.1043
   12MOL   C245 3787   2.493   6.023   4.402  0.1520  0.4944 -0.4245
   12MOL   C246 3788   2.371   6.002   4.317 -0.5426 -0.2267 -0.0844
   12MOL   C247 3789   2.615   6.015   4.350  0.3156  0.0483  0.0243
   12MOL   H248 3790   2.391   5.865   4.570 -0.8983 -0.1169  0.9211
   12MOL   H249 3791   2.624   5.835   4.564 -0.0784  2.3041 -0.6599
   12MOL   H250 3792   2.556   5.752   4.689 -0.1365 -0.4836  0.7494
   12MOL   H251 3793   2.655   5.900   4.728 -2.5788 -1.0391  3.0445
   12MOL   H252 3794   2.382   6.122   4.548 -0.1998 -0.9478 -0.5206
   12MOL   H253 3795   2.319   6.097   4.312  0.2262  0.2365  0.5932
   12MOL   H254 3796   2.306   5.927   4.363 -1.9561  0.2715 -1.2430
   12MOL   H255 3797   2.388   5.958   4.219  1.1580 -1.2735  0.6581
   12MOL   H256 3798   2.701   6.038   4.410 -0.5714  0.0498  1.3193
   12MOL   H257 3799   2.621   5.992   4.244  0.2168 -0.5562  0.1521
   12MOL   C258 3800   2.586   6.173   4.598 -0.1841 -0.2389 -0.2789
   12MOL   C259 3801   2.582   6.185   4.753 -0.3882  0.4417 -0.1426
   12MOL   C260 3802   2.584   6.313   4.525 -0.0632  0.0275  0.1488
   12MOL   C261 3803   2.725   6.358   4.482 -0.1726  0.1301  0.2008
   12MOL   C262 3804   2.818   6.415   4.586 -0.5252  0.1557 -0.6522
   12MOL   C263 3805   2.764   6.345   4.351  0.1546 -0.2325 -0.1137
   12MOL   H264 3806   2.689   6.141   4.580  1.0826  1.0472  4.1546
   12MOL   H265 3807   2.642   6.271   4.785  2.2080 -1.4810  0.3771
   12MOL   H266 3808   2.617   6.096   4.806  0.2229  0.6811 -0.1419
   12MOL   H267 3809   2.487   6.206   4.802 -0.0084  1.7813  0.0502
   12MOL   H268 3810   2.538   6.296   4.427 -0.3166 -0.8374  0.4130
   12MOL   H269 3811   2.891   6.483   4.543 -0.4356 -0.4772 -1.4989
   12MOL   H270 3812   2.865   6.330   4.634 -2.5742 -0.5983  0.0994
   12MOL   H271 3813   2.761   6.465   4.665  0.1731 -1.9940  1.2452
   12MOL   H272 3814   2.688   6.315   4.281 -0.5465  0.2870  0.4191
   12MOL   H273 3815   2.866   6.374   4.328  1.5241 -1.3336  4.0999
   12MOL   C274 3816   2.504   6.435   4.570 -1.3410 -0.7074 -0.4461
   12MOL   C275 3817   2.362   6.395   4.610  0.3324 -0.1073 -0.0596
   12MOL   C276 3818   2.509   6.572   4.481 -0.3870  0.4319  0.7643
   12MOL   C277 3819   2.547   6.694   4.564  0.0311  0.1825  0.1170
   12MOL   C278 3820   2.605   6.819   4.489 -0.3343  0.2158 -0.2921
   12MOL   C279 3821   2.533   6.702   4.697  0.0585 -0.1489 -0.2675
   12MOL   H280 3822   2.553   6.452   4.666 -1.9218 -1.1723 -0.0618
   12MOL   H281 3823   2.316   6.483   4.653  2.8934  3.0067 -3.4162
   12MOL   H282 3824   2.366   6.330   4.697 -1.4703  0.8426  0.7604
   12MOL   H283 3825   2.308   6.363   4.521 -0.8563  0.7272  0.3504
   12MOL   H284 3826   2.604   6.565   4.427 -0.8471  1.1389 -0.1431
   12MOL   H285 3827   2.696   6.795   4.434  0.7798 -0.0056  1.6134
   12MOL   H286 3828   2.643   6.893   4.559  0.2819  0.7273 -1.1592
   12MOL   H287 3829   2.526   6.855   4.423 -0.1960  1.0157 -0.0303
   12MOL   H288 3830   2.506   6.619   4.762  2.0897 -2.8530 -2.7357
   12MOL   H289 3831   2.556   6.796   4.744 -1.6368 -0.5886  1.5062
   12MOL   C290 3832   2.384   6.607   4.390 -0.3153  0.2758  0.6011
   12MOL   C291 3833   2.258   6.650   4.468 -0.0115 -0.6753  0.3611
   12MOL   C292 3834   2.362   6.513   4.258  0.3131 -0.2202 -0.0623
   12MOL   C293 3835   2.481   6.488   4.172  0.5459 -0.0560 -0.0029
   12MOL   C294 3836   2.487   6.346   4.116 -0.4348 -0.2897  0.2473
   12MOL   C295 3837   2.565   6.582   4.132  0.0439  0.3184 -0.4721
   12MOL   H296 3838   2.410   6.699   4.338 -0.4235 -0.7078 -1.2421
   12MOL   H297 3839   2.279   6.708   4.558 -2.3324 -0.4745  0.8043
   12MOL   H298 3840   2.192   6.568   4.493  3.0726 -3.1997  0.5539
   12MOL   H299 3841   2.194   6.718   4.412  1.6463 -1.9447 -3.2459
   12MOL   H300 3842   2.333   6.414   4.293  0.3993 -0.7053 -1.3397
   12MOL   H301 3843   2.482   6.274   4.198  1.3878 -1.6641 -0.8149
   12MOL   H302 3844   2.572   6.313   4.056  1.0114  1.9635  0.9929
   12MOL   H303 3845   2.402   6.326   4.050 -0.9275 -0.4809  0.9352
   12MOL   H304 3846   2.558   6.685   4.163  0.2821  0.4802 -0.9563
   12MOL   H305 3847   2.640   6.558   4.059  0.7313  2.4266 -0.4721
   12MOL   C306 3848   2.233   6.552   4.170  0.1336  0.6780  0.4660
   12MOL   C307 3849   2.244   6.699   4.124  0.3151  0.2449  0.1690
   12MOL   C308 3850   2.091   6.532   4.216  0.0486 -0.0166  0.3588
   12MOL   C309 3851   2.057   6.387   4.247  0.5605  0.5644 -0.2502
   12MOL   C310 3852   2.069   6.284   4.137  0.6646 -0.4339 -0.4543
   12MOL   C311 3853   2.015   6.345   4.368 -0.7349  0.1337 -0.5615
   12MOL   H312 3854   2.246   6.482   4.087  0.3979 -0.2166  1.2463
   12MOL   H313 3855   2.342   6.715   4.079  0.3246  2.0574  0.7724
   12MOL   H314 3856   2.230   6.771   4.205 -2.3973  0.0904 -0.1156
   12MOL   H315 3857   2.172   6.728   4.048 -0.0490 -0.1136  0.3781
   12MOL   H316 3858   2.056   6.597   4.296 -1.7941  0.0924 -0.5145
   12MOL   H317 3859   2.054   6.323   4.036 -3.5797 -0.6652  0.0077
   12MOL   H318 3860   1.994   6.207   4.153  0.4870 -0.1929 -0.1113
   12MOL   H319 3861   2.166   6.235   4.136  0.0774 -1.8146  2.9053
   12MOL   H320 3862   2.012   6.414   4.451  1.0831  0.7918 -1.0185
   12MOL   H321 3863   1.975   6.245   4.377 -2.8192  0.8665 -1.3740
   12MOL   H322 3864   2.022   6.555   4.135  0.6237 -2.5988 -0.9106
   13MOL     C1 3865   1.159   7.629   3.571 -0.1147 -0.1421 -0.1258
   13MOL     C2 3866   1.278   7.708   3.515  0.4022 -0.6454  0.6901
   13MOL     C3 3867   1.148   7.489   3.516  0.5384  0.0342 -0.4328
   13MOL     C4 3868   1.088   7.487   3.372 -0.1102 -0.9381  0.0396
   13MOL     C5 3869   1.106   7.356   3.286  0.5499 -0.5142 -0.2415
   13MOL     C6 3870   1.028   7.593   3.312  0.4223 -0.1627 -0.2678
   13MOL     H7 3871   1.172   7.618   3.679  0.0274  0.0527 -0.1212
   13MOL     H8 3872   1.277   7.803   3.567  0.9503  0.1622 -0.7500
   13MOL     H9 3873   1.253   7.734   3.412  0.5828  1.0303  1.0704
   13MOL    H10 3874   1.378   7.665   3.525  0.0678 -1.3613  1.0248
   13MOL    H11 3875   1.249   7.449   3.509  1.4504  2.0363  0.8180
   13MOL    H12 3876   1.045   7.350   3.196  0.9789  2.0188 -0.7475
   13MOL    H13 3877   1.079   7.275   3.354  0.1772  0.1655  0.4310
   13MOL    H14 3878   1.207   7.337   3.250  1.6046 -1.0660  2.8200
   13MOL    H15 3879   1.000   7.686   3.358 -1.2858 -1.6958  1.9100
   13MOL    H16 3880   0.991   7.584   3.211 -0.6564  0.5478  0.0491
   13MOL    H17 3881   1.064   7.680   3.556 -1.3973 -2.6807 -0.9357
   13MOL    C18 3882   1.066   7.389   3.610 -0.1132  0.1434 -0.0704
   13MOL    C19 3883   0.923   7.434   3.633  0.0399 -0.2764 -0.1850
   13MOL    C20 3884   1.130   7.356   3.753 -0.3170 -1.0443 -0.0749
   13MOL    C21 3885   1.283   7.323   3.746 -0.2752 -0.0757  0.4640
   13MOL    C22 3886   1.327   7.194   3.680 -0.1402  0.3693  0.3586
   13MOL    C23 3887   1.379   7.414   3.777 -0.7273 -0.6964 -0.3704
   13MOL    H24 3888   1.053   7.293   3.561  0.7374 -0.5033  0.9726
   13MOL    H25 3889   0.854   7.354   3.659 -0.1281  0.0173  0.2843
   13MOL    H26 3890   0.875   7.480   3.546 -1.2588  0.1983  0.7534
   13MOL    H27 3891   0.928   7.507   3.714  1.1320  1.3164 -1.6373
   13MOL    H28 3892   1.130   7.450   3.807 -0.3549 -1.8236  1.3207
   13MOL    H29 3893   1.281   7.113   3.736  0.1462 -0.0562 -0.0181
   13MOL    H30 3894   1.430   7.166   3.657 -0.6133 -0.4209 -0.8792
   13MOL    H31 3895   1.281   7.199   3.581  0.4896 -1.5125 -0.0630
   13MOL    H32 3896   1.349   7.512   3.813  2.0191  0.4067 -0.9962
   13MOL    H33 3897   1.483   7.391   3.767 -0.8311 -1.1958 -0.3153
   13MOL    C34 3898   1.061   7.252   3.853  0.0738  0.1132 -0.4829
   13MOL    C35 3899   0.989   7.142   3.771 -1.1412 -0.4351 -0.3742
   13MOL    C36 3900   0.970   7.323   3.961 -0.7554 -0.2801 -0.6337
   13MOL    C37 3901   1.042   7.427   4.039  0.7658  0.1284  0.6068
   13MOL    C38 3902   0.948   7.544   4.078  0.1096 -0.3461  0.1128
   13MOL    C39 3903   1.170   7.422   4.081  0.1957 -0.8042  0.5429
   13MOL    H40 3904   1.140   7.198   3.907  0.0055  1.1281  0.6618
   13MOL    H41 3905   0.979   7.050   3.829  3.4004 -0.8618 -0.0206
   13MOL    H42 3906   1.050   7.105   3.689 -0.7646 -3.2124  1.0984
   13MOL    H43 3907   0.892   7.171   3.733 -0.8667 -2.1449 -2.4714
   13MOL    H44 3908   0.902   7.382   3.900  0.2782 -0.2405 -1.7756
   13MOL    H45 3909   0.887   7.528   4.167  0.5496 -0.7856  0.3309
   13MOL    H46 3910   0.884   7.566   3.992  0.5924  0.6701  0.0037
   13MOL    H47 3911   1.008   7.634   4.090  0.6162 -0.8450  1.4330
   13MOL    H48 3912   1.232   7.343   4.042 -1.1177 -0.7134 -1.7846
   13MOL    H49 3913   1.224   7.500   4.133 -1.0530  0.9488 -0.7628
   13MOL    C50 3914   0.889   7.237   4.055  0.3044  0.2673  0.2207
   13MOL    C51 3915   0.977   7.129   4.118 -0.5112 -0.0423  0.5970
   13MOL    C52 3916   0.750   7.174   3.994 -0.6125  0.3970  0.4898
   13MOL    C53 3917   0.665   7.262   3.903 -0.4976  0.2545 -0.4597
   13MOL    C54 3918   0.639   7.404   3.953  0.2612 -0.0196  0.1608
   13MOL    C55 3919   0.632   7.216   3.783 -0.3898  0.1777  0.0377
   13MOL    H56 3920   0.858   7.298   4.140 -1.0680  1.0806 -0.8280
   13MOL    H57 3921   1.009   7.042   4.062  1.9127  1.4736 -0.4606
   13MOL    H58 3922   0.921   7.083   4.199  1.0699 -1.2218  1.0412
   13MOL    H59 3923   1.072   7.168   4.155 -0.3790 -2.0576  2.4757
   13MOL    H60 3924   0.793   7.101   3.925 -0.2921  1.4631 -0.4489
   13MOL    H61 3925   0.690   7.471   3.885  0.7753  0.4058  0.9572
   13MOL    H62 3926   0.661   7.429   4.057 -1.6971 -1.9200  1.0753
   13MOL    H63 3927   0.531   7.419   3.947  0.1094 -0.7336  0.9797
   13MOL    H64 3928   0.659   7.117   3.751  1.3235  0.1509  1.4342
   13MOL    H65 3929   0.573   7.269   3.710 -0.0022  0.7389  0.1259
   13MOL    C66 3930   0.652   7.085   4.087  0.2721  0.2159 -0.1116
   13MOL    C67 3931   0.636   7.153   4.223  0.2542  0.0544 -0.5340
   13MOL    C68 3932   0.698   6.937   4.098  0.4828  0.0690 -0.3167
   13MOL    C69 3933   0.716   6.865   3.964 -0.7670 -0.0400  0.2572
   13MOL    C70 3934   0.587   6.850   3.880  0.0475  0.1468 -0.1984
   13MOL    C71 3935   0.831   6.823   3.922 -0.5311  0.5290  0.2065
   13MOL    H72 3936   0.549   7.080   4.051  0.6784  0.5302 -1.3785
   13MOL    H73 3937   0.593   7.251   4.202  0.7549  0.9603  2.4279
   13MOL    H74 3938   0.728   7.172   4.279  0.6148  1.9124 -1.7299
   13MOL    H75 3939   0.564   7.113   4.295 -1.0085  0.8957 -1.3182
   13MOL    H76 3940   0.799   6.933   4.137 -0.1239 -2.3437  1.0594
   13MOL    H77 3941   0.534   6.945   3.877  1.2678  0.8020 -2.9333
   13MOL    H78 3942   0.523   6.774   3.923  0.0345  1.9111  3.0431
   13MOL    H79 3943   0.617   6.826   3.778 -1.2664  0.5903 -0.7025
   13MOL    H80 3944   0.919   6.829   3.984 -0.3783 -1.0415  0.1556
   13MOL    H81 3945   0.852   6.778   3.826  1.8502  2.3398 -0.1704
   13MOL    C82 3946   0.610   6.845   4.193 -0.6493  0.5780 -0.4830
   13MOL    C83 3947   0.463   6.874   4.208 -0.3775  0.5818  0.0850
   13MOL    C84 3948   0.678   6.828   4.335  0.7941 -0.4450 -0.2777
   13MOL    C85 3949   0.820   6.776   4.326  0.4764  0.2849  0.0009
   13MOL    C86 3950   0.913   6.822   4.435  0.0367 -0.2786  0.0036
   13MOL    C87 3951   0.873   6.694   4.228 -0.3213  0.0994  0.2174
   13MOL    H88 3952   0.616   6.743   4.156 -0.3208  0.9579 -1.5087
   13MOL    H89 3953   0.443   6.953   4.281 -1.5655 -0.8659  1.3418
   13MOL    H90 3954   0.414   6.779   4.228 -0.2443  0.4541 -0.2064
   13MOL    H91 3955   0.410   6.910   4.120 -0.6721 -3.5412 -1.5189
   13MOL    H92 3956   0.709   6.930   4.353  0.9300 -0.4750 -0.3441
   13MOL    H93 3957   0.927   6.929   4.428 -0.1826 -0.0664  2.6154
   13MOL    H94 3958   1.007   6.775   4.403  0.1326  0.7924 -1.3483
   13MOL    H95 3959   0.886   6.778   4.530 -1.2037 -0.6122 -0.4981
   13MOL    H96 3960   0.813   6.659   4.146  0.4293  0.3063 -0.4272
   13MOL    H97 3961   0.975   6.659   4.234 -0.1369  0.3563 -1.3016
   13MOL    C98 3962   0.600   6.756   4.451 -0.3439  0.0422  0.8657
   13MOL    C99 3963   0.562   6.617   4.403 -0.2068 -0.5654  0.2352
   13MOL   C100 3964   0.488   6.825   4.528  0.3277  0.1978 -0.5458
   13MOL   C101 3965   0.517   6.979   4.550  0.8565  0.4131 -0.0546
   13MOL   C102 3966   0.396   7.067   4.547 -0.3126 -0.9239 -0.4451
   13MOL   C103 3967   0.633   7.034   4.582  0.1560 -0.4777  0.1156
   13MOL   H104 3968   0.676   6.739   4.527  1.0860  0.6556 -0.3839
   13MOL   H105 3969   0.456   6.599   4.387  0.0383 -0.3495 -1.7117
   13MOL   H106 3970   0.599   6.544   4.475 -0.3054 -1.3979 -0.5470
   13MOL   H107 3971   0.611   6.601   4.307 -0.6703  0.2243 -0.1353
   13MOL   H108 3972   0.401   6.819   4.461  1.1942  2.0734 -1.8968
   13MOL   H109 3973   0.329   7.043   4.629  0.7363  0.0772  0.7403
   13MOL   H110 3974   0.344   7.029   4.459 -2.2199 -0.3462  0.4002
   13MOL   H111 3975   0.422   7.172   4.528  1.0336 -0.5548  3.1209
   13MOL   H112 3976   0.727   6.981   4.592  0.4306  0.3358  2.0104
   13MOL   H113 3977   0.639   7.142   4.583 -0.5447 -0.3990 -1.9512
   13MOL   C114 3978   0.445   6.764   4.668 -0.2598 -0.4180 -0.7803
   13MOL   C115 3979   0.570   6.751   4.763 -0.3689  0.1065 -0.1918
   13MOL   C116 3980   0.353   6.637   4.672 -0.5876 -0.6708  0.7762
   13MOL   C117 3981   0.232   6.643   4.571 -1.0933  0.1502  0.4275
   13MOL   C118 3982   0.155   6.776   4.562 -0.2033 -0.1562  0.2199
   13MOL   C119 3983   0.208   6.545   4.483  0.8041 -0.2870  0.0132
   13MOL   H120 3984   0.390   6.841   4.721  0.8561  1.2023 -1.9533
   13MOL   H121 3985   0.639   6.669   4.743 -0.0916  0.0532  0.9501
   13MOL   H122 3986   0.528   6.744   4.863 -0.8886  0.5515 -0.3779
   13MOL   H123 3987   0.633   6.840   4.760 -2.2697  1.4176 -4.5198
   13MOL   H124 3988   0.416   6.565   4.619 -0.2716 -1.1949  1.8499
   13MOL   H125 3989   0.056   6.742   4.591 -0.5341 -0.9912 -1.7870
   13MOL   H126 3990   0.146   6.804   4.457 -2.0003 -0.2529  0.3356
   13MOL   H127 3991   0.204   6.848   4.628  0.3733 -0.2399 -0.1059
   13MOL   H128 3992   0.259   6.450   4.476 -0.0549 -0.7562  0.0130
   13MOL   H129 3993   0.128   6.566   4.414  1.1852 -0.8066 -0.5922
   13MOL   C130 3994   0.314   6.578   4.807 -0.5262 -0.7600 -0.3067
   13MOL   C131 3995   0.259   6.683   4.897  0.4133 -0.2636 -0.1432
   13MOL   C132 3996   0.412   6.470   4.870 -0.8019 -0.1879 -0.2979
   13MOL   C133 3997   0.482   6.379   4.767 -0.2862  0.6882 -0.0282
   13MOL   C134 3998   0.395   6.290   4.676  0.3562 -0.1982  0.2207
   13MOL   C135 3999   0.611   6.375   4.762  0.3135  0.3217 -0.1733
   13MOL   H136 4000   0.221   6.522   4.795 -0.4407 -0.7201 -1.1658
   13MOL   H137 4001   0.216   6.763   4.836  0.5094  0.8050  1.1594
   13MOL   H138 4002   0.340   6.728   4.955  0.5015  0.9798 -1.2059
   13MOL   H139 4003   0.179   6.653   4.965  1.2131 -0.9743  0.4947
   13MOL   H140 4004   0.492   6.534   4.906 -1.0094 -0.2464  0.2635
   13MOL   H141 4005   0.444   6.268   4.581 -0.4306 -0.1477 -0.1981
   13MOL   H142 4006   0.297   6.336   4.664  0.7981  0.0394 -2.8063
   13MOL   H143 4007   0.386   6.191   4.722  1.5028  0.5168  2.0185
   13MOL   H144 4008   0.675   6.427   4.832 -2.0021 -0.1723  2.3845
   13MOL   H145 4009   0.657   6.311   4.688 -0.2690 -1.1868  0.7395
   13MOL   C146 4010   0.365   6.397   4.998  0.4566 -0.6613 -0.6979
   13MOL   C147 4011   0.220   6.337   4.994  0.6003  0.1281  0.0022
   13MOL   C148 4012   0.401   6.472   5.134 -0.0664  0.3319 -0.9471
   13MOL   C149 4013   0.553   6.495   5.152  0.1475 -0.3947 -0.5725
   13MOL   C150 4014   0.595   6.644   5.198  0.3269  0.3022 -0.4886
   13MOL   C151 4015   0.647   6.408   5.113 -1.4818  1.1753  0.2147
   13MOL   H152 4016   0.420   6.303   4.989 -2.1220 -2.4587  1.2372
   13MOL   H153 4017   0.206   6.259   5.069 -0.7927  0.5797  0.2347
   13MOL   H154 4018   0.190   6.289   4.901 -0.7273  1.3255 -0.2016
   13MOL   H155 4019   0.149   6.418   5.011  1.1874  0.7636 -0.5539
   13MOL   H156 4020   0.350   6.566   5.119 -2.2406 -0.6257  0.2697
   13MOL   H157 4021   0.559   6.720   5.129  0.9454 -0.1882 -1.3575
   13MOL   H158 4022   0.703   6.661   5.203  0.5876 -1.3693 -0.1259
   13MOL   H159 4023   0.562   6.660   5.301 -0.6844 -0.0195 -0.7611
   13MOL   H160 4024   0.616   6.319   5.059 -2.5957 -0.2592  3.1042
   13MOL   H161 4025   0.752   6.436   5.119 -1.1209  0.5303 -2.5824
   13MOL   C162 4026   0.343   6.421   5.276 -0.3372  0.1484 -0.0553
   13MOL   C163 4027   0.384   6.276   5.303 -0.0447  0.1242  0.3303
   13MOL   C164 4028   0.192   6.449   5.303 -0.4471 -0.4827  1.2504
   13MOL   C165 4029   0.142   6.587   5.258 -0.1429 -0.2095  0.0864
   13MOL   C166 4030   0.211   6.712   5.309 -0.2518 -0.3153 -0.9300
   13MOL   C167 4031   0.031   6.605   5.181 -0.2372  0.4933 -0.8689
   13MOL   H168 4032   0.400   6.474   5.353 -1.0578  2.1801 -0.9047
   13MOL   H169 4033   0.492   6.271   5.289 -0.0759  0.7749 -0.1573
   13MOL   H170 4034   0.329   6.205   5.242  0.8687  0.3996 -0.8295
   13MOL   H171 4035   0.389   6.239   5.406  2.6602 -0.7531 -0.0799
   13MOL   H172 4036   0.134   6.386   5.236  1.0422  2.1437 -2.7125
   13MOL   H173 4037   0.207   6.797   5.241  0.6161  1.1703  0.8477
   13MOL   H174 4038   0.316   6.705   5.335 -0.0292  0.1642 -1.6765
   13MOL   H175 4039   0.156   6.758   5.391  2.1442  2.1041 -0.6298
   13MOL   H176 4040   7.857   6.529   5.145 -0.8106  0.2833  0.6043
   13MOL   H177 4041   7.882   6.700   5.148  2.0295  1.9163  0.2352
   13MOL   C178 4042   0.123   6.423   5.438  0.7603  0.0601 -1.5238
   13MOL   C179 4043   0.213   6.477   5.549 -0.5844 -0.7236 -0.2397
   13MOL   C180 4044   0.095   6.263   5.469 -0.6073 -0.1287 -0.8794
   13MOL   C181 4045   0.012   6.195   5.359 -0.3313 -0.1633  0.2828
   13MOL   C182 4046   0.036   6.044   5.351  0.5589  1.0625 -0.6017
   13MOL   C183 4047   7.814   6.252   5.276 -0.4262  0.5129  0.2142
   13MOL   H184 4048   0.034   6.484   5.450 -0.3492 -1.8745  0.4981
   13MOL   H185 4049   0.307   6.423   5.546  0.6053  1.2312  0.7124
   13MOL   H186 4050   0.155   6.468   5.642 -0.5067 -0.0328 -0.1222
   13MOL   H187 4051   0.230   6.583   5.535 -0.1590 -0.8591 -0.7495
   13MOL   H188 4052   0.189   6.209   5.461  0.9472  2.4449 -0.5744
   13MOL   H189 4053   7.889   6.009   5.256  0.6928  0.1098 -0.3175
   13MOL   H190 4054   7.864   5.998   5.426  0.6385 -0.2205 -1.2961
   13MOL   H191 4055   0.135   6.005   5.375  0.4307 -0.2862 -2.1737
   13MOL   H192 4056   7.787   6.356   5.286  2.9605  1.2926  2.0172
   13MOL   H193 4057   7.752   6.199   5.205 -2.1935  0.3595  1.8380
   13MOL   C194 4058   0.030   6.223   5.605  0.3272  0.0246  0.2389
   13MOL   C195 4059   7.792   6.306   5.629  0.3607  0.2556 -0.6705
   13MOL   C196 4060   0.129   6.214   5.727  0.7146 -0.2593 -0.2504
   13MOL   C197 4061   0.266   6.132   5.702  0.2183 -0.0434 -0.3811
   13MOL   C198 4062   0.253   5.988   5.667 -0.0505  0.6090  0.7769
   13MOL   C199 4063   0.387   6.186   5.711  0.0410 -0.7197 -0.1093
   13MOL   H200 4064   7.879   6.123   5.596 -0.8719  0.5244  0.3609
   13MOL   H201 4065   7.809   6.399   5.683  1.2348  0.7300 -1.7391
   13MOL   H202 4066   7.722   6.236   5.675  2.2308 -0.9436  0.4062
   13MOL   H203 4067   7.748   6.332   5.533 -0.2606 -1.4600 -0.8571
   13MOL   H204 4068   0.177   6.312   5.734 -1.2702  0.6445  1.3380
   13MOL   H205 4069   0.241   5.932   5.760  1.0575 -0.4364  0.3062
   13MOL   H206 4070   0.341   5.954   5.612  0.8039  2.4761  0.9229
   13MOL   H207 4071   0.170   5.966   5.601  0.5754  3.9278 -1.2463
   13MOL   H208 4072   0.398   6.288   5.743 -0.1889 -0.8355  0.3506
   13MOL   H209 4073   0.471   6.119   5.694  1.3893  0.7189  0.7862
   13MOL   C210 4074   0.071   6.172   5.861  0.5407  0.3078 -0.2678
   13MOL   C211 4075   7.872   6.052   5.847  0.0156 -0.1056  0.6386
   13MOL   C212 4076   0.013   6.294   5.944 -0.7085 -0.3801  0.4934
   13MOL   C213 4077   0.115   6.412   5.951  0.2395  0.2581 -1.1181
   13MOL   C214 4078   0.249   6.392   6.007 -0.3255 -0.0532 -0.7062
   13MOL   C215 4079   0.083   6.529   5.897 -0.2591 -0.0199  0.0623
   13MOL   H216 4080   0.157   6.134   5.917 -0.7325 -1.0911  0.7666
   13MOL   H217 4081   7.838   6.009   5.941 -1.6971 -0.9774 -0.3654
   13MOL   H218 4082   0.037   5.973   5.798 -0.0090  0.2861 -0.0301
   13MOL   H219 4083   7.780   6.078   5.796  1.4535 -0.2732 -2.1451
   13MOL   H220 4084   7.818   6.334   5.895 -0.1776  0.1345 -0.0404
   13MOL   H221 4085   0.316   6.431   5.931 -0.2669  0.0530 -0.5987
   13MOL   H222 4086   0.279   6.293   6.042 -0.9602  0.2327  0.6792
   13MOL   H223 4087   0.261   6.456   6.094 -1.2068 -0.5897 -0.1864
   13MOL   H224 4088   7.879   6.540   5.851 -0.5697  1.5925  1.0383
   13MOL   H225 4089   0.149   6.615   5.902 -0.4263  0.0764  0.7496
   13MOL   C226 4090   7.861   6.264   6.095 -0.0629 -0.2696  0.1932
   13MOL   C227 4091   0.065   6.181   6.186  0.0359 -0.6681 -0.5998
   13MOL   C228 4092   7.710   6.215   6.106  0.4704 -0.2886 -0.0005
   13MOL   C229 4093   7.603   6.285   6.023  0.5816  0.8694  1.1839
   13MOL   C230 4094   7.574   6.428   6.055  0.3579  0.1556  0.3260
   13MOL   C231 4095   7.542   6.228   5.920  0.0030  0.3853 -0.0627
   13MOL   H232 4096   7.852   6.364   6.139 -1.0116 -0.1867 -0.1712
   13MOL   H233 4097   0.100   6.086   6.146  1.0566 -1.1700  1.4136
   13MOL   H234 4098   0.029   6.159   6.286 -0.1258  1.5983 -0.1434
   13MOL   H235 4099   0.160   6.230   6.208 -0.3724 -0.2919  0.3215
   13MOL   H236 4100   7.716   6.112   6.069 -1.9240  0.0211 -1.3088
   13MOL   H237 4101   7.499   6.442   6.133  0.5152  0.2026  0.4683
   13MOL   H238 4102   7.551   6.495   5.972  0.1834 -0.6653 -0.2876
   13MOL   H239 4103   7.664   6.468   6.103  1.7779 -0.8548 -1.4223
   13MOL   H240 4104   7.553   6.124   5.894  2.9088  0.6050  0.0668
   13MOL   H241 4105   7.476   6.283   5.854  0.0334  1.6590  0.9509
   13MOL   C242 4106   7.654   6.202   6.255  1.1343  1.0232  0.0446
   13MOL   C243 4107   7.703   6.315   6.351  0.0156  0.8524 -0.2055
   13MOL   C244 4108   7.672   6.056   6.313  0.2631 -0.0887  0.3299
   13MOL   C245 4109   7.605   5.957   6.225  0.3617  0.8486 -0.6354
   13MOL   C246 4110   7.455   5.943   6.225 -0.5449 -0.5338 -0.2439
   13MOL   C247 4111   7.665   5.868   6.145  0.5356  0.1490 -0.0213
   13MOL   H248 4112   7.546   6.221   6.249  0.9701  0.4973  1.2400
   13MOL   H249 4113   7.649   6.315   6.445  1.2638  0.8855  0.5161
   13MOL   H250 4114   7.698   6.417   6.311  2.6522  0.5132 -1.5710
   13MOL   H251 4115   7.809   6.304   6.377  0.0244 -1.3690 -1.0306
   13MOL   H252 4116   7.776   6.023   6.301 -0.0082 -0.7436 -0.2887
   13MOL   H253 4117   7.414   5.923   6.324 -0.4936  2.5715  0.4725
   13MOL   H254 4118   7.414   5.860   6.169  2.0252 -0.7582 -1.8487
   13MOL   H255 4119   7.416   6.040   6.194  0.8336  0.2921  0.5384
   13MOL   H256 4120   7.770   5.847   6.131  0.3353  0.3994 -2.0502
   13MOL   H257 4121   7.608   5.801   6.083  0.1701  1.1115 -0.7364
   13MOL   C258 4122   7.640   6.021   6.464 -0.6648  0.1279 -0.1239
   13MOL   C259 4123   7.504   6.088   6.511  0.0351  0.0860 -0.1480
   13MOL   C260 4124   7.762   6.047   6.561 -0.3612 -0.4622 -0.1021
   13MOL   C261 4125   0.008   5.998   6.511 -0.1760 -0.7052  0.6570
   13MOL   C262 4126   0.118   6.098   6.521 -0.3058  0.1985  0.0857
   13MOL   C263 4127   0.018   5.876   6.452 -0.1222 -0.7408 -0.2811
   13MOL   H264 4128   7.639   5.912   6.468  0.2193  0.1299  0.3706
   13MOL   H265 4129   7.439   6.129   6.434  1.6459 -0.0003 -1.6047
   13MOL   H266 4130   7.527   6.180   6.566 -1.0456  0.3820 -0.1785
   13MOL   H267 4131   7.441   6.026   6.575  2.8863 -0.7099  2.0043
   13MOL   H268 4132   7.764   6.156   6.565 -3.4655 -0.3536  0.2420
   13MOL   H269 4133   0.201   6.068   6.456 -1.0912  2.7266 -2.1823
   13MOL   H270 4134   0.154   6.102   6.624 -0.3254 -1.5789  0.1773
   13MOL   H271 4135   0.077   6.194   6.489 -1.3228 -0.2791 -0.0634
   13MOL   H272 4136   7.832   5.804   6.432 -1.1962  0.3088  0.1264
   13MOL   H273 4137   0.119   5.846   6.426  0.6753  1.0233  0.6748
   13MOL   C274 4138   7.740   5.994   6.708  0.4963 -0.6791 -0.1464
   13MOL   C275 4139   7.707   5.844   6.719 -0.2162 -0.1395 -0.1336
   13MOL   C276 4140   7.644   6.076   6.808  0.1534  0.1609 -0.4288
   13MOL   C277 4141   7.685   6.227   6.813  0.1916  0.3425 -0.2769
   13MOL   C278 4142   7.561   6.320   6.816 -0.4696 -0.7267 -0.1421
   13MOL   C279 4143   7.809   6.268   6.816 -0.5683 -0.4648  0.5649
   13MOL   H280 4144   7.840   6.000   6.751 -0.3751 -0.3386  1.9095
   13MOL   H281 4145   7.765   5.777   6.654  0.3809  0.4255 -0.1848
   13MOL   H282 4146   7.602   5.825   6.698 -0.1261  1.7770 -2.5604
   13MOL   H283 4147   7.729   5.807   6.819  0.0316  2.5391  0.8359
   13MOL   H284 4148   7.545   6.066   6.765  0.1355  2.1312 -0.8836
   13MOL   H285 4149   7.488   6.281   6.745 -0.8314 -0.9367  0.3473
   13MOL   H286 4150   7.582   6.418   6.773  1.1629 -1.2844 -0.6695
   13MOL   H287 4151   7.517   6.320   6.916 -1.2989  0.0821 -0.4962
   13MOL   H288 4152   7.890   6.197   6.810  1.0312  1.4594 -2.2535
   13MOL   H289 4153   7.837   6.371   6.833  2.5708 -1.1100 -0.2572
   13MOL   C290 4154   7.633   6.020   6.960 -0.1638 -0.4086  0.0461
   13MOL   C291 4155   7.770   6.006   7.027  0.6554  0.3154  0.3181
   13MOL   C292 4156   7.525   5.906   6.989 -0.2120  0.0939  0.5254
   13MOL   C293 4157   7.383   5.947   6.956  0.4478  0.0367 -0.3750
   13MOL   C294 4158   7.321   5.863   6.849 -0.4135 -0.8714 -0.1801
   13MOL   C295 4159   7.318   6.048   7.011  0.3428  0.1525  0.2392
   13MOL   H296 4160   7.603   6.105   7.022  0.0757 -1.5661  1.7776
   13MOL   H297 4161   7.848   6.072   6.990  1.1845  0.7890  2.2525
   13MOL   H298 4162   7.807   5.905   7.008 -0.4706 -0.5850  2.6324
   13MOL   H299 4163   7.765   6.018   7.135 -1.7308 -0.6565  0.3569
   13MOL   H300 4164   7.563   5.831   6.920 -1.2523  0.8121 -0.8310
   13MOL   H301 4165   7.356   5.760   6.851 -0.5234 -0.8946  1.3419
   13MOL   H302 4166   7.351   5.906   6.754 -1.7934 -2.0047 -1.1548
   13MOL   H303 4167   7.214   5.866   6.825 -1.0509 -2.6498  2.2366
   13MOL   H304 4168   7.368   6.120   7.074  0.0838  0.0895  0.5213
   13MOL   H305 4169   7.212   6.052   6.992  0.6934 -3.6767 -3.0964
   13MOL   C306 4170   7.546   5.828   7.126  0.8494  0.0784  0.1842
   13MOL   C307 4171   7.440   5.718   7.142 -0.4245  0.1327 -0.1782
   13MOL   C308 4172   7.527   5.927   7.253  0.0177  0.0265 -0.3426
   13MOL   C309 4173   7.600   5.894   7.382 -0.2666  0.5352 -0.4572
   13MOL   C310 4174   7.583   5.992   7.495  0.6479 -0.5244  0.2747
   13MOL   C311 4175   7.687   5.792   7.402 -0.3099 -0.1969  0.1631
   13MOL   H312 4176   7.645   5.782   7.127  0.7229 -0.2285 -0.7287
   13MOL   H313 4177   7.464   5.645   7.065 -0.3692 -0.9933  0.9012
   13MOL   H314 4178   7.337   5.755   7.139  0.1711  1.7735 -0.9401
   13MOL   H315 4179   7.447   5.665   7.237 -1.7619  0.7265  0.2728
   13MOL   H316 4180   7.539   6.031   7.223  2.3697 -0.2740 -0.5436
   13MOL   H317 4181   7.484   5.988   7.540  0.0052 -2.7012 -1.2748
   13MOL   H318 4182   7.599   6.096   7.466  1.0052 -0.6164  0.1365
   13MOL   H319 4183   7.650   5.974   7.580 -0.3723  1.4012  1.5210
   13MOL   H320 4184   7.714   5.724   7.323  1.5214  2.7007 -1.8216
   13MOL   H321 4185   7.737   5.776   7.497 -1.9580  1.2493  1.3141
   13MOL   H322 4186   7.423   5.925   7.287 -0.4514 -1.0532 -1.7626
   14MOL     C1 4187   4.655   7.519   1.148 -0.8423  0.2921  0.3987
   14MOL     C2 4188   4.781   7.451   1.093 -0.9067 -0.1383  0.8564
   14MOL     C3 4189   4.602   7.481   1.291 -0.3976 -0.1572  0.5120
   14MOL     C4 4190   4.610   7.328   1.329  0.6487 -0.0493  0.2163
   14MOL     C5 4191   4.646   7.306   1.475  0.0964  0.1655 -0.7191
   14MOL     C6 4192   4.585   7.226   1.240 -0.1317  0.0580  0.2225
   14MOL     H7 4193   4.684   7.625   1.152 -0.4809  0.1558  1.5236
   14MOL     H8 4194   4.774   7.344   1.072  1.8803 -0.0725 -0.6190
   14MOL     H9 4195   4.861   7.452   1.167 -1.0599  0.4608  1.0168
   14MOL    H10 4196   4.825   7.493   1.002 -0.0127 -1.4665  0.6716
   14MOL    H11 4197   4.670   7.528   1.363 -1.0636  0.3872  0.7837
   14MOL    H12 4198   4.640   7.202   1.508 -0.0402  0.5774  0.5526
   14MOL    H13 4199   4.591   7.356   1.554 -1.3935 -2.7027  0.1361
   14MOL    H14 4200   4.753   7.320   1.491  0.0284 -0.9814  0.8070
   14MOL    H15 4201   4.552   7.253   1.140 -0.1999  0.5369  0.3718
   14MOL    H16 4202   4.578   7.123   1.270 -1.2914 -0.6996 -2.4850
   14MOL    H17 4203   4.575   7.510   1.075 -2.2815 -0.5016  2.0416
   14MOL    C18 4204   4.459   7.538   1.331 -0.8580 -0.0860  0.1915
   14MOL    C19 4205   4.354   7.475   1.241  0.7606  0.1025  0.5207
   14MOL    C20 4206   4.457   7.693   1.341 -0.1173 -0.3873 -0.4149
   14MOL    C21 4207   4.574   7.762   1.416 -0.0219  0.5530  0.2698
   14MOL    C22 4208   4.608   7.714   1.553  0.2544  0.4067 -0.0242
   14MOL    C23 4209   4.636   7.870   1.371  0.1696  0.2765  0.1109
   14MOL    H24 4210   4.449   7.515   1.437 -2.1377  1.1116  0.3492
   14MOL    H25 4211   4.341   7.367   1.244  0.1117  0.1595  0.1055
   14MOL    H26 4212   4.370   7.502   1.136 -2.6471  1.1487  0.1946
   14MOL    H27 4213   4.255   7.511   1.271  0.4210 -1.2542  1.0612
   14MOL    H28 4214   4.467   7.738   1.243 -1.3859  1.3079  0.2110
   14MOL    H29 4215   4.617   7.607   1.566  1.3179  0.4574 -0.2841
   14MOL    H30 4216   4.526   7.746   1.617  0.1160  3.9425 -1.8116
   14MOL    H31 4217   4.686   7.778   1.597 -1.3387  2.3593  0.0455
   14MOL    H32 4218   4.613   0.036   1.283  2.0334  1.6055  0.4701
   14MOL    H33 4219   4.715   0.026   1.426  0.1662 -1.1511  1.4165
   14MOL    C34 4220   4.316   7.762   1.388 -0.4935  0.3185 -0.3970
   14MOL    C35 4221   4.241   7.684   1.491  0.6718 -0.3268 -0.2862
   14MOL    C36 4222   4.212   7.823   1.286 -0.3562 -0.6300  0.1952
   14MOL    C37 4223   4.244   7.798   1.141  0.4384  0.6353  0.5118
   14MOL    C38 4224   4.336   0.010   1.073 -0.1463 -0.4018 -0.2625
   14MOL    C39 4225   4.177   7.707   1.071 -0.5376  0.1426  0.5786
   14MOL    H40 4226   4.346   7.844   1.453 -0.8538  0.7600 -0.7836
   14MOL    H41 4227   4.178   7.604   1.452  0.4825 -1.0596  1.4456
   14MOL    H42 4228   4.179   7.750   1.551  1.7810 -0.6609  1.2605
   14MOL    H43 4229   4.314   7.635   1.556 -0.0157 -1.4029 -0.3022
   14MOL    H44 4230   4.127   7.755   1.297  0.5454 -1.4742  2.2672
   14MOL    H45 4231   4.429   0.023   1.128 -0.1933  0.9099 -0.4662
   14MOL    H46 4232   4.285   0.104   1.050 -3.3006 -2.0922 -0.4063
   14MOL    H47 4233   4.378   7.857   0.983 -1.0333  1.8108 -1.8499
   14MOL    H48 4234   4.098   7.649   1.117 -0.2746 -1.8473 -1.4503
   14MOL    H49 4235   4.186   7.682   0.967 -0.6303  1.1931  0.3110
   14MOL    C50 4236   4.162   0.080   1.310 -0.4435  0.4993 -0.7810
   14MOL    C51 4237   4.285   0.166   1.357  0.1847 -0.8878  0.4181
   14MOL    C52 4238   4.051   0.101   1.419  0.1683  0.2882  0.5029
   14MOL    C53 4239   3.943   7.889   1.407  0.1743  0.0975  0.3258
   14MOL    C54 4240   3.866   7.884   1.276 -0.2085 -0.3900  0.3997
   14MOL    C55 4241   3.905   7.817   1.510  0.8218  0.8317  0.0146
   14MOL    H56 4242   4.125   0.117   1.215 -0.5328 -0.4227 -1.1102
   14MOL    H57 4243   4.266   0.268   1.322  0.8495 -0.7632  0.4201
   14MOL    H58 4244   4.377   0.126   1.315  0.8157 -1.8187  2.5992
   14MOL    H59 4245   4.302   0.171   1.464 -0.0756 -0.1407  0.4298
   14MOL    H60 4246   4.100   0.065   1.509  1.4059 -0.2967 -0.4051
   14MOL    H61 4247   3.803   0.080   1.264 -0.5251 -0.8010 -1.1762
   14MOL    H62 4248   3.809   7.791   1.272 -2.4716  1.0257 -2.0306
   14MOL    H63 4249   3.929   7.874   1.187  0.8631 -1.0268  1.2064
   14MOL    H64 4250   3.953   7.826   1.607  0.7110  1.3667  0.0215
   14MOL    H65 4251   3.825   7.744   1.512  0.2010  1.5042  0.0053
   14MOL    C66 4252   3.981   0.245   1.418  0.6773  0.0377  0.1983
   14MOL    C67 4253   3.984   0.310   1.280 -0.0134 -0.6997 -0.2231
   14MOL    C68 4254   4.039   0.331   1.533 -0.1546 -0.3888  0.3032
   14MOL    C69 4255   4.017   0.276   1.679  0.2812  0.1628  0.1236
   14MOL    C70 4256   4.120   0.319   1.792 -0.0362  0.3481 -0.5680
   14MOL    C71 4257   3.914   0.196   1.710  0.8035 -0.1976 -0.5711
   14MOL    H72 4258   3.875   0.231   1.442  0.5586 -1.6730 -1.2366
   14MOL    H73 4259   3.961   0.241   1.199 -0.7903 -2.4713  1.4584
   14MOL    H74 4260   4.081   0.336   1.238 -0.1293  1.5325  0.8184
   14MOL    H75 4261   3.919   0.398   1.271 -0.5505 -1.1305 -0.6072
   14MOL    H76 4262   4.146   0.332   1.514 -0.2086  1.6486  0.0133
   14MOL    H77 4263   4.220   0.345   1.758  0.6386 -2.5696 -0.9706
   14MOL    H78 4264   4.126   0.243   1.870 -0.2586 -1.1556 -1.9796
   14MOL    H79 4265   4.078   0.408   1.840  0.2122 -0.7891  1.8683
   14MOL    H80 4266   3.835   0.176   1.639 -0.1311 -1.7292  0.8558
   14MOL    H81 4267   3.909   0.152   1.809  0.0189  1.3153  0.0725
   14MOL    C82 4268   4.001   0.488   1.539 -0.3585  0.1971  0.5014
   14MOL    C83 4269   3.843   0.511   1.537  0.8780  0.1659  0.2711
   14MOL    C84 4270   4.080   0.585   1.443  0.8554  0.5988  0.3721
   14MOL    C85 4271   4.231   0.553   1.424 -0.2685  0.4088  0.5372
   14MOL    C86 4272   4.311   0.560   1.550 -1.1588 -0.6325 -0.2209
   14MOL    C87 4273   4.277   0.524   1.298 -0.1151  1.2784 -0.0468
   14MOL    H88 4274   4.035   0.507   1.640  2.1009 -1.7859  0.0854
   14MOL    H89 4275   3.803   0.493   1.437 -0.7266  4.3941  0.0427
   14MOL    H90 4276   3.819   0.614   1.562  1.2247  0.4413 -0.5355
   14MOL    H91 4277   3.795   0.440   1.604 -0.3698 -0.8199 -1.6290
   14MOL    H92 4278   4.023   0.563   1.353  1.3155 -2.0006  0.6543
   14MOL    H93 4279   4.386   0.481   1.549  1.0040  1.2775  2.9256
   14MOL    H94 4280   4.250   0.532   1.635 -1.2109 -1.8958 -0.6702
   14MOL    H95 4281   4.359   0.657   1.562 -0.5764 -0.5272 -3.0937
   14MOL    H96 4282   4.211   0.524   1.212 -0.3500  1.5152  0.1325
   14MOL    H97 4283   4.383   0.504   1.291 -0.3999 -0.1378 -0.5662
   14MOL    C98 4284   4.054   0.741   1.466 -0.2839  0.3534  0.3575
   14MOL    C99 4285   4.075   0.784   1.617  0.2076 -0.2232 -0.4406
   14MOL   C100 4286   3.939   0.820   1.390 -0.5161 -0.0827  0.2360
   14MOL   C101 4287   3.932   0.775   1.242  0.0871  0.6897 -0.4849
   14MOL   C102 4288   4.044   0.809   1.146  0.8449  0.2498  0.3837
   14MOL   C103 4289   3.819   0.738   1.183  0.3073 -0.3525 -0.1194
   14MOL   H104 4290   4.142   0.779   1.415 -1.4348 -0.1749 -2.0664
   14MOL   H105 4291   4.031   0.878   1.651  2.2764  0.4591  0.4247
   14MOL   H106 4292   4.182   0.789   1.634  0.2719 -1.4111 -0.4677
   14MOL   H107 4293   4.021   0.715   1.682 -0.9852  0.3821 -0.7707
   14MOL   H108 4294   3.843   0.786   1.429 -0.7039  0.4734  0.2719
   14MOL   H109 4295   4.133   0.768   1.193  0.7372  0.1527  0.5044
   14MOL   H110 4296   4.051   0.917   1.135  1.2838  0.0267 -1.9156
   14MOL   H111 4297   4.023   0.771   1.045 -1.5351 -1.0605  1.3232
   14MOL   H112 4298   3.726   0.720   1.234  0.1159  1.2517  0.1242
   14MOL   H113 4299   3.801   0.721   1.078 -0.5274  1.1508 -0.2294
   14MOL   C114 4300   3.944   0.981   1.393 -0.1541 -0.3294 -0.0009
   14MOL   C115 4301   4.088   1.041   1.403 -0.0200  0.2218 -0.4053
   14MOL   C116 4302   3.841   1.045   1.492  0.4550 -0.4244  0.5728
   14MOL   C117 4303   3.703   0.987   1.468  0.1768 -0.1304 -0.1645
   14MOL   C118 4304   3.621   1.027   1.341 -0.1444 -0.5390 -0.1001
   14MOL   C119 4305   3.640   0.909   1.553  0.4139  0.4354 -0.5553
   14MOL   H120 4306   3.905   1.005   1.294  2.6446 -0.2176 -1.1260
   14MOL   H121 4307   4.083   1.147   1.379  0.5917  1.3068  3.8237
   14MOL   H122 4308   4.151   0.994   1.327 -1.5918  0.9637 -2.1932
   14MOL   H123 4309   4.124   1.035   1.506 -1.0750  1.3501  0.0378
   14MOL   H124 4310   3.872   1.005   1.589  1.4657  0.1452  0.4975
   14MOL   H125 4311   3.664   1.003   1.244 -0.0470  1.4397 -0.5721
   14MOL   H126 4312   3.608   1.135   1.351  1.4285 -0.4459  1.1298
   14MOL   H127 4313   3.517   0.994   1.344 -0.3812  0.3032  1.1156
   14MOL   H128 4314   3.691   0.885   1.645 -1.6372 -2.1005 -0.0389
   14MOL   H129 4315   3.541   0.869   1.540 -0.3017  1.3505  1.8603
   14MOL   C130 4316   3.849   1.199   1.509 -0.5246  0.7148 -0.3694
   14MOL   C131 4317   3.837   1.277   1.376  0.0231  0.6058 -0.2535
   14MOL   C132 4318   3.939   1.260   1.624 -0.1440 -0.7521 -0.1694
   14MOL   C133 4319   3.937   1.183   1.758 -0.0040  0.2146 -0.0363
   14MOL   C134 4320   3.803   1.155   1.823  0.2707 -0.4527 -0.6490
   14MOL   C135 4321   4.050   1.130   1.807 -0.0783 -0.7652 -0.3078
   14MOL   H136 4322   3.750   1.215   1.551 -1.2359  3.1646 -2.8170
   14MOL   H137 4323   3.937   1.284   1.331 -0.7451  0.1171 -2.0902
   14MOL   H138 4324   3.799   1.379   1.374  0.9294  0.9612  0.2892
   14MOL   H139 4325   3.784   1.220   1.300 -2.7020 -1.3072  2.9888
   14MOL   H140 4326   4.044   1.250   1.594  0.8950  0.8919  2.8181
   14MOL   H141 4327   3.723   1.144   1.749  1.5735 -2.9293 -1.7613
   14MOL   H142 4328   3.778   1.222   1.905 -0.0463  0.8858 -1.8218
   14MOL   H143 4329   3.798   1.063   1.881 -1.8604  1.7548  2.8545
   14MOL   H144 4330   4.145   1.140   1.756 -0.5177  0.5512 -0.8657
   14MOL   H145 4331   4.037   1.078   1.901  1.9525 -0.6801  0.0495
   14MOL   C146 4332   3.909   1.419   1.653  0.2880 -0.1882  0.2160
   14MOL   C147 4333   3.763   1.460   1.683 -0.2002 -0.4580 -0.5593
   14MOL   C148 4334   3.986   1.527   1.573 -0.3534 -0.4736  0.7382
   14MOL   C149 4335   4.130   1.493   1.557  0.6313 -0.2898  0.5758
   14MOL   C150 4336   4.175   1.485   1.412 -0.1390 -0.5771  0.2834
   14MOL   C151 4337   4.212   1.451   1.656 -0.1650  0.2321 -0.3586
   14MOL   H152 4338   3.941   1.436   1.756 -2.0298  0.6639  0.8442
   14MOL   H153 4339   3.725   1.408   1.771  0.7342 -0.4706 -0.1584
   14MOL   H154 4340   3.698   1.442   1.598  1.4638  2.1059 -2.4371
   14MOL   H155 4341   3.753   1.563   1.719 -1.3574 -0.0899 -1.8915
   14MOL   H156 4342   3.948   1.514   1.471 -0.5411 -1.0170  0.8744
   14MOL   H157 4343   4.135   1.394   1.368 -0.0291 -0.0859 -0.8703
   14MOL   H158 4344   4.284   1.475   1.417  0.1316  1.0537 -1.4403
   14MOL   H159 4345   4.160   1.581   1.363 -2.0093 -0.6587  0.6825
   14MOL   H160 4346   4.193   1.434   1.761 -1.0759 -1.3199 -0.7732
   14MOL   H161 4347   4.314   1.430   1.626 -0.4560  1.5125 -2.3300
   14MOL   C162 4348   3.968   1.680   1.604 -0.0106  0.2371 -0.2105
   14MOL   C163 4349   3.983   1.715   1.757  0.2844 -0.1288 -0.5311
   14MOL   C164 4350   3.844   1.755   1.534  0.0082 -0.0232 -0.4599
   14MOL   C165 4351   3.829   1.711   1.387 -0.2311 -0.3467  0.1890
   14MOL   C166 4352   3.690   1.662   1.354  0.2621 -0.3935  0.8339
   14MOL   C167 4353   3.930   1.713   1.297 -0.3092 -0.4798  0.2868
   14MOL   H168 4354   4.056   1.730   1.563 -0.2976  1.1272  0.2633
   14MOL   H169 4355   3.888   1.701   1.807 -0.4411  0.6285 -1.6765
   14MOL   H170 4356   4.012   1.820   1.768  0.2130  0.0801 -2.1819
   14MOL   H171 4357   4.043   1.643   1.813 -3.1688 -3.0470 -0.4727
   14MOL   H172 4358   3.757   1.715   1.586 -0.5207  0.3163 -1.0674
   14MOL   H173 4359   3.612   1.738   1.356  0.3781 -0.3025  2.2594
   14MOL   H174 4360   3.658   1.574   1.410  0.4486 -0.9505  0.0862
   14MOL   H175 4361   3.701   1.633   1.249  0.9917 -0.1231  0.8359
   14MOL   H176 4362   4.030   1.745   1.322 -0.2559 -1.6523  1.6478
   14MOL   H177 4363   3.911   1.677   1.197 -5.8150  3.6897 -0.3606
   14MOL   C178 4364   3.849   1.918   1.537 -0.6777  0.2535 -0.3629
   14MOL   C179 4365   3.986   1.973   1.500  0.2259 -0.0474 -0.2032
   14MOL   C180 4366   3.771   1.983   1.645  0.6120  0.1800 -0.3290
   14MOL   C181 4367   3.626   1.921   1.661 -0.4900  0.9365 -0.2786
   14MOL   C182 4368   3.589   1.873   1.799  0.5582  0.6604  0.1029
   14MOL   C183 4369   3.536   1.897   1.560 -0.2424  0.7468  0.5646
   14MOL   H184 4370   3.782   1.943   1.455 -1.0707  2.4488  0.5807
   14MOL   H185 4371   4.024   1.926   1.409  0.4079 -1.4696  0.5892
   14MOL   H186 4372   4.055   1.945   1.580 -0.2765 -2.1537 -0.4916
   14MOL   H187 4373   3.988   2.080   1.480  0.3196 -0.5183 -2.9182
   14MOL   H188 4374   3.821   1.937   1.731  1.3678  0.4188 -0.6446
   14MOL   H189 4375   3.615   1.945   1.877  1.5044  1.5941 -1.0495
   14MOL   H190 4376   3.642   1.781   1.826 -2.5842 -0.6818  2.0404
   14MOL   H191 4377   3.483   1.852   1.809  1.3961 -4.2130 -0.0408
   14MOL   H192 4378   3.556   1.919   1.456  0.8773 -0.5814  0.4845
   14MOL   H193 4379   3.446   1.847   1.592  1.1423 -0.8276  2.1021
   14MOL   C194 4380   3.768   2.139   1.651  0.0555 -0.2976  0.1264
   14MOL   C195 4381   3.733   2.198   1.512  0.1274  0.2065 -0.3939
   14MOL   C196 4382   3.897   2.199   1.725 -0.7725 -0.1275  0.1974
   14MOL   C197 4383   3.907   2.147   1.863 -0.1037 -0.0155  0.2689
   14MOL   C198 4384   4.051   2.108   1.913 -0.3425 -0.5923  0.0949
   14MOL   C199 4385   3.806   2.134   1.949 -0.7259  0.4861 -0.3393
   14MOL   H200 4386   3.682   2.153   1.717  1.6742 -1.8261  2.6743
   14MOL   H201 4387   3.756   2.304   1.506  3.6382 -0.6011 -2.5427
   14MOL   H202 4388   3.630   2.181   1.479 -0.7374 -0.8201  2.7170
   14MOL   H203 4389   3.795   2.156   1.433 -0.7935  0.5889 -1.3366
   14MOL   H204 4390   3.992   2.173   1.679 -0.7081 -0.9860  0.8093
   14MOL   H205 4391   4.114   2.081   1.828  1.1173  0.3036  0.8534
   14MOL   H206 4392   4.034   2.029   1.985  2.6557 -0.8328  0.6197
   14MOL   H207 4393   4.095   2.192   1.967  0.6456  0.6318 -2.5092
   14MOL   H208 4394   3.708   2.163   1.916 -0.2415  1.6390 -0.8056
   14MOL   H209 4395   3.829   2.105   2.051 -0.3401  2.7163  0.2391
   14MOL   C210 4396   3.906   2.357   1.732  0.9853 -0.1402  0.2584
   14MOL   C211 4397   3.766   2.430   1.745  0.0434  0.4752  0.3342
   14MOL   C212 4398   3.997   2.426   1.622 -0.6922 -0.3906  0.4119
   14MOL   C213 4399   4.139   2.369   1.626  0.0508 -0.6186  0.4534
   14MOL   C214 4400   4.194   2.334   1.484 -0.2710 -0.6247  0.2714
   14MOL   C215 4401   4.212   2.344   1.732 -0.5384 -0.0619 -0.5074
   14MOL   H216 4402   3.941   2.395   1.827 -0.8672 -0.5853  1.1563
   14MOL   H217 4403   3.703   2.437   1.656 -0.6850 -0.1827  0.7899
   14MOL   H218 4404   3.766   2.527   1.794 -0.1537  0.2011  0.8943
   14MOL   H219 4405   3.686   2.378   1.799 -0.7346  1.1476 -0.1602
   14MOL   H220 4406   3.960   2.384   1.528  2.8695 -3.4978  0.3077
   14MOL   H221 4407   4.297   2.300   1.487  0.0351  0.1623 -0.9082
   14MOL   H222 4408   4.179   2.421   1.419  1.5364 -0.4327  0.1032
   14MOL   H223 4409   4.130   2.255   1.444  1.5588 -1.4192 -1.1551
   14MOL   H224 4410   4.173   2.362   1.831  1.7187 -3.0785  1.0229
   14MOL   H225 4411   4.311   2.302   1.721 -0.0194  1.1970 -0.7150
   14MOL   C226 4412   4.007   2.581   1.617 -0.2823  0.0497  0.0197
   14MOL   C227 4413   4.030   2.639   1.762 -0.3401 -0.3399 -0.9161
   14MOL   C228 4414   3.890   2.656   1.530  0.2887 -0.7987 -0.4488
   14MOL   C229 4415   3.896   2.612   1.383  0.8153  0.2856  0.4087
   14MOL   C230 4416   3.764   2.555   1.335  0.2722  0.2404 -0.3011
   14MOL   C231 4417   3.998   2.626   1.299 -0.3787 -0.3366 -0.2025
   14MOL   H232 4418   4.090   2.609   1.552  1.4280 -0.2733  2.0066
   14MOL   H233 4419   4.078   2.737   1.752 -1.9148  0.4974 -0.4264
   14MOL   H234 4420   4.088   2.578   1.831  0.1123  1.2823  0.1795
   14MOL   H235 4421   3.936   2.667   1.810 -0.0895 -0.3575 -0.4158
   14MOL   H236 4422   3.797   2.613   1.568 -1.6619  1.4557 -2.4562
   14MOL   H237 4423   3.746   2.593   1.235  1.3799  1.0280 -0.2232
   14MOL   H238 4424   3.670   2.567   1.389  0.8536 -0.8239  0.9798
   14MOL   H239 4425   3.783   2.448   1.340 -0.4832  0.1161 -0.1313
   14MOL   H240 4426   4.098   2.658   1.327 -0.9136 -0.9417  2.5473
   14MOL   H241 4427   3.993   2.598   1.194  0.5709  1.0372 -0.6315
   14MOL   C242 4428   3.875   2.814   1.533  0.0918  0.1142  0.4274
   14MOL   C243 4429   4.008   2.893   1.509 -0.4134 -0.2881 -0.1024
   14MOL   C244 4430   3.771   2.870   1.638 -0.3091 -0.0173  0.2616
   14MOL   C245 4431   3.622   2.843   1.600  0.0884  0.3577 -0.6133
   14MOL   C246 4432   3.569   2.920   1.484 -0.3708 -0.1572 -0.2953
   14MOL   C247 4433   3.550   2.742   1.645  0.1363  0.3618 -0.4272
   14MOL   H248 4434   3.834   2.829   1.433  1.5431 -0.2751 -0.2389
   14MOL   H249 4435   3.996   2.994   1.471 -2.1908  0.1862  1.6405
   14MOL   H250 4436   4.072   2.850   1.432  0.5524 -0.5691  0.8443
   14MOL   H251 4437   4.075   2.896   1.595 -1.5454  1.0388  0.7386
   14MOL   H252 4438   3.770   2.798   1.720  0.4940 -0.9417 -0.5264
   14MOL   H253 4439   3.464   2.939   1.506 -0.2508  2.3072 -1.6871
   14MOL   H254 4440   3.564   2.869   1.388  2.8415  0.6362 -0.9251
   14MOL   H255 4441   3.613   3.018   1.468 -2.1384  0.6683 -0.2567
   14MOL   H256 4442   3.584   2.678   1.725 -1.0073  0.8331  0.4405
   14MOL   H257 4443   3.452   2.721   1.605  1.1994 -1.4478 -2.1994
   14MOL   C258 4444   3.797   3.011   1.704 -0.8789  0.2915  0.0090
   14MOL   C259 4445   3.903   3.004   1.817  0.5301 -0.5613  0.5798
   14MOL   C260 4446   3.662   3.091   1.749 -0.2929 -0.8709  0.1890
   14MOL   C261 4447   3.675   3.239   1.702  0.3782 -0.1198 -0.1605
   14MOL   C262 4448   3.773   3.323   1.786 -0.4762 -0.5577 -0.0072
   14MOL   C263 4449   3.606   3.281   1.594  0.2258 -0.6489 -0.2188
   14MOL   H264 4450   3.845   3.070   1.626 -1.2967  0.5818 -0.0277
   14MOL   H265 4451   4.003   2.970   1.787  0.6356  1.5120 -1.6279
   14MOL   H266 4452   3.858   2.950   1.900 -1.5438  0.3508  0.0742
   14MOL   H267 4453   3.921   3.102   1.860  0.3174 -0.1843 -0.1789
   14MOL   H268 4454   3.573   3.051   1.700 -0.8026  0.9010 -0.3674
   14MOL   H269 4455   3.870   3.293   1.746 -0.3197 -0.0876  0.0162
   14MOL   H270 4456   3.761   3.300   1.892 -1.7893  0.1965  0.0238
   14MOL   H271 4457   3.766   3.430   1.767  0.3389 -0.8350 -1.9507
   14MOL   H272 4458   3.544   3.211   1.540  0.4052 -0.2690 -0.9377
   14MOL   H273 4459   3.610   3.384   1.559 -0.8461 -0.4415  0.2684
   14MOL   C274 4460   3.607   3.077   1.903  0.6449  0.3410  0.2785
   14MOL   C275 4461   3.568   2.932   1.941 -0.4795 -0.1251  0.5902
   14MOL   C276 4462   3.491   3.182   1.942  0.2117  0.3946 -0.0421
   14MOL   C277 4463   3.523   3.235   2.081 -0.0880  0.2413 -0.1287
   14MOL   C278 4464   3.503   3.137   2.199  0.3738  0.2006  0.5780
   14MOL   C279 4465   3.559   3.364   2.101 -1.2144  0.4684  0.1218
   14MOL   H280 4466   3.697   3.107   1.957  1.4752 -0.8951 -0.3836
   14MOL   H281 4467   3.564   2.916   2.049 -0.7396  0.3129  0.6468
   14MOL   H282 4468   3.633   2.852   1.906 -1.1757 -0.2924 -0.3163
   14MOL   H283 4469   3.472   2.897   1.903 -0.4373  0.6512 -0.2477
   14MOL   H284 4470   3.502   3.267   1.876 -0.5125 -1.2543 -2.3671
   14MOL   H285 4471   3.400   3.101   2.194  0.7831 -0.8310 -0.9489
   14MOL   H286 4472   3.515   3.194   2.291 -2.5331  2.0852 -0.1409
   14MOL   H287 4473   3.573   3.054   2.189  0.0187 -0.1751  1.1474
   14MOL   H288 4474   3.581   3.436   2.023 -1.0526  0.2841 -0.0019
   14MOL   H289 4475   3.576   3.398   2.202 -0.6578 -0.5718  0.3830
   14MOL   C290 4476   3.345   3.141   1.930  0.5159  0.1858  0.5653
   14MOL   C291 4477   3.311   3.096   1.780  0.6379 -0.0881 -0.8702
   14MOL   C292 4478   3.229   3.230   1.988  0.4547  0.2743 -0.2142
   14MOL   C293 4479   3.116   3.147   2.062 -0.4748  0.1920 -0.7013
   14MOL   C294 4480   3.009   3.078   1.971 -0.0604 -0.3340 -0.3136
   14MOL   C295 4481   3.122   3.131   2.198  0.6286 -0.6774  0.0899
   14MOL   H296 4482   3.335   3.052   1.992  0.9220 -0.0306  0.3239
   14MOL   H297 4483   3.317   3.176   1.707  1.3611 -0.0948 -0.8282
   14MOL   H298 4484   3.211   3.054   1.787 -0.2176  1.7295 -1.8464
   14MOL   H299 4485   3.376   3.017   1.740  0.1464 -1.5901  1.2042
   14MOL   H300 4486   3.271   3.294   2.066  0.4424 -0.7594  0.6609
   14MOL   H301 4487   3.056   2.990   1.927  1.6702  0.3037  0.2261
   14MOL   H302 4488   2.975   3.130   1.881  1.0332  0.0144 -0.5331
   14MOL   H303 4489   2.930   3.049   2.041 -0.6393  1.7212 -0.0817
   14MOL   H304 4490   3.208   3.170   2.251  0.0301  1.3929 -0.4411
   14MOL   H305 4491   3.047   3.085   2.261 -0.3609 -0.7530 -1.1212
   14MOL   C306 4492   3.160   3.345   1.909  0.0336 -0.4520  0.3759
   14MOL   C307 4493   3.254   3.453   1.847  0.6937  0.2526 -0.0777
   14MOL   C308 4494   3.050   3.429   1.997 -0.4416 -1.0626  0.8244
   14MOL   C309 4495   2.958   3.516   1.915  1.0429  0.1471 -0.0964
   14MOL   C310 4496   2.833   3.450   1.855  0.1050 -0.4145  0.2577
   14MOL   C311 4497   2.983   3.644   1.904 -0.1986 -0.3809 -0.6962
   14MOL   H312 4498   3.112   3.298   1.823 -0.1549 -2.4964  1.5557
   14MOL   H313 4499   3.194   3.504   1.772  2.6727  1.2900 -0.9600
   14MOL   H314 4500   3.340   3.411   1.796 -0.0120 -2.4283  0.8494
   14MOL   H315 4501   3.295   3.521   1.922  1.3096 -0.0562 -0.1357
   14MOL   H316 4502   2.986   3.362   2.055 -1.0362  0.3115  1.7925
   14MOL   H317 4503   2.757   3.442   1.932 -1.1765 -0.8283 -1.0277
   14MOL   H318 4504   2.852   3.348   1.821 -2.8149 -0.7177 -0.5567
   14MOL   H319 4505   2.791   3.507   1.772  2.5515 -0.8600 -1.3290
   14MOL   H320 4506   3.074   3.677   1.953 -1.7198  1.1756  1.1529
   14MOL   H321 4507   2.925   3.711   1.843  0.2869 -0.7738 -1.5984
   14MOL   H322 4508   3.107   3.487   2.070 -1.1744 -0.7084  1.1323
   15MOL     C1 4509   6.706   7.613   5.343  0.1029  0.0216  0.1675
   15MOL     C2 4510   6.608   7.625   5.227 -0.5301  0.3011 -0.0686
   15MOL     C3 4511   6.812   7.514   5.305 -0.7494 -0.3386 -0.0484
   15MOL     C4 4512   6.766   7.373   5.268 -0.6449  0.0828 -0.3485
   15MOL     C5 4513   6.845   7.309   5.155  0.5994 -0.2491 -0.0410
   15MOL     C6 4514   6.661   7.314   5.320  0.3455 -0.6632 -0.2321
   15MOL     H7 4515   6.738   7.715   5.366 -0.5715  0.4217 -0.6316
   15MOL     H8 4516   6.652   7.682   5.145  0.2663 -1.7081 -1.0563
   15MOL     H9 4517   6.530   7.692   5.264  0.0038  0.5575  0.6130
   15MOL    H10 4518   6.568   7.530   5.193  1.1561  0.0554 -1.4322
   15MOL    H11 4519   6.853   7.561   5.216  0.9838 -0.7440  0.5138
   15MOL    H12 4520   6.831   7.201   5.143 -0.0459  0.0111 -1.7946
   15MOL    H13 4521   6.950   7.306   5.183  0.6795 -1.2014 -0.4166
   15MOL    H14 4522   6.829   7.358   5.059 -1.5594 -0.1785  0.3340
   15MOL    H15 4523   6.603   7.364   5.397 -0.8070 -1.2311 -0.7156
   15MOL    H16 4524   6.635   7.213   5.295 -0.5914 -0.3025 -0.7550
   15MOL    H17 4525   6.664   7.578   5.437 -0.2094 -0.7815 -0.2605
   15MOL    C18 4526   6.926   7.507   5.414  0.0577  0.5834  0.1322
   15MOL    C19 4527   6.878   7.482   5.560  0.0758 -0.3328 -0.1138
   15MOL    C20 4528   7.018   7.635   5.408 -0.2131 -0.4018 -1.1933
   15MOL    C21 4529   7.073   7.656   5.266 -0.1701  0.0358 -0.0125
   15MOL    C22 4530   7.191   7.575   5.214 -0.9425 -0.3290  0.5015
   15MOL    C23 4531   7.017   7.752   5.187 -0.7502  0.2671  0.7130
   15MOL    H24 4532   6.984   7.417   5.395  0.6601  1.1455 -0.7414
   15MOL    H25 4533   6.786   7.423   5.564 -0.3375  0.4054  1.6487
   15MOL    H26 4534   6.854   7.568   5.623  0.4748 -1.0386  1.0157
   15MOL    H27 4535   6.948   7.416   5.612  3.7374  2.8859 -0.7339
   15MOL    H28 4536   6.944   7.715   5.421  0.4798 -0.0452  0.8687
   15MOL    H29 4537   7.172   7.475   5.255 -0.2725  0.0418  1.7516
   15MOL    H30 4538   7.287   7.608   5.252 -1.7151  0.4680  1.8123
   15MOL    H31 4539   7.184   7.593   5.107  0.3590  2.3644  0.8284
   15MOL    H32 4540   6.942   7.827   5.208 -2.9036 -1.4941 -0.3625
   15MOL    H33 4541   7.059   7.757   5.088  0.6633  1.2507  1.3642
   15MOL    C34 4542   7.127   7.654   5.515 -0.2819 -0.1756 -0.6648
   15MOL    C35 4543   7.216   7.526   5.534 -0.0402 -0.6932  0.2411
   15MOL    C36 4544   7.085   7.718   5.654  0.0634 -0.3124 -0.0678
   15MOL    C37 4545   6.990   7.833   5.641  0.6201  0.3204  0.2391
   15MOL    C38 4546   7.033   0.062   5.563 -1.0487  0.8838 -0.5602
   15MOL    C39 4547   6.873   7.830   5.704  0.2693  0.4612 -0.2716
   15MOL    H40 4548   7.193   7.729   5.472 -1.2500  1.1232  0.0882
   15MOL    H41 4549   7.168   7.445   5.589 -2.9740  0.8223  0.0282
   15MOL    H42 4550   7.302   7.551   5.596  0.4403 -1.2017 -0.2132
   15MOL    H43 4551   7.255   7.475   5.447  0.2733  0.0245 -0.0400
   15MOL    H44 4552   7.037   7.638   5.709 -1.3207  0.0516 -0.7214
   15MOL    H45 4553   6.952   0.135   5.558 -0.9484  1.1151  0.8931
   15MOL    H46 4554   7.051   0.037   5.458 -2.0655 -1.4379 -0.1987
   15MOL    H47 4555   7.125   0.115   5.588 -0.2022 -0.9380  0.2162
   15MOL    H48 4556   6.836   7.747   5.762 -0.0643  1.1453  0.5049
   15MOL    H49 4557   6.802   0.019   5.692 -0.2335 -0.1775 -1.8651
   15MOL    C50 4558   7.202   7.755   5.754  0.6482 -0.3202 -0.1389
   15MOL    C51 4559   7.321   7.815   5.683 -0.3942  0.4761 -0.1826
   15MOL    C52 4560   7.236   7.649   5.868 -0.6915 -0.4248  0.0652
   15MOL    C53 4561   7.111   7.603   5.940  0.2067 -0.4246 -0.0023
   15MOL    C54 4562   7.115   7.458   5.980  0.0435 -0.2842 -0.3112
   15MOL    C55 4563   6.998   7.671   5.981 -0.1351 -0.5682 -0.5473
   15MOL    H56 4564   7.163   7.830   5.822  0.6708 -0.9452  0.5630
   15MOL    H57 4565   7.383   7.862   5.760 -1.0493 -2.1400  1.9879
   15MOL    H58 4566   7.295   0.003   5.613 -1.0061  0.5457  0.1206
   15MOL    H59 4567   7.381   7.745   5.626 -1.8735 -0.6395 -0.3901
   15MOL    H60 4568   7.268   7.564   5.807 -0.7548 -0.3982 -0.0061
   15MOL    H61 4569   7.013   7.421   5.978 -1.1455  2.6811  1.3794
   15MOL    H62 4570   7.146   7.452   6.084 -0.0125  0.5787 -0.2436
   15MOL    H63 4571   7.184   7.406   5.914 -0.8872  1.8239 -3.0592
   15MOL    H64 4572   6.992   7.776   5.957  0.6331  0.3977  3.1124
   15MOL    H65 4573   6.913   7.625   6.031  0.0127 -0.6892 -0.4055
   15MOL    C66 4574   7.355   7.668   5.970 -0.5051 -0.0949 -0.7695
   15MOL    C67 4575   7.335   7.813   6.041 -0.1874 -0.2791 -0.1007
   15MOL    C68 4576   7.500   7.651   5.928  0.0739  0.5019 -0.3209
   15MOL    C69 4577   7.524   7.534   5.827  0.5230  0.8673 -0.2819
   15MOL    C70 4578   7.505   7.394   5.881  0.4175 -0.8228 -0.4475
   15MOL    C71 4579   7.580   7.561   5.706 -0.2447 -0.5866 -0.4942
   15MOL    H72 4580   7.337   7.597   6.051  0.5882 -1.0106 -1.3266
   15MOL    H73 4581   7.230   7.841   6.044 -0.0340  0.7596 -3.0787
   15MOL    H74 4582   7.375   0.002   5.981  1.1810 -0.4177  0.5934
   15MOL    H75 4583   7.388   7.809   6.136 -0.4954 -0.0775  0.0805
   15MOL    H76 4584   7.518   7.738   5.864  1.3382 -0.8487 -1.8473
   15MOL    H77 4585   7.490   7.322   5.799  0.5170  0.4120 -1.5676
   15MOL    H78 4586   7.423   7.380   5.951  0.7693 -1.0042 -0.0708
   15MOL    H79 4587   7.604   7.376   5.923 -0.2382 -0.8042  1.1107
   15MOL    H80 4588   7.604   7.665   5.688  0.2231 -0.6547 -0.2714
   15MOL    H81 4589   7.608   7.487   5.634 -1.2081  0.9940 -2.5459
   15MOL    C82 4590   7.610   7.661   6.042  0.3282  0.5484  0.2437
   15MOL    C83 4591   7.562   7.587   6.164  0.2755  0.4560  0.2566
   15MOL    C84 4592   7.673   7.801   6.067 -0.6168  0.0033 -1.2909
   15MOL    C85 4593   7.702   0.001   5.954  1.0159 -0.8404  0.0941
   15MOL    C86 4594   7.651   0.141   5.971 -0.1691  0.3281 -0.8289
   15MOL    C87 4595   7.781   7.859   5.848  0.2570 -0.1734 -0.6214
   15MOL    H88 4596   7.686   7.589   6.012 -0.0921  0.2859 -0.2055
   15MOL    H89 4597   7.638   7.551   6.232  0.9296  1.7545  0.2170
   15MOL    H90 4598   7.519   7.491   6.133  0.8744  0.7652 -1.6169
   15MOL    H91 4599   7.496   7.642   6.232  0.1332 -0.2375  0.6800
   15MOL    H92 4600   7.590   7.846   6.120  0.0515 -1.5168  1.1189
   15MOL    H93 4601   7.542   0.145   5.980 -0.0723  0.2133  0.4115
   15MOL    H94 4602   7.673   0.218   5.897  1.2948  0.2343 -0.4941
   15MOL    H95 4603   7.684   0.173   6.070 -0.5211 -2.8393  0.3631
   15MOL    H96 4604   7.814   7.756   5.848 -0.5399 -0.4871  2.6646
   15MOL    H97 4605   7.817   0.029   5.768  0.3239  0.9817  0.2957
   15MOL    C98 4606   7.801   7.803   6.164 -0.5112  0.2481 -0.2554
   15MOL    C99 4607   7.892   7.681   6.146  0.2383  0.3549 -0.6134
   15MOL   C100 4608   7.770   7.819   6.324  0.1297  0.2853  0.0123
   15MOL   C101 4609   7.688   0.049   6.342  0.9396  0.0626 -0.5733
   15MOL   C102 4610   7.755   0.182   6.331 -0.7115 -0.2232  0.1356
   15MOL   C103 4611   7.558   0.028   6.367  0.4583 -0.2992 -0.6096
   15MOL   H104 4612   7.858   0.000   6.141 -0.8446  0.4030 -0.4745
   15MOL   H105 4613   7.883   7.657   6.040 -0.6967  1.7221 -0.8677
   15MOL   H106 4614   7.849   7.595   6.196  1.6225 -0.6393 -1.0990
   15MOL   H107 4615   0.103   7.706   6.168  0.3668 -1.4381  0.8793
   15MOL   H108 4616   7.706   7.733   6.346  0.6353  0.4380  2.1689
   15MOL   H109 4617   7.825   0.212   6.253 -2.1047  0.3189 -0.9403
   15MOL   H110 4618   7.791   0.212   6.429 -1.7104  1.0095  0.1472
   15MOL   H111 4619   7.679   0.260   6.318 -1.2221 -0.6555  0.5250
   15MOL   H112 4620   7.512   7.824   6.375 -2.1049  1.1167  3.0044
   15MOL   H113 4621   7.492   0.110   6.393 -0.3184 -0.5342 -1.7836
   15MOL   C114 4622   7.885   7.798   6.434  0.9106 -0.2594 -0.4227
   15MOL   C115 4623   0.116   7.884   6.396 -0.9095  0.2365  0.5683
   15MOL   C116 4624   0.034   7.654   6.475 -0.7552  0.4326  0.6343
   15MOL   C117 4625   7.800   7.562   6.493  0.2782  0.4606 -0.4425
   15MOL   C118 4626   7.806   7.423   6.430 -0.4945 -0.1963 -0.1469
   15MOL   C119 4627   7.690   7.598   6.563  0.0820  0.0354  0.4737
   15MOL   H120 4628   7.837   7.831   6.526  1.3683  2.8526 -1.2581
   15MOL   H121 4629   0.202   7.825   6.365  1.0098  3.6044 -0.7802
   15MOL   H122 4630   0.150   0.048   6.483  0.0164 -0.7852  0.8762
   15MOL   H123 4631   0.100   0.057   6.310 -0.2496  0.8381  0.8966
   15MOL   H124 4632   0.085   7.627   6.382 -0.7284 -0.4385  0.8991
   15MOL   H125 4633   7.843   7.444   6.330  0.4001 -0.0123  0.2202
   15MOL   H126 4634   7.708   7.377   6.419 -1.0230  0.5627  1.2617
   15MOL   H127 4635   7.873   7.349   6.475 -0.0811  0.0927 -0.2827
   15MOL   H128 4636   7.666   7.696   6.600  1.9029  0.5629  0.2732
   15MOL   H129 4637   7.610   7.528   6.584 -1.8622  1.5148 -1.7580
   15MOL   C130 4638   0.143   7.643   6.588  0.3491 -0.4242  0.2965
   15MOL   C131 4639   0.117   7.743   6.709 -0.2979 -0.2876  0.1204
   15MOL   C132 4640   0.296   7.638   6.544 -0.3936  0.2032 -0.4095
   15MOL   C133 4641   0.325   7.574   6.403 -0.0086  0.8581 -0.0288
   15MOL   C134 4642   0.429   7.649   6.314 -0.1384 -0.0136 -0.1341
   15MOL   C135 4643   0.277   7.454   6.361 -0.4182 -0.2532  0.4585
   15MOL   H136 4644   0.125   7.544   6.630  0.5844 -1.4379 -1.9041
   15MOL   H137 4645   0.157   7.710   6.805  0.2066 -0.1337 -0.0370
   15MOL   H138 4646   0.010   7.760   6.720  0.2601  1.8738  2.6774
   15MOL   H139 4647   0.155   7.841   6.681 -1.2467 -0.1851 -0.8633
   15MOL   H140 4648   0.321   7.741   6.522 -1.4219  0.7976  1.0906
   15MOL   H141 4649   0.414   7.622   6.209  0.4205  1.7273 -0.6733
   15MOL   H142 4650   0.531   7.625   6.344  0.5728  0.4163 -2.1056
   15MOL   H143 4651   0.409   7.754   6.334 -0.3490 -0.0704 -0.0421
   15MOL   H144 4652   0.224   7.383   6.423  0.1872 -1.9416 -0.9204
   15MOL   H145 4653   0.304   7.409   6.267 -1.4672  0.7050 -0.3196
   15MOL   C146 4654   0.394   7.583   6.658  0.1598 -0.4420  0.2676
   15MOL   C147 4655   0.550   7.619   6.641 -0.7667 -0.4579  0.8591
   15MOL   C148 4656   0.362   7.444   6.712  0.2863 -0.1963 -0.4089
   15MOL   C149 4657   0.309   7.465   6.857  0.1676  0.4805 -0.1422
   15MOL   C150 4658   0.412   7.488   6.960  0.1359 -0.6486 -0.2021
   15MOL   C151 4659   0.182   7.434   6.886  0.1823 -0.1486 -0.4964
   15MOL   H152 4660   0.370   7.653   6.738  2.3331  0.1115  0.4655
   15MOL   H153 4661   0.605   7.598   6.732  1.4398  2.3622  0.2551
   15MOL   H154 4662   0.575   7.723   6.619 -0.1025 -0.5520  1.1720
   15MOL   H155 4663   0.594   7.553   6.566 -1.8562  0.8693 -1.0021
   15MOL   H156 4664   0.276   7.410   6.655  0.2659  0.0164 -0.5031
   15MOL   H157 4665   0.391   7.564   7.036 -0.6545  0.2704 -1.3232
   15MOL   H158 4666   0.496   7.546   6.921  0.1933  0.3005  1.2677
   15MOL   H159 4667   0.449   7.395   7.002  0.3226 -0.2950  0.4255
   15MOL   H160 4668   0.109   7.398   6.816 -0.5028 -0.0666  0.1731
   15MOL   H161 4669   0.152   7.445   6.989  1.1933 -0.2533 -0.1803
   15MOL   C162 4670   0.470   7.327   6.690 -0.3876  0.8705 -0.0859
   15MOL   C163 4671   0.484   7.285   6.549 -0.1700  0.0316 -0.2440
   15MOL   C164 4672   0.439   7.187   6.766 -0.8284 -0.0893  0.0229
   15MOL   C165 4673   0.572   7.121   6.811  0.1456 -0.3098 -0.0072
   15MOL   C166 4674   0.647   7.021   6.730 -0.1841 -0.6974 -0.9987
   15MOL   C167 4675   0.635   7.163   6.931 -0.2382 -0.5175 -0.2228
   15MOL   H168 4676   0.562   7.367   6.733  0.0222  0.1546 -0.2733
   15MOL   H169 4677   0.505   7.378   6.497  0.1110  0.2834  0.3177
   15MOL   H170 4678   0.395   7.238   6.507 -0.9893 -0.5901  2.1125
   15MOL   H171 4679   0.561   7.209   6.540 -1.0552 -0.9859  0.5899
   15MOL   H172 4680   0.384   7.215   6.856  0.8781  0.7849  0.8012
   15MOL   H173 4681   0.714   6.956   6.786  0.0880 -0.2844 -0.8445
   15MOL   H174 4682   0.699   7.070   6.648  0.4777  1.5253  0.7109
   15MOL   H175 4683   0.567   6.960   6.687 -1.0394  1.0422 -1.9304
   15MOL   H176 4684   0.582   7.242   6.982 -1.0934 -0.7492 -0.7442
   15MOL   H177 4685   0.729   7.125   6.969 -1.2389 -0.4232  2.5160
   15MOL   C178 4686   0.336   7.077   6.712 -0.2366  0.4428  0.1028
   15MOL   C179 4687   0.203   7.138   6.673 -0.6022  0.5316  0.6492
   15MOL   C180 4688   0.327   6.942   6.802  0.3073 -0.2474  0.5834
   15MOL   C181 4689   0.307   6.807   6.716  1.1803 -0.3927  0.5425
   15MOL   C182 4690   0.172   6.800   6.645  0.1307 -0.3692  0.1742
   15MOL   C183 4691   0.399   6.706   6.713  0.1217 -0.3199 -1.0880
   15MOL   H184 4692   0.383   7.047   6.618  0.7886  4.1952 -0.6538
   15MOL   H185 4693   0.167   7.215   6.741 -0.2013  1.5255 -0.2492
   15MOL   H186 4694   0.123   7.064   6.664  1.3360 -1.5429 -0.0401
   15MOL   H187 4695   0.195   7.193   6.579 -3.4446  1.4071  1.3661
   15MOL   H188 4696   0.425   6.917   6.844  0.6017  0.3793  0.2744
   15MOL   H189 4697   0.083   6.803   6.707 -0.0789  0.7437 -0.1802
   15MOL   H190 4698   0.165   6.710   6.582  1.7287  2.5188 -4.4183
   15MOL   H191 4699   0.167   6.890   6.583  0.5138 -0.2937  0.2541
   15MOL   H192 4700   0.489   6.717   6.772  0.6761 -1.0009 -1.8041
   15MOL   H193 4701   0.376   6.612   6.664  2.0282 -0.6639 -1.3744
   15MOL   C194 4702   0.225   6.954   6.921  0.5556  0.0658  0.3455
   15MOL   C195 4703   0.241   7.081   7.014 -0.1182 -1.3377  0.2042
   15MOL   C196 4704   0.206   6.811   6.998  0.0380  0.5532  0.9608
   15MOL   C197 4705   0.057   6.781   7.033 -0.4379 -0.3949 -0.2694
   15MOL   C198 4706   7.883   6.866   7.140 -0.2677 -0.2816  1.1951
   15MOL   C199 4707   7.890   6.671   6.988 -0.3965 -0.7677 -0.1021
   15MOL   H200 4708   0.129   6.962   6.871 -0.0176 -1.0963  1.2264
   15MOL   H201 4709   0.179   7.067   7.103  0.2916  2.1741  1.1356
   15MOL   H202 4710   0.223   7.181   6.974 -0.7958 -1.7622 -0.5553
   15MOL   H203 4711   0.344   7.081   7.052 -0.0847 -0.5502  0.1206
   15MOL   H204 4712   0.227   6.732   6.926 -1.3117 -0.8477  2.0534
   15MOL   H205 4713   0.049   6.874   7.232 -1.0682  0.6912  1.6401
   15MOL   H206 4714   7.781   6.830   7.154 -0.3640  0.3756  2.3018
   15MOL   H207 4715   7.865   6.960   7.088 -0.1535 -0.7877  0.2349
   15MOL   H208 4716   0.048   6.610   6.915  0.8772 -1.0566  1.0077
   15MOL   H209 4717   7.789   6.642   7.016 -0.4356 -0.3976  0.1388
   15MOL   C210 4718   0.298   6.794   7.119  0.6570 -0.4146 -0.4190
   15MOL   C211 4719   0.456   6.819   7.101  0.1027 -0.0617  0.8982
   15MOL   C212 4720   0.276   6.668   7.206  0.6392  0.2741  0.1270
   15MOL   C213 4721   0.315   6.694   7.363 -0.0304 -0.2655 -0.0190
   15MOL   C214 4722   0.194   6.742   7.448 -0.2299  0.0990  0.2607
   15MOL   C215 4723   0.444   6.701   7.413  0.2843 -0.6320 -0.0357
   15MOL   H216 4724   0.267   6.877   7.182 -0.1839 -0.3108 -0.9663
   15MOL   H217 4725   0.507   6.754   7.030 -0.4276  1.2816 -0.7505
   15MOL   H218 4726   0.516   6.815   7.192  3.7483  0.0699 -1.3882
   15MOL   H219 4727   0.474   6.919   7.061  0.2201 -2.0404 -4.3868
   15MOL   H220 4728   0.168   6.656   7.207  0.2692  2.4445 -3.1193
   15MOL   H221 4729   0.145   6.831   7.407  0.1512 -0.6849 -1.9939
   15MOL   H222 4730   0.229   6.782   7.543  2.9358 -0.7597 -0.4907
   15MOL   H223 4731   0.134   6.655   7.476  1.1043 -1.2167 -0.8728
   15MOL   H224 4732   0.525   6.665   7.352  0.2484 -1.8298  0.6111
   15MOL   H225 4733   0.466   6.739   7.511 -0.5738 -0.7871  0.2175
   15MOL   C226 4734   0.362   6.538   7.153  0.0969 -0.2316  0.4440
   15MOL   C227 4735   0.318   6.497   7.010 -0.4214 -0.5124  0.2300
   15MOL   C228 4736   0.368   6.411   7.249  0.1446 -0.2825 -0.0012
   15MOL   C229 4737   0.495   6.338   7.212 -0.8753  0.3413 -0.2375
   15MOL   C230 4738   0.625   6.382   7.267 -0.6026 -0.0201  0.4674
   15MOL   C231 4739   0.496   6.246   7.108  0.2826 -0.4268  0.0875
   15MOL   H232 4740   0.462   6.571   7.127  1.3002 -3.2320  1.0542
   15MOL   H233 4741   0.342   6.579   6.942  0.3706 -0.4283  0.6050
   15MOL   H234 4742   0.214   6.470   6.991 -0.8673 -0.7286  2.8700
   15MOL   H235 4743   0.374   6.419   6.957  0.9490 -0.1527  1.1243
   15MOL   H236 4744   0.391   6.446   7.350  2.3569 -0.1829 -0.5268
   15MOL   H237 4745   0.609   6.416   7.369 -1.3356  2.7951 -0.5453
   15MOL   H238 4746   0.671   6.466   7.215  1.6076 -1.5578 -0.1155
   15MOL   H239 4747   0.701   6.305   7.278 -0.8854  0.0184  3.0950
   15MOL   H240 4748   0.408   6.216   7.054  0.4163  0.4662 -0.6480
   15MOL   H241 4749   0.593   6.207   7.080  0.0931 -0.6086 -0.3156
   15MOL   C242 4750   0.238   6.321   7.265 -0.5972 -0.5692 -0.9052
   15MOL   C243 4751   0.105   6.384   7.261  0.4610  0.7128 -0.4632
   15MOL   C244 4752   0.254   6.198   7.368 -0.8663 -0.6005  0.1166
   15MOL   C245 4753   0.192   6.071   7.304 -0.1841  0.2339 -0.5104
   15MOL   C246 4754   0.263   6.002   7.192  0.6007 -0.6688 -0.6202
   15MOL   C247 4755   0.078   6.017   7.356  0.1258  0.5910 -0.0641
   15MOL   H248 4756   0.240   6.273   7.167  0.4882  1.0877 -1.7249
   15MOL   H249 4757   0.099   6.456   7.179 -0.4501  0.3974 -0.6726
   15MOL   H250 4758   0.074   6.449   7.344 -1.1345 -0.6376  0.0265
   15MOL   H251 4759   0.028   6.309   7.247  1.4012 -0.1497 -1.0863
   15MOL   H252 4760   0.362   6.187   7.359 -0.5829  1.7457  0.2358
   15MOL   H253 4761   0.369   5.991   7.214  0.7928  0.1388 -1.1288
   15MOL   H254 4762   0.258   6.055   7.097  0.1174  0.0030 -0.2246
   15MOL   H255 4763   0.222   5.903   7.172  1.1891 -0.8071 -1.1517
   15MOL   H256 4764   0.024   6.066   7.436 -2.7816 -2.5883  0.0627
   15MOL   H257 4765   0.035   5.924   7.320 -1.4558  0.9882  0.7574
   15MOL   C258 4766   0.231   6.231   7.519  0.3042 -0.4453 -0.4778
   15MOL   C259 4767   0.287   6.359   7.578  0.6312 -0.2340 -0.7012
   15MOL   C260 4768   0.260   6.103   7.616  0.2414  0.3515  0.1974
   15MOL   C261 4769   0.144   6.079   7.717 -0.0848  0.5791 -0.2491
   15MOL   C262 4770   0.126   6.161   7.843  0.0334  0.5118  0.4850
   15MOL   C263 4771   0.067   5.976   7.701 -0.1660  0.0568  1.4454
   15MOL   H264 4772   0.123   6.242   7.527  0.3674  0.3989 -0.8141
   15MOL   H265 4773   0.281   6.370   7.686 -0.8166  1.3464 -0.9311
   15MOL   H266 4774   0.251   6.454   7.537 -0.2310  0.3153  1.2692
   15MOL   H267 4775   0.392   6.345   7.553  1.4050 -1.3144  2.8151
   15MOL   H268 4776   0.251   6.019   7.548  0.3549  0.7115 -0.2660
   15MOL   H269 4777   0.213   6.147   0.015  0.4063 -0.5326 -0.2358
   15MOL   H270 4778   0.039   6.137   0.012  1.7428 -1.0975  2.3742
   15MOL   H271 4779   0.122   6.266   7.817 -1.2068  1.5044  4.3078
   15MOL   H272 4780   0.069   5.908   7.618 -0.7290  1.4448  0.2646
   15MOL   H273 4781   7.879   5.950   7.768  0.6361 -0.6991  2.1281
   15MOL   C274 4782   0.403   6.086   7.669 -0.2211  0.9678 -0.0525
   15MOL   C275 4783   0.516   6.091   7.559 -0.3036  0.4356 -0.4048
   15MOL   C276 4784   0.434   5.972   7.773 -1.1950  0.1225 -0.2050
   15MOL   C277 4785   0.542   6.028   7.870  0.5839  0.2778  0.1036
   15MOL   C278 4786   0.490   6.106   0.099 -0.4559 -0.2432 -0.6303
   15MOL   C279 4787   0.675   6.025   7.852 -0.7125 -0.2848 -0.2270
   15MOL   H280 4788   0.411   6.179   7.726 -0.5723  1.4484 -0.7783
   15MOL   H281 4789   0.611   6.048   7.588 -0.4282 -0.8224 -1.7776
   15MOL   H282 4790   0.546   6.194   7.536  2.2783  0.4050  2.5551
   15MOL   H283 4791   0.489   6.026   7.476 -2.1822  0.9895 -0.2450
   15MOL   H284 4792   0.352   5.956   7.843  1.2871 -0.5829  2.6658
   15MOL   H285 4793   0.427   6.037   0.156  0.0315 -0.2941 -0.1477
   15MOL   H286 4794   0.423   6.184   0.064 -0.3309  0.8496  1.4883
   15MOL   H287 4795   0.563   6.151   0.167 -1.7273  0.7156  0.1176
   15MOL   H288 4796   0.730   5.977   7.772  0.0627 -1.1523  0.8160
   15MOL   H289 4797   0.735   6.080   0.031  0.0569 -1.2576 -0.1107
   15MOL   C290 4798   0.478   5.829   7.712 -0.5585  0.2694  0.4600
   15MOL   C291 4799   0.366   5.780   7.615  0.0068 -0.1046  0.2619
   15MOL   C292 4800   0.487   5.713   7.820 -0.5359  0.4042  0.0407
   15MOL   C293 4801   0.602   5.608   7.788 -0.4590 -0.1223 -0.1298
   15MOL   C294 4802   0.685   5.549   0.009 -0.4590 -0.1929  0.0049
   15MOL   C295 4803   0.639   5.572   7.661  0.2438  0.8855 -0.1290
   15MOL   H296 4804   0.566   5.845   7.650 -0.1058  0.7127  1.2169
   15MOL   H297 4805   0.263   5.780   7.651  0.3048 -1.0158  1.1534
   15MOL   H298 4806   0.389   5.680   7.578  3.3459  1.0745 -0.9753
   15MOL   H299 4807   0.364   5.839   7.523  0.0255  0.0861  0.3827
   15MOL   H300 4808   0.544   5.765   0.005 -0.1610  1.4838 -0.9386
   15MOL   H301 4809   0.743   5.628   0.054 -0.2999  1.4138 -2.8902
   15MOL   H302 4810   0.757   5.483   7.852 -1.5201 -2.3395  1.2442
   15MOL   H303 4811   0.617   5.504   0.081 -0.6874  0.0390 -0.0683
   15MOL   H304 4812   0.593   5.601   7.568 -0.0215  0.1583 -0.2294
   15MOL   H305 4813   0.719   5.502   7.643  0.2124  0.4211  1.4347
   15MOL   C306 4814   0.354   5.652   7.878 -0.5530  0.6205  0.8133
   15MOL   C307 4815   0.367   5.642   0.143 -0.0023  0.0969 -0.0016
   15MOL   C308 4816   0.303   5.518   7.805  0.3423 -0.4250 -0.6095
   15MOL   C309 4817   0.162   5.485   7.841  0.5663  0.4206  0.0036
   15MOL   C310 4818   0.052   5.520   7.737 -0.1676  0.2535 -0.0425
   15MOL   C311 4819   0.130   5.432   0.068 -0.0828  0.7017 -0.2039
   15MOL   H312 4820   0.273   5.718   7.847 -2.0320 -1.7838 -0.5852
   15MOL   H313 4821   0.445   5.578   0.184 -1.9254 -1.6506  0.9974
   15MOL   H314 4822   0.274   5.608   0.190  1.6765 -3.7716  0.7329
   15MOL   H315 4823   0.386   5.743   0.179  2.1457 -0.5887  0.8915
   15MOL   H316 4824   0.307   5.513   7.696 -0.0477 -0.8953 -0.6048
   15MOL   H317 4825   0.086   5.470   7.646  1.1756 -0.0771  0.6407
   15MOL   H318 4826   0.049   5.628   7.721 -3.1884  0.0861 -1.1038
   15MOL   H319 4827   7.845   5.478   7.758 -0.3319  0.5325 -0.2634
   15MOL   H320 4828   0.205   5.412   0.142 -0.6048 -0.7929 -0.0653
   15MOL   H321 4829   0.027   5.415   0.097 -0.4189 -0.8212 -2.1860
   15MOL   H322 4830   0.347   5.427   7.845  0.4002 -0.0671  0.1476
   16MOL     C1 4831   5.926   2.782   0.525 -0.1891  0.5412  0.5748
   16MOL     C2 4832   5.994   2.723   0.401 -0.4665 -0.0496 -0.0712
   16MOL     C3 4833   5.803   2.872   0.494 -0.0595 -0.3660  0.1498
   16MOL     C4 4834   5.809   2.964   0.371  0.3620  0.2047  0.4171
   16MOL     C5 4835   5.718   2.940   0.259 -0.1607  0.4713 -0.0730
   16MOL     C6 4836   5.905   3.056   0.351  0.1574 -0.7629  0.0380
   16MOL     H7 4837   5.895   2.704   0.595 -0.0533  1.5410  1.7803
   16MOL     H8 4838   6.036   2.808   0.347 -1.2918  1.0207  0.9398
   16MOL     H9 4839   5.923   2.670   0.337  1.7958 -1.9553 -1.0976
   16MOL    H10 4840   6.091   2.676   0.419 -1.5073 -1.6703  1.5053
   16MOL    H11 4841   5.720   2.804   0.475  1.2999 -1.6102 -1.4033
   16MOL    H12 4842   5.615   2.943   0.296  0.2693  2.1348  1.0561
   16MOL    H13 4843   5.737   2.838   0.227  0.4556  0.7183 -0.4848
   16MOL    H14 4844   5.728   3.005   0.173 -2.7063  2.0128  0.7357
   16MOL    H15 4845   5.977   3.070   0.430  2.7846  1.6779 -2.6279
   16MOL    H16 4846   5.904   3.115   0.260 -0.5918 -0.9718 -0.0960
   16MOL    H17 4847   6.003   2.838   0.579 -0.2869  0.9512  0.2864
   16MOL    C18 4848   5.755   2.954   0.617  0.2209 -0.5041  0.4044
   16MOL    C19 4849   5.831   2.913   0.750 -0.1146  0.3143  0.1135
   16MOL    C20 4850   5.594   2.960   0.632  0.1564 -0.1891  0.1898
   16MOL    C21 4851   5.554   3.109   0.665  0.4225  1.4269 -0.1006
   16MOL    C22 4852   5.531   3.197   0.543 -0.3164 -0.1982 -0.6657
   16MOL    C23 4853   5.522   3.165   0.785 -0.1081 -0.0056  0.0878
   16MOL    H24 4854   5.787   3.055   0.593  1.4025 -0.6640  1.2715
   16MOL    H25 4855   5.937   2.937   0.757 -0.1719  0.2800  1.1475
   16MOL    H26 4856   5.834   2.808   0.778  2.5797  0.2099 -0.4668
   16MOL    H27 4857   5.800   2.986   0.825  1.5495  1.9751 -0.7633
   16MOL    H28 4858   5.552   2.958   0.531  1.6163  3.1052 -0.5416
   16MOL    H29 4859   5.469   3.141   0.473  0.4827 -1.3945 -0.4334
   16MOL    H30 4860   5.620   3.203   0.480 -0.7758  2.6813 -1.1068
   16MOL    H31 4861   5.496   3.299   0.560  1.7103 -0.1156  3.8461
   16MOL    H32 4862   5.545   3.115   0.878  1.9977  0.7732  0.0055
   16MOL    H33 4863   5.487   3.268   0.787  2.1439  0.7662  1.3428
   16MOL    C34 4864   5.504   2.859   0.716 -0.1315 -0.4646 -0.5027
   16MOL    C35 4865   5.547   2.715   0.720  0.5714  0.3310 -0.8820
   16MOL    C36 4866   5.347   2.868   0.693  0.1410  0.3232 -0.6164
   16MOL    C37 4867   5.278   2.820   0.822  0.6863 -0.4242 -0.0801
   16MOL    C38 4868   5.245   2.934   0.919  0.2841 -0.2653  0.4100
   16MOL    C39 4869   5.238   2.695   0.851  0.7711 -0.2595  0.1700
   16MOL    H40 4870   5.517   2.897   0.817  2.4647  3.9149 -2.3313
   16MOL    H41 4871   5.509   2.651   0.641  0.3747 -0.4542 -0.1645
   16MOL    H42 4872   5.520   2.665   0.813 -1.4011  1.3373 -0.8873
   16MOL    H43 4873   5.655   2.711   0.728  0.3940 -0.5144  1.5043
   16MOL    H44 4874   5.323   2.974   0.693 -3.4412 -0.4117 -2.5076
   16MOL    H45 4875   5.161   2.990   0.878 -1.2315 -0.7661  2.7505
   16MOL    H46 4876   5.328   3.004   0.934  0.0599  0.1864 -0.3742
   16MOL    H47 4877   5.217   2.900   1.018 -0.0637  0.3821  0.5404
   16MOL    H48 4878   5.252   2.618   0.777 -2.5073 -1.3370  0.5957
   16MOL    H49 4879   5.190   2.661   0.942  2.0418  1.1155  1.3958
   16MOL    C50 4880   5.289   2.790   0.566 -0.4697  0.1880  0.0436
   16MOL    C51 4881   5.373   2.802   0.432  0.0362 -0.1904  0.1839
   16MOL    C52 4882   5.136   2.805   0.548 -0.6710  0.3890  0.6148
   16MOL    C53 4883   5.067   2.669   0.519 -0.1648  0.0743  0.2430
   16MOL    C54 4884   5.074   2.622   0.375  0.4259 -0.1688  0.2704
   16MOL    C55 4885   5.018   2.588   0.615  0.4593 -0.8226  0.4203
   16MOL    H56 4886   5.315   2.685   0.578  0.1848 -0.0691 -3.0241
   16MOL    H57 4887   5.371   2.903   0.392 -0.6504 -0.3673 -0.2422
   16MOL    H58 4888   5.333   2.738   0.353 -0.6241  0.2375  0.1714
   16MOL    H59 4889   5.479   2.779   0.449  0.5593  1.9864 -0.0479
   16MOL    H60 4890   5.105   2.829   0.650  1.6145  0.0347  1.4383
   16MOL    H61 4891   5.116   2.525   0.349  1.6268  0.1133  1.1256
   16MOL    H62 4892   5.124   2.691   0.307  0.9128 -2.7415 -2.0731
   16MOL    H63 4893   4.970   2.613   0.343  0.1148  1.8979  0.6727
   16MOL    H64 4894   5.027   2.623   0.717 -0.3910 -2.0250  0.9211
   16MOL    H65 4895   4.968   2.495   0.593 -2.4785  0.7598  0.1051
   16MOL    C66 4896   5.079   2.918   0.458  0.0829  0.6162  0.2515
   16MOL    C67 4897   5.152   3.052   0.498  0.5962 -0.1507  0.4289
   16MOL    C68 4898   4.924   2.925   0.433 -0.3915  0.1056 -0.3635
   16MOL    C69 4899   4.898   2.989   0.296  0.1487 -0.4282  0.0481
   16MOL    C70 4900   4.894   2.891   0.177 -0.2920  0.0083 -0.2217
   16MOL    C71 4901   4.897   3.121   0.281  0.2971 -0.3056  0.7142
   16MOL    H72 4902   5.125   2.888   0.363  0.7041 -2.0208  1.3352
   16MOL    H73 4903   5.144   3.084   0.602 -0.2467 -0.8369  0.5741
   16MOL    H74 4904   5.118   3.136   0.437  0.1254 -0.4317  0.3052
   16MOL    H75 4905   5.257   3.050   0.467  0.8942 -0.7059  1.4524
   16MOL    H76 4906   4.882   2.825   0.422  0.3697 -0.2343 -0.2432
   16MOL    H77 4907   4.992   2.850   0.154  0.3070  0.6081  1.2204
   16MOL    H78 4908   4.863   2.948   0.090  2.7549  2.0294 -0.0263
   16MOL    H79 4909   4.816   2.820   0.205  0.0559 -0.2113  0.2008
   16MOL    H80 4910   4.910   3.183   0.368  1.0583  2.9478 -1.5975
   16MOL    H81 4911   4.892   3.163   0.181  0.8542  0.6321  1.0788
   16MOL    C82 4912   4.834   2.993   0.541  0.3034  0.2582  0.0024
   16MOL    C83 4913   4.848   2.917   0.668  0.5029 -0.0596 -0.2470
   16MOL    C84 4914   4.683   3.007   0.503  0.6813 -0.3337  0.6288
   16MOL    C85 4915   4.638   3.133   0.578  0.3439 -0.6265 -0.7173
   16MOL    C86 4916   4.657   3.271   0.504 -1.0112 -0.1142 -0.1420
   16MOL    C87 4917   4.584   3.126   0.697  0.3854  0.0330 -0.0585
   16MOL    H88 4918   4.874   3.090   0.570  0.5833 -0.5334  2.3693
   16MOL    H89 4919   4.938   2.949   0.720 -0.6120  2.8071  0.0269
   16MOL    H90 4920   4.850   2.810   0.650 -0.3756 -0.2561  0.7746
   16MOL    H91 4921   4.774   2.938   0.746  1.1124  0.0669  0.2989
   16MOL    H92 4922   4.679   3.022   0.394 -0.8813  0.6951  0.7970
   16MOL    H93 4923   4.762   3.286   0.480  0.3820 -1.7430  4.4217
   16MOL    H94 4924   4.629   3.350   0.573 -1.1325  2.8108 -3.4406
   16MOL    H95 4925   4.610   3.288   0.407  1.6317  2.2603 -1.0611
   16MOL    H96 4926   4.576   3.037   0.758 -0.6538 -0.6192 -1.1319
   16MOL    H97 4927   4.550   3.219   0.739  0.0816 -0.4359  0.7387
   16MOL    C98 4928   4.581   2.892   0.519 -0.1235  0.1334  0.5126
   16MOL    C99 4929   4.630   2.758   0.456  0.0519  0.2664  0.0946
   16MOL   C100 4930   4.434   2.929   0.462 -0.3691 -0.3270  0.1114
   16MOL   C101 4931   4.330   2.856   0.547  0.1837 -0.1056 -0.1269
   16MOL   C102 4932   4.345   2.703   0.563 -0.8671 -0.3747 -0.4407
   16MOL   C103 4933   4.243   2.922   0.627  0.3565 -0.3474  0.4846
   16MOL   H104 4934   4.582   2.872   0.626 -2.0084  0.7375  0.6563
   16MOL   H105 4935   4.653   2.768   0.350  2.0122  2.4357  0.6718
   16MOL   H106 4936   4.569   2.668   0.468  0.7302 -0.0389  1.2478
   16MOL   H107 4937   4.721   2.724   0.505  0.3368  0.0511 -0.5776
   16MOL   H108 4938   4.424   3.036   0.479  0.1185 -0.4256  1.0319
   16MOL   H109 4939   4.426   2.677   0.630 -3.4447 -1.2611  2.4367
   16MOL   H110 4940   4.361   2.655   0.466  1.1048 -1.2066  0.2774
   16MOL   H111 4941   4.261   2.653   0.611 -0.9007  0.8537  0.7791
   16MOL   H112 4942   4.235   3.030   0.621  2.1857 -0.2662 -1.0716
   16MOL   H113 4943   4.173   2.870   0.690 -1.2070  2.4343  1.1137
   16MOL   C114 4944   4.397   2.903   0.309 -0.8227 -0.0112 -1.1076
   16MOL   C115 4945   4.504   2.966   0.218  0.2929 -0.0294 -0.0636
   16MOL   C116 4946   4.257   2.941   0.271  0.5474 -0.5665 -0.6025
   16MOL   C117 4947   4.203   2.841   0.180  0.5851 -1.0223  0.4030
   16MOL   C118 4948   4.129   2.727   0.239 -0.3525  0.2987  0.4763
   16MOL   C119 4949   4.232   2.843   0.051  0.2156  0.1255  0.5699
   16MOL   H120 4950   4.412   2.796   0.300  1.7398  0.2435 -0.2895
   16MOL   H121 4951   4.473   2.978   0.114  1.7259 -2.5175 -0.8042
   16MOL   H122 4952   4.598   2.911   0.212  0.1006 -0.4612  0.8427
   16MOL   H123 4953   4.531   3.065   0.257 -1.8121  0.2682  0.6980
   16MOL   H124 4954   4.191   2.935   0.357  1.4887  2.4885  0.3800
   16MOL   H125 4955   4.203   2.669   0.295 -0.9644 -1.1284 -0.1523
   16MOL   H126 4956   4.085   2.667   0.158  0.3149  0.7111 -0.1970
   16MOL   H127 4957   4.049   2.747   0.310  0.5274  0.9181  1.3056
   16MOL   H128 4958   4.290   2.926   0.014  1.3912 -1.2089 -0.6304
   16MOL   H129 4959   4.194   2.763   7.881  1.5181 -0.9586  1.1450
   16MOL   C130 4960   4.230   3.093   0.227 -0.0832 -0.3412  0.2748
   16MOL   C131 4961   4.276   3.209   0.319  0.4557  0.0721  0.0170
   16MOL   C132 4962   4.081   3.112   0.178  0.1081 -0.5020  0.0404
   16MOL   C133 4963   4.077   3.199   0.050 -0.2079 -0.2831 -0.3201
   16MOL   C134 4964   4.125   3.343   0.050 -1.2032 -0.3314  0.2261
   16MOL   C135 4965   4.029   3.149   7.837 -0.5205 -0.1647  0.4758
   16MOL   H136 4966   4.293   3.100   0.139 -1.9406  0.3163 -1.0443
   16MOL   H137 4967   4.257   3.311   0.287 -0.4044  0.2442  1.0090
   16MOL   H138 4968   4.384   3.205   0.334  0.3240 -0.6397  0.8372
   16MOL   H139 4969   4.249   3.188   0.423  1.5322 -0.2445  0.2338
   16MOL   H140 4970   4.030   3.017   0.159 -2.4046  1.0106 -1.1144
   16MOL   H141 4971   4.228   3.363   0.081 -1.3895 -0.8901  1.2216
   16MOL   H142 4972   4.063   3.399   0.118 -0.1398  2.6835 -1.1917
   16MOL   H143 4973   4.125   3.395   7.846  1.5820 -1.3990 -0.4285
   16MOL   H144 4974   4.002   3.044   7.833 -0.4244 -0.1330 -1.0589
   16MOL   H145 4975   4.019   3.200   7.742  0.0006  1.2743  1.1821
   16MOL   C146 4976   3.980   3.165   0.285 -0.2090 -0.0331  0.0941
   16MOL   C147 4977   3.978   3.083   0.424 -0.2432  0.1102 -0.0040
   16MOL   C148 4978   3.835   3.198   0.233 -0.1394  0.0023 -0.2816
   16MOL   C149 4979   3.802   3.347   0.277 -0.6884 -0.2831 -0.8755
   16MOL   C150 4980   3.819   3.380   0.427  0.4601  0.6890 -0.4049
   16MOL   C151 4981   3.784   3.450   0.191 -0.2430 -0.5205  0.0248
   16MOL   H152 4982   4.017   3.262   0.318  1.3048 -0.5474 -0.0417
   16MOL   H153 4983   4.077   3.072   0.468  0.7917  1.4699 -1.8908
   16MOL   H154 4984   3.952   2.979   0.404  0.8645 -0.2026  0.1471
   16MOL   H155 4985   3.915   3.125   0.502 -0.9448 -2.1354  0.6703
   16MOL   H156 4986   3.837   3.220   0.126 -0.8814  1.8300  0.0593
   16MOL   H157 4987   3.924   3.371   0.457  0.3322  0.5199 -0.0001
   16MOL   H158 4988   3.764   3.317   0.498 -0.8412  0.7768 -1.3271
   16MOL   H159 4989   3.801   3.485   0.449 -0.1943  0.9309 -2.0070
   16MOL   H160 4990   3.780   3.435   0.084  0.8229  0.3682 -0.1406
   16MOL   H161 4991   3.777   3.546   0.240  0.3636  0.9836 -2.7512
   16MOL   C162 4992   3.725   3.091   0.269 -0.8030  0.5938 -0.1836
   16MOL   C163 4993   3.751   2.950   0.206 -0.4269  0.6949  0.3223
   16MOL   C164 4994   3.581   3.137   0.242 -0.3501  0.3991  0.1930
   16MOL   C165 4995   3.490   3.098   0.364 -0.2228  0.2510 -0.1802
   16MOL   C166 4996   3.489   3.191   0.486 -0.6643 -0.3870 -0.4139
   16MOL   C167 4997   3.419   2.984   0.359 -0.5796  0.1014 -0.3093
   16MOL   H168 4998   3.729   3.082   0.377 -0.5600 -0.0159 -0.2378
   16MOL   H169 4999   3.827   2.899   0.265 -0.5811  1.4864  1.2334
   16MOL   H170 5000   3.798   2.955   0.108 -0.6166 -0.2315  0.1865
   16MOL   H171 5001   3.659   2.892   0.198  0.7245 -0.9554 -1.4114
   16MOL   H172 5002   3.584   3.245   0.249  0.2054  0.2913  1.8149
   16MOL   H173 5003   3.400   3.179   0.547  0.2807 -0.6204  0.9619
   16MOL   H174 5004   3.499   3.296   0.458  1.7633  0.0862  1.9717
   16MOL   H175 5005   3.581   3.162   0.538 -1.1365 -0.5954  0.3093
   16MOL   H176 5006   3.407   2.921   0.272  1.7380  1.5730 -1.7342
   16MOL   H177 5007   3.361   2.950   0.444  1.2886 -0.3643  0.7919
   16MOL   C178 5008   3.524   3.105   0.096 -0.2839 -0.1205  0.1971
   16MOL   C179 5009   3.621   3.163   7.879  0.4549  0.2465  0.3767
   16MOL   C180 5010   3.373   3.137   0.061  0.6338  0.4201  0.1408
   16MOL   C181 5011   3.315   3.041   7.848 -0.1259  0.2580 -0.0131
   16MOL   C182 5012   3.369   3.047   7.709 -0.3240 -0.2441  0.4173
   16MOL   C183 5013   3.205   2.966   7.866 -0.4550 -0.9259 -0.3829
   16MOL   H184 5014   3.514   2.997   0.087 -1.6322  0.1276 -1.3520
   16MOL   H185 5015   3.704   3.094   7.860 -0.3576 -0.3808 -0.9845
   16MOL   H186 5016   3.664   3.258   0.015  0.7159  0.4047 -0.5388
   16MOL   H187 5017   3.581   3.196   7.783  0.3722 -1.0269 -0.0475
   16MOL   H188 5018   3.326   3.113   0.156 -1.3292  1.2035 -0.6228
   16MOL   H189 5019   3.473   3.014   7.708 -0.1624  0.1529  1.7808
   16MOL   H190 5020   3.364   3.147   7.665  2.2661 -0.6150 -0.8337
   16MOL   H191 5021   3.310   2.978   7.650 -1.2198 -1.0958  2.2553
   16MOL   H192 5022   3.167   2.957   0.075  1.8694 -2.2297  0.4162
   16MOL   H193 5023   3.146   2.913   7.793 -1.0931  0.9170 -1.2167
   16MOL   C194 5024   3.337   3.285   0.040  0.7028 -0.0765 -0.5280
   16MOL   C195 5025   3.404   3.395   0.120  0.4846  0.5804  0.0745
   16MOL   C196 5026   3.179   3.319   0.043 -0.8769 -0.2260  0.7410
   16MOL   C197 5027   3.142   3.397   7.811  0.1231  0.8682 -0.4002
   16MOL   C198 5028   3.096   3.322   7.687 -0.6026 -0.0453  0.0076
   16MOL   C199 5029   3.150   3.533   7.809  0.3917 -0.1542  0.7027
   16MOL   H200 5030   3.370   3.306   7.831  0.1748  0.8675 -0.5145
   16MOL   H201 5031   3.396   3.375   0.227 -0.0407  0.1519 -0.0447
   16MOL   H202 5032   3.364   3.496   0.108  1.6609  1.0392 -0.0596
   16MOL   H203 5033   3.511   3.399   0.097  0.6312  0.5488  0.7449
   16MOL   H204 5034   3.141   3.219   0.023 -0.0535 -0.2001 -1.1527
   16MOL   H205 5035   3.004   3.268   7.710 -0.6565  0.2334  0.4461
   16MOL   H206 5036   3.168   3.247   7.653  1.4616  2.0506 -0.3484
   16MOL   H207 5037   3.064   3.378   7.599  1.3390  1.7897  0.4452
   16MOL   H208 5038   3.170   3.585   0.009 -1.2152  0.4826  0.7166
   16MOL   H209 5039   3.117   3.590   7.723  1.2658 -1.5309 -0.5708
   16MOL   C210 5040   3.104   3.370   0.171 -0.1135 -0.1210  0.2721
   16MOL   C211 5041   3.132   3.277   0.288 -0.0607 -0.1877  0.2352
   16MOL   C212 5042   2.951   3.413   0.162  0.6379  0.5224  0.0451
   16MOL   C213 5043   2.927   3.534   0.259 -0.0755  0.0646 -0.2753
   16MOL   C214 5044   2.894   3.522   0.411  0.5228  0.0628  0.5466
   16MOL   C215 5045   2.944   3.658   0.217 -0.0059 -0.5526 -0.3506
   16MOL   H216 5046   3.154   3.465   0.190 -2.1794  1.1831 -0.6140
   16MOL   H217 5047   3.111   3.324   0.384  0.0601  2.2026 -0.8622
   16MOL   H218 5048   3.237   3.251   0.301 -0.4960 -1.3015  1.6046
   16MOL   H219 5049   3.084   3.179   0.284  2.5598 -1.4976 -0.2116
   16MOL   H220 5050   2.945   3.473   0.071 -3.2206  2.0213  1.1869
   16MOL   H221 5051   2.877   3.621   0.452  1.5377 -0.0006  1.1229
   16MOL   H222 5052   2.974   3.476   0.468 -0.8678 -0.1762  2.3529
   16MOL   H223 5053   2.798   3.469   0.419  0.2733  0.2715 -0.9020
   16MOL   H224 5054   2.969   3.674   0.113 -1.3378  0.3722 -0.5422
   16MOL   H225 5055   2.928   3.747   0.276 -0.8828 -1.2480  0.4769
   16MOL   C226 5056   2.837   3.309   0.165 -0.4334 -0.0254 -0.5684
   16MOL   C227 5057   2.855   3.183   0.088  0.6720  0.7032  0.4234
   16MOL   C228 5058   2.691   3.359   0.140  0.5843 -0.0379 -1.0101
   16MOL   C229 5059   2.589   3.264   0.218 -0.5515 -0.6181  0.4773
   16MOL   C230 5060   2.579   3.270   0.369 -0.2463 -0.2087 -0.0625
   16MOL   C231 5061   2.502   3.183   0.155 -0.1176 -0.0142 -0.2600
   16MOL   H232 5062   2.837   3.280   0.270  0.5634 -0.9954 -0.8274
   16MOL   H233 5063   2.955   3.142   0.103  1.9228  2.4733 -2.7138
   16MOL   H234 5064   2.833   3.200   7.875  0.9444  0.5246  0.3380
   16MOL   H235 5065   2.786   3.105   0.122  2.6248 -0.1242  2.6432
   16MOL   H236 5066   2.693   3.452   0.198  0.9368 -1.5132  1.4423
   16MOL   H237 5067   2.676   3.247   0.414  0.3094 -1.6343 -1.9207
   16MOL   H238 5068   2.507   3.200   0.410 -0.5300 -0.6764 -1.3275
   16MOL   H239 5069   2.543   3.367   0.402  1.6749 -0.1242  1.8823
   16MOL   H240 5070   2.502   3.171   0.048 -0.0261  2.7918 -0.6108
   16MOL   H241 5071   2.425   3.131   0.211  1.4567 -0.7975  1.2401
   16MOL   C242 5072   2.641   3.394   7.888 -0.5085 -0.0360 -0.0323
   16MOL   C243 5073   2.744   3.463   7.795 -0.0940  0.2751 -0.7047
   16MOL   C244 5074   2.503   3.472   0.003  0.2056  0.2694 -0.1276
   16MOL   C245 5075   2.398   3.404   7.806 -0.0331  0.6615  0.4611
   16MOL   C246 5076   2.416   3.414   7.654 -0.1881 -0.5393 -0.4040
   16MOL   C247 5077   2.285   3.350   7.854  0.2670  0.5242  0.1699
   16MOL   H248 5078   2.632   3.294   7.845 -0.2437 -1.3024  2.6942
   16MOL   H249 5079   2.810   3.391   7.746 -0.1134  0.3815 -0.8877
   16MOL   H250 5080   2.802   3.543   7.840 -0.1582 -1.0347  1.8060
   16MOL   H251 5081   2.687   3.502   7.711 -0.9469  0.0920 -0.2213
   16MOL   H252 5082   2.466   3.460   0.105  0.9696  0.0718  0.1323
   16MOL   H253 5083   2.493   3.344   7.625 -0.0601  0.4057 -2.4247
   16MOL   H254 5084   2.462   3.508   7.624  1.5967 -1.2283  0.1250
   16MOL   H255 5085   2.324   3.389   7.602 -0.6440 -0.8996  0.5518
   16MOL   H256 5086   2.261   3.343   0.066  1.7564  1.3614  0.5817
   16MOL   H257 5087   2.203   3.316   7.792 -0.6453  1.2469  0.9552
   16MOL   C258 5088   2.505   3.634   7.884  0.6878 -0.0157 -0.2514
   16MOL   C259 5089   2.585   3.690   0.112 -0.4739 -0.1029 -0.0928
   16MOL   C260 5090   2.370   3.716   7.857  0.1528  0.3160  0.2526
   16MOL   C261 5091   2.386   3.863   7.808  0.2659  0.2645  0.7533
   16MOL   C262 5092   2.342   3.885   7.664  0.3719 -0.0279 -0.7716
   16MOL   C263 5093   2.431   3.966   7.880  0.2758  0.5813 -0.3313
   16MOL   H264 5094   2.568   3.655   7.798  2.2381  0.6647  1.0130
   16MOL   H265 5095   2.690   3.660   0.113 -0.4380 -0.0740 -1.9322
   16MOL   H266 5096   2.539   3.664   0.208 -0.5050 -2.7342 -0.7689
   16MOL   H267 5097   2.594   3.798   0.102 -1.3815  0.2387  2.4821
   16MOL   H268 5098   2.327   3.665   7.771  1.9538 -0.1521 -0.3938
   16MOL   H269 5099   2.394   3.824   7.591 -0.6457  0.3979 -1.8745
   16MOL   H270 5100   2.368   3.982   7.622  0.7319 -0.7012 -2.1261
   16MOL   H271 5101   2.234   3.867   7.656  0.2662 -0.4470  1.2684
   16MOL   H272 5102   2.458   3.954   0.091 -0.2541 -2.1600 -0.4880
   16MOL   H273 5103   2.439   4.066   7.839  0.3934  0.3772 -0.8042
   16MOL   C274 5104   2.255   3.700   0.070  0.5267  0.0813  0.2175
   16MOL   C275 5105   2.114   3.701   0.009 -0.3744  0.2961  0.1062
   16MOL   C276 5106   2.267   3.771   0.218 -0.3396 -0.5664 -0.3862
   16MOL   C277 5107   2.277   3.664   0.331 -0.2896 -0.2473  0.2411
   16MOL   C278 5108   2.159   3.572   0.356  0.2161  0.2114  0.1026
   16MOL   C279 5109   2.379   3.666   0.425  0.3257 -0.3301  0.1895
   16MOL   H280 5110   2.262   3.594   0.093  0.5438  0.3204  1.3623
   16MOL   H281 5111   2.053   3.616   0.041  1.4767 -1.6014 -1.3187
   16MOL   H282 5112   2.122   3.689   7.794  1.1194  0.6696  0.1744
   16MOL   H283 5113   2.049   3.789   0.014 -0.5108  0.2610 -0.9465
   16MOL   H284 5114   2.360   3.826   0.228 -1.0732  0.4762  0.8918
   16MOL   H285 5115   2.096   3.614   0.435  0.3389  1.0766 -0.2612
   16MOL   H286 5116   2.185   3.473   0.392  0.8723  0.1746 -0.4658
   16MOL   H287 5117   2.103   3.554   0.264 -0.6404 -0.1046  0.6772
   16MOL   H288 5118   2.460   3.737   0.426  1.3832 -1.4586 -3.0302
   16MOL   H289 5119   2.372   3.593   0.505 -0.7094  0.2167  0.6230
   16MOL   C290 5120   2.154   3.884   0.252 -0.1487 -0.4683 -0.6256
   16MOL   C291 5121   2.149   3.999   0.146 -0.1316  0.0116  0.7459
   16MOL   C292 5122   2.145   3.933   0.398  0.3471  1.0706  0.0504
   16MOL   C293 5123   2.001   3.916   0.460 -0.0716 -0.7706  0.3342
   16MOL   C294 5124   1.888   3.986   0.389  0.1033  0.5982  0.6181
   16MOL   C295 5125   1.978   3.845   0.567 -0.4759  0.3121 -0.0424
   16MOL   H296 5126   2.064   3.824   0.234 -1.6132  1.5927 -0.3296
   16MOL   H297 5127   2.228   4.071   0.167  1.5485 -1.9850  1.4409
   16MOL   H298 5128   2.056   4.055   0.153  0.7202  1.7141 -1.0867
   16MOL   H299 5129   2.154   3.974   0.040  0.0368  0.6543  0.6018
   16MOL   H300 5130   2.188   3.857   0.464 -2.6307 -2.9314 -2.3891
   16MOL   H301 5131   1.909   4.092   0.392 -0.2451  0.6367  2.7279
   16MOL   H302 5132   1.790   3.977   0.437 -0.3520  0.4021 -0.3360
   16MOL   H303 5133   1.859   3.937   0.296 -1.1218  0.0664  1.2570
   16MOL   H304 5134   2.048   3.779   0.616 -1.7369 -1.9962 -1.2763
   16MOL   H305 5135   1.877   3.848   0.607 -0.4140  0.1664  0.1253
   16MOL   C306 5136   2.203   4.070   0.435  0.3777  0.1342 -0.4571
   16MOL   C307 5137   2.360   4.054   0.404  0.6102  0.1338  0.1017
   16MOL   C308 5138   2.179   4.109   0.580 -0.1500  0.0480 -0.1312
   16MOL   C309 5139   2.257   4.231   0.623 -0.1853  0.2126  0.3373
   16MOL   C310 5140   2.241   4.362   0.547  0.5548  0.1840  0.6174
   16MOL   C311 5141   2.336   4.219   0.729 -0.4517 -0.6094  0.1448
   16MOL   H312 5142   2.163   4.149   0.372 -1.7891 -0.9246 -0.4822
   16MOL   H313 5143   2.419   4.011   0.485 -2.5053 -0.1341  2.3116
   16MOL   H314 5144   2.403   4.154   0.399  1.0098  0.0538  1.6881
   16MOL   H315 5145   2.394   4.019   0.306 -1.2253 -1.0937 -0.1104
   16MOL   H316 5146   2.074   4.126   0.605 -0.7036 -1.0490 -1.6167
   16MOL   H317 5147   2.141   4.379   0.506  0.5471 -1.2565 -0.0053
   16MOL   H318 5148   2.306   4.338   0.463 -3.3635 -0.9912 -2.2672
   16MOL   H319 5149   2.280   4.445   0.604  0.6809 -1.3631  2.8333
   16MOL   H320 5150   2.352   4.122   0.775 -0.6615 -0.0041  1.5030
   16MOL   H321 5151   2.377   4.305   0.779  0.8664 -0.8334 -0.5338
   16MOL   H322 5152   2.195   4.028   0.650 -0.8194  1.6005  1.8665
   17MOL     C1 5153   2.499   3.018   4.572  0.4786  0.1905 -0.1658
   17MOL     C2 5154   2.639   2.956   4.580 -0.0078  0.4442 -0.2958
   17MOL     C3 5155   2.502   3.173   4.581 -0.1032 -0.0961 -0.4679
   17MOL     C4 5156   2.556   3.225   4.718  0.0685 -0.0638 -0.2111
   17MOL     C5 5157   2.596   3.369   4.720 -0.0001  0.6781  0.7446
   17MOL     C6 5158   2.578   3.146   4.825 -0.6197 -0.6535  0.9004
   17MOL     H7 5159   2.449   2.989   4.479 -0.3041 -0.0023  0.3078
   17MOL     H8 5160   2.670   2.965   4.684 -0.1053  1.1278 -0.3209
   17MOL     H9 5161   2.718   3.002   4.521  1.0622 -0.2778  0.5479
   17MOL    H10 5162   2.632   2.848   4.565 -1.0854  0.5875 -0.8706
   17MOL    H11 5163   2.572   3.204   4.503  0.7684  1.6238  0.9757
   17MOL    H12 5164   2.682   3.382   4.786  1.2651 -1.9489 -0.3000
   17MOL    H13 5165   2.514   3.436   4.744 -0.6065  0.8323 -1.6344
   17MOL    H14 5166   2.637   3.397   4.623 -2.1941  1.8339  0.1206
   17MOL    H15 5167   2.556   3.040   4.832  0.9923 -0.9684  1.4057
   17MOL    H16 5168   2.619   3.194   4.912  0.1637 -1.1635  0.8208
   17MOL    H17 5169   2.429   2.981   4.647 -1.5395  1.0167 -1.5909
   17MOL    C18 5170   2.368   3.244   4.538  0.0698  0.2746  0.1840
   17MOL    C19 5171   2.260   3.207   4.632 -0.0254 -0.7450 -0.2241
   17MOL    C20 5172   2.332   3.227   4.383 -0.2620  0.1546 -0.4230
   17MOL    C21 5173   2.447   3.276   4.289  0.1272  0.2148 -0.5506
   17MOL    C22 5174   2.467   3.195   4.156  0.2568  0.0072  0.1339
   17MOL    C23 5175   2.523   3.380   4.313 -0.6694  0.2831  0.3230
   17MOL    H24 5176   2.375   3.352   4.549 -2.0518  0.4202  0.3980
   17MOL    H25 5177   2.224   3.105   4.619 -1.0608 -0.3714 -0.2933
   17MOL    H26 5178   2.184   3.284   4.620  0.9524  0.3512  0.5427
   17MOL    H27 5179   2.291   3.222   4.735 -1.3850  1.7019 -0.1545
   17MOL    H28 5180   2.326   3.119   4.371  0.3467  0.3580 -2.7516
   17MOL    H29 5181   2.553   3.224   4.097  0.2865  0.4571  0.3967
   17MOL    H30 5182   2.377   3.208   4.097 -0.9270  1.4962  2.1867
   17MOL    H31 5183   2.470   3.087   4.171 -1.5841  0.0466  0.9826
   17MOL    H32 5184   2.505   3.438   4.402  1.2895  0.4174  0.6706
   17MOL    H33 5185   2.600   3.408   4.242  0.1562  1.8477  1.7698
   17MOL    C34 5186   2.196   3.277   4.324 -0.6623 -0.2558 -0.0577
   17MOL    C35 5187   2.170   3.431   4.355 -0.2671 -0.1849 -0.4138
   17MOL    C36 5188   2.074   3.184   4.358  0.1160 -0.1033  0.0804
   17MOL    C37 5189   2.095   3.043   4.312 -0.1257 -0.2431 -0.1444
   17MOL    C38 5190   2.024   2.946   4.395 -0.0231  0.1465 -0.4574
   17MOL    C39 5191   2.141   2.997   4.192 -0.4486 -0.1686  0.2591
   17MOL    H40 5192   2.218   3.268   4.217  1.7173  1.9589  0.1999
   17MOL    H41 5193   2.266   3.484   4.351  1.2776 -2.9056 -0.5596
   17MOL    H42 5194   2.144   3.439   4.460  1.2352 -0.0786 -0.0407
   17MOL    H43 5195   2.102   3.477   4.284 -0.3130 -0.1564 -0.3507
   17MOL    H44 5196   2.062   3.178   4.466 -1.4451  0.3666 -0.0526
   17MOL    H45 5197   2.060   2.944   4.498  2.1262 -1.0632 -1.1970
   17MOL    H46 5198   2.028   2.844   4.357  3.7795  0.7756 -1.8928
   17MOL    H47 5199   1.917   2.966   4.388 -0.3800 -0.7381  1.9981
   17MOL    H48 5200   2.168   3.063   4.111  2.6982 -1.7991 -0.0866
   17MOL    H49 5201   2.146   2.890   4.179 -0.9042 -0.2058  0.3630
   17MOL    C50 5202   1.929   3.233   4.300  0.2378 -0.1075  0.3743
   17MOL    C51 5203   1.947   3.290   4.161 -0.3819  0.0520  0.0648
   17MOL    C52 5204   1.849   3.330   4.388 -0.3428  0.4041 -0.2385
   17MOL    C53 5205   1.852   3.295   4.539  0.6107  0.1626  0.8898
   17MOL    C54 5206   1.855   3.407   4.641  0.6004 -0.1224 -0.4151
   17MOL    C55 5207   1.843   3.173   4.594  0.9835  0.4500 -0.2193
   17MOL    H56 5208   1.862   3.147   4.293 -2.3790  1.7818  1.5776
   17MOL    H57 5209   1.862   3.269   4.097  1.1000  1.3150 -2.3945
   17MOL    H58 5210   2.021   3.238   4.100  0.5889  1.0430  0.3762
   17MOL    H59 5211   1.971   3.396   4.164  0.6520 -0.2074  1.6650
   17MOL    H60 5212   1.902   3.425   4.394 -0.2220  0.3534 -0.5016
   17MOL    H61 5213   1.878   3.379   4.744 -0.1060  0.0703 -0.2009
   17MOL    H62 5214   1.760   3.460   4.630  0.0927 -1.2699 -1.7482
   17MOL    H63 5215   1.919   3.486   4.602  1.2978 -0.9301 -0.9404
   17MOL    H64 5216   1.840   3.086   4.531  1.3816 -0.9517  1.6419
   17MOL    H65 5217   1.842   3.152   4.700  1.4882  1.1745 -0.0677
   17MOL    C66 5218   1.707   3.365   4.328  0.5494 -0.0179  0.8582
   17MOL    C67 5219   1.655   3.511   4.355 -0.3343  0.4334 -0.5194
   17MOL    C68 5220   1.604   3.245   4.330  0.0559  0.4758  0.2955
   17MOL    C69 5221   1.555   3.215   4.192  0.0597 -0.1817  0.1564
   17MOL    C70 5222   1.562   3.070   4.147 -0.1182  0.2142 -0.6721
   17MOL    C71 5223   1.498   3.301   4.107 -0.5404 -0.4336 -0.1672
   17MOL    H72 5224   1.731   3.371   4.222  2.5779  0.6388  1.3372
   17MOL    H73 5225   1.557   3.525   4.309 -1.3027 -0.3503  1.2256
   17MOL    H74 5226   1.705   3.583   4.291 -0.1723  0.6545 -0.1481
   17MOL    H75 5227   1.665   3.553   4.455 -0.4490  0.7768 -0.6537
   17MOL    H76 5228   1.659   3.156   4.361 -1.2418 -0.7647 -0.8655
   17MOL    H77 5229   1.551   2.996   4.226  0.4005  0.3829 -0.4398
   17MOL    H78 5230   1.661   3.057   4.105  0.2586 -0.3064  0.3647
   17MOL    H79 5231   1.489   3.048   4.069  0.4401  2.1208 -1.7709
   17MOL    H80 5232   1.488   3.405   4.133 -1.3777  0.0619 -2.3892
   17MOL    H81 5233   1.468   3.281   4.006  2.8625 -3.1089 -0.7596
   17MOL    C82 5234   1.477   3.271   4.428  0.0202 -0.4835 -0.2941
   17MOL    C83 5235   1.514   3.321   4.572  0.1695  0.6733 -0.4608
   17MOL    C84 5236   1.359   3.163   4.434 -0.0197  0.1959 -0.2825
   17MOL    C85 5237   1.226   3.239   4.438 -0.1782  0.1473  0.1504
   17MOL    C86 5238   1.158   3.262   4.303 -0.1933  0.2064 -0.2409
   17MOL    C87 5239   1.171   3.296   4.550  0.2250 -0.3660  0.3649
   17MOL    H88 5240   1.432   3.354   4.376  0.1616 -0.9592 -1.1889
   17MOL    H89 5241   1.571   3.247   4.629 -2.1181 -1.3772 -0.7651
   17MOL    H90 5242   1.427   3.334   4.636 -0.7738 -3.2611 -0.8650
   17MOL    H91 5243   1.566   3.417   4.574 -0.7040  1.1438 -0.0624
   17MOL    H92 5244   1.361   3.105   4.342 -0.0894 -1.7093  0.8933
   17MOL    H93 5245   1.212   3.336   4.244  1.2518 -0.6644 -0.0217
   17MOL    H94 5246   1.059   3.308   4.311 -0.1208  0.3482 -0.1521
   17MOL    H95 5247   1.147   3.168   4.250 -1.1500  0.9102 -1.3211
   17MOL    H96 5248   1.199   3.301   4.654 -0.4989  0.0231  0.5474
   17MOL    H97 5249   1.076   3.344   4.530  0.4074  0.9413  2.4691
   17MOL    C98 5250   1.372   3.048   4.539 -0.8575  0.2384  0.6838
   17MOL    C99 5251   1.515   2.990   4.538 -0.4101 -0.4854 -0.4159
   17MOL   C100 5252   1.250   2.953   4.541  0.0116 -0.3308  0.1840
   17MOL   C101 5253   1.183   2.954   4.686 -0.3346 -0.2771  0.6442
   17MOL   C102 5254   1.274   2.919   4.795  0.7722 -0.2146 -0.2227
   17MOL   C103 5255   1.062   3.003   4.704 -0.2259  0.3281 -0.6245
   17MOL   H104 5256   1.372   3.113   4.627 -1.5374  0.4363  0.5385
   17MOL   H105 5257   1.521   2.904   4.605 -1.1370 -0.6673 -0.5803
   17MOL   H106 5258   1.586   3.058   4.587  0.0776 -0.8334 -0.6380
   17MOL   H107 5259   1.547   2.967   4.437 -0.0920 -2.7436  0.1734
   17MOL   H108 5260   1.176   2.999   4.476 -0.5302 -1.3536  0.0696
   17MOL   H109 5261   1.299   3.005   4.858  0.1550 -2.9403  3.9151
   17MOL   H110 5262   1.361   2.873   4.749  3.0462  2.0992  1.6316
   17MOL   H111 5263   1.218   2.851   4.859  0.5162  2.4117  2.5013
   17MOL   H112 5264   1.004   3.035   4.619 -0.3815  1.6736 -0.0352
   17MOL   H113 5265   1.024   3.010   4.805  0.4763  1.8179 -0.4429
   17MOL   C114 5266   1.268   2.812   4.478 -0.6008 -0.0080 -0.5302
   17MOL   C115 5267   1.321   2.815   4.337  0.4631  0.3123  0.2509
   17MOL   C116 5268   1.136   2.724   4.480  0.3012  0.6010 -0.7079
   17MOL   C117 5269   1.180   2.586   4.524  0.3717  0.6554  0.0716
   17MOL   C118 5270   1.261   2.504   4.433  0.1138  0.8720 -0.8661
   17MOL   C119 5271   1.164   2.551   4.652 -0.4123 -0.1624 -0.4461
   17MOL   H120 5272   1.347   2.763   4.535 -2.2638 -0.5968  1.3246
   17MOL   H121 5273   1.255   2.878   4.278 -0.7795 -1.4204 -0.2217
   17MOL   H122 5274   1.336   2.722   4.283  0.5952  0.3193  0.2752
   17MOL   H123 5275   1.421   2.859   4.331  0.5323  0.6024  2.7533
   17MOL   H124 5276   1.063   2.755   4.555  1.8596 -0.5872  1.3686
   17MOL   H125 5277   1.218   2.500   4.333 -2.5816  0.2853  0.2777
   17MOL   H126 5278   1.262   2.400   4.466 -0.4627  1.3113  0.5686
   17MOL   H127 5279   1.362   2.542   4.417 -0.6429  2.9320 -0.9447
   17MOL   H128 5280   1.117   2.607   4.731 -1.2210 -0.9369 -0.3656
   17MOL   H129 5281   1.206   2.456   4.683  0.2393 -0.1250 -1.1949
   17MOL   C130 5282   1.046   2.734   4.347  0.0354 -0.3539 -0.3109
   17MOL   C131 5283   0.974   2.865   4.332 -0.8058  0.4936 -0.1602
   17MOL   C132 5284   0.936   2.622   4.335  0.0043  0.2527  0.1488
   17MOL   C133 5285   0.908   2.602   4.190 -0.8227 -0.3349  0.1110
   17MOL   C134 5286   1.003   2.531   4.104 -0.1632  0.0681  0.2601
   17MOL   C135 5287   0.792   2.640   4.127 -0.6275 -0.0438  0.6154
   17MOL   H136 5288   1.108   2.716   4.260 -0.2726 -0.1461 -0.5749
   17MOL   H137 5289   0.924   2.863   4.235 -0.6283  0.5033 -0.2532
   17MOL   H138 5290   1.045   2.948   4.330 -0.1081 -0.0161  1.9389
   17MOL   H139 5291   0.912   2.899   4.415  0.4504  0.9404  0.6190
   17MOL   H140 5292   0.999   2.534   4.347 -2.0452 -1.0041  1.9506
   17MOL   H141 5293   1.099   2.511   4.151  1.5052  0.4804 -2.8519
   17MOL   H142 5294   1.023   2.587   4.013 -2.5181  0.9527  0.2532
   17MOL   H143 5295   0.973   2.431   4.071  0.2807  0.3693 -1.0748
   17MOL   H144 5296   0.711   2.691   4.177 -0.8726  1.1324 -0.9276
   17MOL   H145 5297   0.781   2.619   4.022  1.1756 -1.8908  0.7601
   17MOL   C146 5298   0.802   2.620   4.434 -0.0091  0.6749  0.0302
   17MOL   C147 5299   0.828   2.657   4.582  0.3421 -0.1898  0.7427
   17MOL   C148 5300   0.721   2.486   4.423 -0.5563 -0.0674 -0.8666
   17MOL   C149 5301   0.572   2.519   4.446  0.2431 -0.7922 -0.2863
   17MOL   C150 5302   0.490   2.552   4.321 -0.0699  0.0959  0.4647
   17MOL   C151 5303   0.506   2.521   4.559  0.2590 -0.0404 -0.6560
   17MOL   H152 5304   0.738   2.699   4.396 -0.9373  0.2974  0.7960
   17MOL   H153 5305   0.896   2.593   4.637 -1.2409 -2.1376  0.5025
   17MOL   H154 5306   0.729   2.650   4.626  0.1542 -3.5608 -0.0184
   17MOL   H155 5307   0.858   2.760   4.599 -0.9488  0.5578 -1.3089
   17MOL   H156 5308   0.719   2.458   4.318  0.5258 -2.4657 -0.2721
   17MOL   H157 5309   0.538   2.630   4.261 -1.8009  1.4405  0.7947
   17MOL   H158 5310   0.399   2.603   4.352  0.2334 -0.3525  2.1660
   17MOL   H159 5311   0.459   2.465   4.264  0.5653  0.6902 -0.7915
   17MOL   H160 5312   0.550   2.505   4.656  0.9935 -0.9363 -1.1303
   17MOL   H161 5313   0.400   2.541   4.558  0.3453  0.5899  1.4262
   17MOL   C162 5314   0.769   2.366   4.509  0.2700  0.1681  0.1599
   17MOL   C163 5315   0.919   2.330   4.504  0.1498 -0.0091  0.3734
   17MOL   C164 5316   0.680   2.239   4.482  0.0996 -0.0245 -1.4968
   17MOL   C165 5317   0.657   2.178   4.620  0.4177  0.2988 -0.8136
   17MOL   C166 5318   0.544   2.226   4.706  0.2964  0.1138  0.3730
   17MOL   C167 5319   0.736   2.088   4.671 -0.2768 -0.6601  0.7114
   17MOL   H168 5320   0.768   2.397   4.613 -0.6049  3.0176 -0.6643
   17MOL   H169 5321   0.958   2.291   4.410  1.8933  2.7068 -0.1051
   17MOL   H170 5322   0.936   2.262   4.587 -0.3373  0.3127  0.7460
   17MOL   H171 5323   0.985   2.411   4.535  0.1477  0.8624 -1.7695
   17MOL   H172 5324   0.578   2.261   4.452 -0.3547  2.3142  1.4872
   17MOL   H173 5325   0.567   2.316   4.762 -0.5663 -0.6575  2.0028
   17MOL   H174 5326   0.527   2.141   4.772 -1.9468  0.6701  0.5410
   17MOL   H175 5327   0.466   2.262   4.639 -1.4340 -0.2244  2.1590
   17MOL   H176 5328   0.818   2.046   4.614 -0.1238  0.5829 -0.0197
   17MOL   H177 5329   0.727   2.050   4.771 -1.0474 -1.3712  0.3719
   17MOL   C178 5330   0.726   2.135   4.368 -0.5893  0.1725  0.5547
   17MOL   C179 5331   0.744   2.194   4.229 -0.1271 -0.2597  0.0840
   17MOL   C180 5332   0.636   2.009   4.361  0.3610 -0.1556  0.7706
   17MOL   C181 5333   0.731   1.880   4.351  0.4462  0.7570 -0.1853
   17MOL   C182 5334   0.807   1.860   4.220 -0.4105  0.4780 -0.1644
   17MOL   C183 5335   0.742   1.784   4.446 -0.0877 -0.7073 -0.2606
   17MOL   H184 5336   0.821   2.095   4.403 -0.2934  0.6026  0.2438
   17MOL   H185 5337   0.833   2.258   4.221 -0.4647  0.1200 -0.6749
   17MOL   H186 5338   0.657   2.254   4.206 -0.4417 -0.9270 -0.4993
   17MOL   H187 5339   0.753   2.130   4.141  0.7470  0.0726 -0.0800
   17MOL   H188 5340   0.601   1.993   4.463 -0.6614  3.8736  1.1272
   17MOL   H189 5341   0.768   1.916   4.135 -1.0598  0.3115  0.0222
   17MOL   H190 5342   0.832   1.758   4.191 -0.0605  0.1438  1.2363
   17MOL   H191 5343   0.907   1.901   4.233 -0.8360  1.4189  0.2037
   17MOL   H192 5344   0.688   1.780   4.540 -0.9332 -1.1365 -0.7581
   17MOL   H193 5345   0.798   1.695   4.423  0.4676  0.1979 -2.5740
   17MOL   C194 5346   0.498   2.018   4.273 -0.4024  0.1992  0.1056
   17MOL   C195 5347   0.405   2.137   4.308  0.1198 -0.5125  0.5828
   17MOL   C196 5348   0.416   1.878   4.263  0.0569  0.1841 -1.6756
   17MOL   C197 5349   0.371   1.857   4.117  0.7207 -0.1954  0.0850
   17MOL   C198 5350   0.468   1.781   4.034 -0.2638 -0.2633 -0.0464
   17MOL   C199 5351   0.253   1.889   4.072 -0.3644  0.0198 -0.3307
   17MOL   H200 5352   0.536   2.046   4.175 -1.6343  2.1418  0.1553
   17MOL   H201 5353   0.313   2.127   4.252 -0.7021 -1.0053  1.9807
   17MOL   H202 5354   0.455   2.228   4.276 -1.2521 -0.1627 -0.5854
   17MOL   H203 5355   0.391   2.148   4.416  1.2026 -1.4054  0.8315
   17MOL   H204 5356   0.489   1.799   4.278  0.5201  0.8646 -0.2880
   17MOL   H205 5357   0.424   1.770   3.934 -2.3205 -0.5580  0.8707
   17MOL   H206 5358   0.474   1.681   4.075  0.3087 -0.2662 -0.1365
   17MOL   H207 5359   0.566   1.828   4.037 -0.1360 -0.4777 -0.7514
   17MOL   H208 5360   0.175   1.934   4.131 -1.3860 -1.8660 -0.2008
   17MOL   H209 5361   0.235   1.875   3.966 -1.0888 -0.2027 -0.1799
   17MOL   C210 5362   0.296   1.832   4.368 -0.6664 -0.8963 -0.4142
   17MOL   C211 5363   0.332   1.873   4.514 -0.0452 -0.5964  0.1943
   17MOL   C212 5364   0.237   1.696   4.350 -0.2107  0.3344  0.0261
   17MOL   C213 5365   0.086   1.703   4.355 -0.1643 -0.0761 -0.5448
   17MOL   C214 5366   0.013   1.732   4.485  0.7086  0.2613  0.1579
   17MOL   C215 5367   0.012   1.687   4.245 -0.1007  0.0353  0.6777
   17MOL   H216 5368   0.217   1.904   4.350  1.0604  0.8947 -0.9692
   17MOL   H217 5369   0.258   1.832   4.582  0.5725 -0.9951  0.6287
   17MOL   H218 5370   0.349   1.980   4.525  2.9875 -0.8110 -1.7406
   17MOL   H219 5371   0.429   1.843   4.552  0.1993 -0.5090 -0.3596
   17MOL   H220 5372   0.245   1.661   4.247 -2.9992  1.7000 -0.7166
   17MOL   H221 5373   7.796   1.734   4.481  0.6825 -0.0528  0.6237
   17MOL   H222 5374   0.041   1.834   4.510 -0.1703  1.6365 -4.0706
   17MOL   H223 5375   0.051   1.671   4.567 -0.8923  2.1956  2.4200
   17MOL   H224 5376   0.049   1.656   4.148 -1.5576  0.8061 -0.1456
   17MOL   H225 5377   7.796   1.693   4.251 -0.1071  2.3904 -0.9745
   17MOL   C226 5378   0.301   1.580   4.426 -0.3762  0.4054 -1.5169
   17MOL   C227 5379   0.454   1.570   4.405  0.4661 -0.2384  0.3093
   17MOL   C228 5380   0.225   1.444   4.403 -0.5453  0.1488 -0.0159
   17MOL   C229 5381   0.219   1.362   4.535  0.2956 -0.8381 -0.1374
   17MOL   C230 5382   0.342   1.301   4.593  0.4581 -0.2783  0.1690
   17MOL   C231 5383   0.106   1.342   4.609  0.0427 -0.5654 -0.5204
   17MOL   H232 5384   0.284   1.594   4.533 -0.6496 -0.6544 -1.4125
   17MOL   H233 5385   0.493   1.479   4.448 -1.6547  0.2458  3.4530
   17MOL   H234 5386   0.500   1.657   4.453  1.5803 -0.5030 -0.2766
   17MOL   H235 5387   0.469   1.566   4.297 -0.8367 -0.7983  0.1371
   17MOL   H236 5388   0.119   1.461   4.385 -0.4595  1.5913  0.7100
   17MOL   H237 5389   0.413   1.273   4.515 -3.5046 -3.7246 -2.4334
   17MOL   H238 5390   0.330   1.217   4.661  0.0780 -1.0806 -0.8816
   17MOL   H239 5391   0.397   1.372   4.656  1.3954 -2.1785  1.5542
   17MOL   H240 5392   0.017   1.389   4.570  0.5640 -0.0080 -1.0660
   17MOL   H241 5393   0.101   1.284   4.700 -0.1007  2.2071  1.3040
   17MOL   C242 5394   0.270   1.357   4.277  0.9821  0.4094  0.0707
   17MOL   C243 5395   0.235   1.421   4.135 -0.7211 -0.4002 -0.3219
   17MOL   C244 5396   0.225   1.204   4.287  0.2545 -0.1663  0.3429
   17MOL   C245 5397   0.345   1.116   4.248 -0.7143 -0.0130  0.2689
   17MOL   C246 5398   0.388   1.031   4.367  0.0073  0.2214 -0.2180
   17MOL   C247 5399   0.406   1.102   4.128  0.1364  0.5428  0.1005
   17MOL   H248 5400   0.378   1.358   4.264  1.0674  1.4571  0.7822
   17MOL   H249 5401   0.277   1.520   4.113 -0.5428  0.0519  1.9517
   17MOL   H250 5402   0.133   1.458   4.124  0.2502  2.7248  0.4544
   17MOL   H251 5403   0.271   1.365   4.049  0.0545 -1.9526  1.0008
   17MOL   H252 5404   0.220   1.180   4.393  1.3664 -0.1132  0.4200
   17MOL   H253 5405   0.450   1.080   4.443 -0.4548  0.5241 -0.0318
   17MOL   H254 5406   0.457   0.957   4.327 -0.6764 -0.4482 -0.1677
   17MOL   H255 5407   0.306   0.977   4.414  1.2610 -0.4282  1.2886
   17MOL   H256 5408   0.381   1.158   4.039  0.8245  0.4240 -0.1755
   17MOL   H257 5409   0.487   1.031   4.124 -0.5003 -0.4752  3.5204
   17MOL   C258 5410   0.088   1.163   4.224  0.1634 -0.5505  0.5204
   17MOL   C259 5411   7.864   1.259   4.271  0.0624  0.2737 -0.5749
   17MOL   C260 5412   0.061   1.011   4.210  0.0240 -0.2015  0.4905
   17MOL   C261 5413   0.012   0.973   4.061 -0.1839 -0.4352  0.1960
   17MOL   C262 5414   7.771   1.023   4.005  1.1802  0.1204  0.0219
   17MOL   C263 5415   0.095   0.890   3.992 -0.0470  0.1953  0.3921
   17MOL   H264 5416   0.099   1.197   4.121 -0.4416 -2.1180 -0.0740
   17MOL   H265 5417   7.878   1.362   4.236 -0.4520  0.0921 -1.3394
   17MOL   H266 5418   7.861   1.278   4.378 -1.6746  0.8901 -0.6985
   17MOL   H267 5419   7.764   1.226   4.244  0.1196  0.5218 -1.0875
   17MOL   H268 5420   0.154   0.954   4.215  0.7736  0.8915 -0.7450
   17MOL   H269 5421   7.731   0.967   3.920  2.6047 -2.1271  0.8059
   17MOL   H270 5422   7.790   1.128   3.984 -2.0332  0.7966  0.2347
   17MOL   H271 5423   7.698   1.020   4.086  1.0142  3.3198  0.0513
   17MOL   H272 5424   0.192   0.860   4.030 -0.7753 -0.8867  1.3900
   17MOL   H273 5425   0.066   0.862   3.892 -1.5681  1.2170  0.5413
   17MOL   C274 5426   7.864   0.947   4.317  0.2372  0.6937 -0.1055
   17MOL   C275 5427   0.010   0.971   4.461 -0.1581 -0.3277 -0.2928
   17MOL   C276 5428   7.810   0.797   4.296 -0.1825  0.2447  0.2228
   17MOL   C277 5429   7.662   0.790   4.347  0.5006 -0.1221  0.2182
   17MOL   C278 5430   7.555   0.835   4.252 -0.3839  0.1612 -0.2957
   17MOL   C279 5431   7.628   0.771   4.476 -0.5718 -0.1278 -0.2011
   17MOL   H280 5432   7.777   1.013   4.307  0.4690  0.7620 -1.7087
   17MOL   H281 5433   7.810   0.956   4.518 -0.1556 -1.3719 -0.5503
   17MOL   H282 5434   0.040   1.074   4.480  2.5804 -1.6747  3.1578
   17MOL   H283 5435   0.080   0.899   4.504 -1.7120 -2.4384 -1.1838
   17MOL   H284 5436   7.802   0.784   4.188  0.7533  0.8426  0.0778
   17MOL   H285 5437   7.460   0.802   4.292  0.8253 -0.7679  1.8914
   17MOL   H286 5438   7.570   0.780   4.159  2.3703 -1.3703  0.9730
   17MOL   H287 5439   7.556   0.943   4.237 -0.7821  0.2587  0.4018
   17MOL   H288 5440   7.704   0.748   4.549  0.3394  1.5892 -0.6009
   17MOL   H289 5441   7.527   0.768   4.514  0.0697 -0.4196  1.5363
   17MOL   C290 5442   7.891   0.669   4.340 -0.5196  0.2836 -0.1017
   17MOL   C291 5443   0.144   0.669   4.293 -0.0416  0.3893 -0.0475
   17MOL   C292 5444   7.811   0.537   4.314 -0.1812  0.3167 -0.0693
   17MOL   C293 5445   7.822   0.444   4.439  0.0292  0.6999 -0.6855
   17MOL   C294 5446   0.067   0.371   4.465  0.3856  0.3690 -0.1184
   17MOL   C295 5447   7.715   0.431   4.521 -0.4924  0.7477 -0.3945
   17MOL   H296 5448   0.003   0.685   4.447  0.1247  1.9268 -0.3742
   17MOL   H297 5449   0.159   0.699   4.189 -0.0912  0.1734 -0.1166
   17MOL   H298 5450   0.196   0.577   4.320 -1.5587 -0.2540  0.7234
   17MOL   H299 5451   0.183   0.743   4.363  0.9371 -0.4255  0.2826
   17MOL   H300 5452   7.705   0.558   4.308 -0.2911 -0.1062  0.3120
   17MOL   H301 5453   0.150   0.442   4.473  1.4303 -0.8583  0.0081
   17MOL   H302 5454   0.089   0.284   4.404  2.6112  2.3146 -2.2249
   17MOL   H303 5455   0.058   0.331   4.566  0.7615 -0.7164 -0.5152
   17MOL   H304 5456   7.632   0.489   4.485 -0.6915 -0.3763 -1.7664
   17MOL   H305 5457   7.712   0.376   4.614 -0.1642  1.3169 -0.0438
   17MOL   C306 5458   7.851   0.458   4.181  0.3609 -0.0340  0.2148
   17MOL   C307 5459   7.812   0.539   4.053  0.2891 -0.6653  0.1741
   17MOL   C308 5460   7.795   0.311   4.173  0.3027  0.4788  0.4257
   17MOL   C309 5461   7.824   0.221   4.050 -0.0731  0.0871 -0.1998
   17MOL   C310 5462   0.077   0.202   4.021 -0.6098  0.7750  0.8652
   17MOL   C311 5463   7.725   0.171   3.976  0.7247 -0.0732 -0.5522
   17MOL   H312 5464   0.066   0.440   4.180  0.7049  1.7780  1.4547
   17MOL   H313 5465   7.883   0.617   4.027 -0.1018 -0.3980 -0.0991
   17MOL   H314 5466   7.731   0.606   4.083  0.1435 -0.6545 -0.2360
   17MOL   H315 5467   7.807   0.466   3.973 -0.2867  2.2505 -2.5482
   17MOL   H316 5468   7.829   0.250   4.257  0.6080  0.9005  0.6127
   17MOL   H317 5469   0.092   0.154   3.924 -0.8206  4.2599 -0.9594
   17MOL   H318 5470   0.121   0.135   4.095 -1.2243 -2.8071 -1.8458
   17MOL   H319 5471   0.130   0.295   4.004 -0.7448  0.8567  0.8891
   17MOL   H320 5472   7.622   0.187   4.001 -0.1631 -1.9360 -2.8968
   17MOL   H321 5473   7.741   0.112   3.887 -1.7884 -2.8416  0.7351
   17MOL   H322 5474   7.689   0.323   4.194 -0.4546 -1.8932 -1.7321
   18MOL     C1 5475   6.070   5.404   7.200 -0.3855 -0.3982 -0.6512
   18MOL     C2 5476   6.113   5.527   7.284 -0.5384 -0.1794  0.4081
   18MOL     C3 5477   6.163   5.350   7.091  0.5926  0.9130  0.0818
   18MOL     C4 5478   6.089   5.256   6.989  0.2597  0.6900  0.0972
   18MOL     C5 5479   6.027   5.129   7.039  0.0572 -0.4240 -0.9485
   18MOL     C6 5480   6.084   5.279   6.857 -0.2019  0.1927 -0.2794
   18MOL     H7 5481   6.053   5.321   7.269  0.2516 -0.1662 -0.2051
   18MOL     H8 5482   6.133   5.615   7.224 -1.4785 -0.7774 -0.8031
   18MOL     H9 5483   6.192   5.511   7.358 -0.9701 -2.0838  0.5002
   18MOL    H10 5484   6.024   5.550   7.342 -0.4368  2.7516 -0.5315
   18MOL    H11 5485   6.195   5.447   7.051 -0.7016  1.6623  0.8242
   18MOL    H12 5486   5.975   5.081   6.956 -0.4083 -3.1876  0.8363
   18MOL    H13 5487   5.954   5.140   7.120 -0.0741  2.2903 -1.3902
   18MOL    H14 5488   6.104   5.061   7.076  1.6104 -0.0719 -3.4445
   18MOL    H15 5489   6.125   5.369   6.814 -0.7956  1.3277  1.4381
   18MOL    H16 5490   6.036   5.207   6.792  2.3774  0.4194 -2.5354
   18MOL    H17 5491   5.984   5.437   7.142  0.0855  1.0111 -0.5830
   18MOL    C18 5492   6.290   5.276   7.154  0.6630 -0.0422  0.4012
   18MOL    C19 5493   6.266   5.206   7.301 -0.1209  0.4498 -0.3082
   18MOL    C20 5494   6.423   5.358   7.142 -0.1605 -0.2849  0.1475
   18MOL    C21 5495   6.449   5.406   6.995 -0.4973  0.5007 -0.0378
   18MOL    C22 5496   6.518   5.537   6.976 -0.1535  0.1217  0.0694
   18MOL    C23 5497   6.407   5.340   6.884  0.4375 -0.1187  0.1961
   18MOL    H24 5498   6.317   5.184   7.102 -0.3521 -0.8926  1.3532
   18MOL    H25 5499   6.170   5.154   7.299  0.6211 -0.9634 -0.2941
   18MOL    H26 5500   6.253   5.278   7.381  0.0454  2.2055 -1.8470
   18MOL    H27 5501   6.346   5.138   7.330 -0.8277 -0.4931 -0.5061
   18MOL    H28 5502   6.404   5.446   7.203  0.8342 -0.5686  0.8707
   18MOL    H29 5503   6.476   5.611   7.044 -0.5874 -0.1776  0.1284
   18MOL    H30 5504   6.510   5.567   6.872  0.7378 -1.3746 -0.4386
   18MOL    H31 5505   6.624   5.531   7.000  0.0522 -1.2425 -1.1510
   18MOL    H32 5506   6.349   5.249   6.883  0.7470 -0.3150 -0.1409
   18MOL    H33 5507   6.432   5.383   6.788 -0.3258 -2.1759 -0.9733
   18MOL    C34 5508   6.560   5.294   7.197  1.0757 -0.9083  0.2519
   18MOL    C35 5509   6.571   5.151   7.145 -0.2483  0.0458 -0.1553
   18MOL    C36 5510   6.592   5.304   7.353 -0.0791 -0.0539  0.3795
   18MOL    C37 5511   6.534   5.428   7.418  0.0265 -0.5314 -0.7239
   18MOL    C38 5512   6.606   5.557   7.388  0.0031 -0.0617 -0.1263
   18MOL    C39 5513   6.443   5.429   7.519  0.5680  0.5555 -0.2692
   18MOL    H40 5514   6.642   5.350   7.151 -0.4223  1.5521  0.5002
   18MOL    H41 5515   6.530   5.073   7.209  0.7445  1.4244  2.2088
   18MOL    H42 5516   6.676   5.123   7.144 -0.2274  0.0807 -2.7570
   18MOL    H43 5517   6.543   5.137   7.040 -3.9146 -2.1094  0.9974
   18MOL    H44 5518   6.529   5.232   7.406 -0.5324  0.4979  0.5968
   18MOL    H45 5519   6.591   5.566   7.280 -2.3646  2.2627  0.3443
   18MOL    H46 5520   6.715   5.556   7.397  0.1265  2.9760 -0.6842
   18MOL    H47 5521   6.552   5.644   7.426  2.2930  1.4785 -0.2702
   18MOL    H48 5522   6.413   5.330   7.549 -1.6515  0.6861 -1.9660
   18MOL    H49 5523   6.396   5.517   7.561 -2.7173 -0.2739 -2.0295
   18MOL    C50 5524   6.731   5.266   7.406 -0.6001  0.3414 -0.3009
   18MOL    C51 5525   6.837   5.300   7.303 -0.2634 -0.6877 -0.2975
   18MOL    C52 5526   6.752   5.115   7.457  0.6298 -0.2352  0.2714
   18MOL    C53 5527   6.653   5.081   7.570  0.3110  0.1388 -0.5294
   18MOL    C54 5528   6.584   4.949   7.546  0.1495 -0.4374 -0.0106
   18MOL    C55 5529   6.606   5.167   7.666  0.0483 -0.6076 -0.0178
   18MOL    H56 5530   6.750   5.339   7.484  1.5009 -0.3159 -0.1757
   18MOL    H57 5531   6.820   5.394   7.251 -1.9490 -1.8720 -1.9417
   18MOL    H58 5532   6.859   5.225   7.228  2.9187  0.1105 -0.2707
   18MOL    H59 5533   6.935   5.322   7.346  0.5440  0.5915 -2.7273
   18MOL    H60 5534   6.724   5.056   7.370  1.7324 -0.3133 -0.0370
   18MOL    H61 5535   6.645   4.860   7.534  0.6214 -0.2089  0.6548
   18MOL    H62 5536   6.526   4.962   7.455  0.1474  0.5690  0.1229
   18MOL    H63 5537   6.520   4.926   7.630  1.9213  0.7026  1.6954
   18MOL    H64 5538   6.644   5.268   7.667  0.6818 -0.8403 -0.2968
   18MOL    H65 5539   6.542   5.124   7.742 -1.3590  2.0625  0.3700
   18MOL    C66 5540   6.898   5.088   7.506 -0.3273 -0.6790 -0.2625
   18MOL    C67 5541   6.948   5.196   7.610  0.4206  0.1368 -0.9190
   18MOL    C68 5542   7.005   5.043   7.398  0.0459 -0.1698 -0.3686
   18MOL    C69 5543   6.953   4.942   7.297  0.3454 -0.8664  0.3570
   18MOL    C70 5544   6.970   4.963   7.149  0.4535  0.2641 -0.2621
   18MOL    C71 5545   6.899   4.829   7.343 -0.3702 -0.1314  0.3686
   18MOL    H72 5546   6.895   5.002   7.572  2.3090 -0.8656 -0.3429
   18MOL    H73 5547   6.970   5.289   7.558  2.5160 -1.1887 -2.4450
   18MOL    H74 5548   7.034   5.159   7.666  0.5015  1.2137 -0.3013
   18MOL    H75 5549   6.875   5.207   7.691  0.6188 -1.5628 -0.5016
   18MOL    H76 5550   7.016   5.121   7.322  3.3118  0.5204  0.7350
   18MOL    H77 5551   6.922   5.050   7.103  1.6036  1.3302  0.5119
   18MOL    H78 5552   6.930   4.879   7.094  1.2974  0.1338 -0.6850
   18MOL    H79 5553   7.075   4.956   7.121  0.8139  0.0830  1.0715
   18MOL    H80 5554   6.880   4.797   7.444  1.7022  0.0873  0.8416
   18MOL    H81 5555   6.871   4.752   7.273 -1.5308  1.6393 -1.1793
   18MOL    C82 5556   7.146   4.998   7.463  0.3395  0.2437  0.3261
   18MOL    C83 5557   7.130   4.918   7.600 -0.0849 -0.3543  0.6723
   18MOL    C84 5558   7.257   5.113   7.470 -0.3501  0.6394  0.0878
   18MOL    C85 5559   7.268   5.200   7.342  0.4258 -0.2633 -0.2864
   18MOL    C86 5560   7.251   5.351   7.364 -0.2061 -0.3445 -0.3775
   18MOL    C87 5561   7.272   5.143   7.222 -1.1747  0.2427  0.0126
   18MOL    H88 5562   7.187   4.926   7.391 -1.3103 -0.8525  0.4430
   18MOL    H89 5563   7.107   4.971   7.693 -1.4826  0.1840  0.0323
   18MOL    H90 5564   7.225   4.866   7.612  0.7771  1.1392  0.3586
   18MOL    H91 5565   7.058   4.837   7.587  1.6442 -1.9133  0.5419
   18MOL    H92 5566   7.224   5.182   7.548 -0.8803 -0.1093  0.5424
   18MOL    H93 5567   7.153   5.368   7.408 -0.9359  0.5134 -2.2859
   18MOL    H94 5568   7.264   5.412   7.274 -1.5631 -0.0189 -0.3669
   18MOL    H95 5569   7.332   5.386   7.427 -0.3749  1.5736 -1.1761
   18MOL    H96 5570   7.284   5.036   7.212 -2.1175  0.1677 -0.3554
   18MOL    H97 5571   7.275   5.204   7.133 -0.1616  0.1510 -0.0247
   18MOL    C98 5572   7.398   5.063   7.529  0.3206 -0.2981 -0.2239
   18MOL    C99 5573   7.441   4.925   7.467  0.0428 -1.0849  0.3146
   18MOL   C100 5574   7.420   5.081   7.685 -0.6002 -0.4095  0.6207
   18MOL   C101 5575   7.383   5.221   7.728 -0.2844 -0.4952  0.0562
   18MOL   C102 5576   7.465   5.331   7.672 -0.0242  0.2418 -0.2491
   18MOL   C103 5577   7.276   5.243   7.803 -0.1893 -0.1543 -0.2056
   18MOL   H104 5578   7.468   5.136   7.487  0.2184 -0.3959 -0.5686
   18MOL   H105 5579   7.550   4.919   7.456 -0.1253  0.0709 -2.1582
   18MOL   H106 5580   7.407   4.919   7.364 -1.4431 -2.7538  0.8766
   18MOL   H107 5581   7.389   4.840   7.510 -0.0463 -0.2565  1.8862
   18MOL   H108 5582   7.359   5.008   7.739 -0.9645 -0.2624  0.4161
   18MOL   H109 5583   7.468   5.346   7.564  0.1312  1.2865 -0.0996
   18MOL   H110 5584   7.567   5.327   7.710  0.3632  0.9013 -1.2055
   18MOL   H111 5585   7.439   5.426   7.720  0.1150 -0.9401  2.2630
   18MOL   H112 5586   7.221   5.159   7.843 -0.2827 -0.6277 -1.3100
   18MOL   H113 5587   7.249   5.343   7.834  0.0973  0.0546 -0.6261
   18MOL   C114 5588   7.562   5.044   7.746 -0.6501  0.0380 -0.7663
   18MOL   C115 5589   7.678   5.087   7.650 -0.0135  0.3162  0.0372
   18MOL   C116 5590   7.586   4.898   7.797 -0.5175  0.0299 -0.3505
   18MOL   C117 5591   7.474   4.855   7.883  1.1629 -0.1637 -0.1346
   18MOL   C118 5592   7.445   4.923   0.134 -0.0939 -0.0703  0.6449
   18MOL   C119 5593   7.394   4.754   7.837 -0.1557  0.0189  0.0596
   18MOL   H120 5594   7.573   5.111   7.831 -0.7455  0.2459 -0.9166
   18MOL   H121 5595   7.701   5.000   7.588 -1.7051 -1.2362  1.5720
   18MOL   H122 5596   7.767   5.106   7.709  0.9518 -2.6624 -0.3763
   18MOL   H123 5597   7.661   5.177   7.590  0.4078  0.4121  0.0582
   18MOL   H124 5598   7.583   4.823   7.718 -1.9948  0.6015 -0.8537
   18MOL   H125 5599   7.528   4.912   0.204 -1.2517 -0.0546  2.0288
   18MOL   H126 5600   7.363   4.864   0.174  1.4512 -3.0861 -0.4896
   18MOL   H127 5601   7.406   5.025   0.132  0.4965  0.1728  1.2464
   18MOL   H128 5602   7.421   4.701   7.746  1.9838  1.8995 -0.4747
   18MOL   H129 5603   7.315   4.708   0.002  0.3923 -2.0531 -0.7808
   18MOL   C130 5604   7.728   4.866   7.867  0.4490  0.1547 -0.4584
   18MOL   C131 5605   7.774   4.979   0.065  0.2781  0.2550  0.5986
   18MOL   C132 5606   7.839   4.812   7.767  0.1803 -0.1769  0.1144
   18MOL   C133 5607   7.790   4.688   7.686  0.3205  0.7002 -0.1730
   18MOL   C134 5608   7.843   4.666   7.548  0.4385 -0.0987 -0.2959
   18MOL   C135 5609   7.702   4.592   7.729  0.5418  0.1380  0.1825
   18MOL   H136 5610   7.711   4.786   0.047  1.7458 -0.5123 -0.8673
   18MOL   H137 5611   7.857   4.959   0.133  0.1880 -2.6854 -0.0876
   18MOL   H138 5612   7.695   5.013   0.132 -0.2833 -0.9771  0.5831
   18MOL   H139 5613   7.817   5.071   0.026 -0.2642  0.3981  0.3370
   18MOL   H140 5614   7.843   4.885   7.685 -0.7444  1.1377  1.2117
   18MOL   H141 5615   7.807   4.740   7.476  0.8604 -0.5433 -0.9726
   18MOL   H142 5616   7.801   4.573   7.510  1.3556 -0.9563  0.7727
   18MOL   H143 5617   0.059   4.657   7.552  0.5877  1.1532 -1.2940
   18MOL   H144 5618   7.659   4.581   7.827  0.0878  0.5700  0.0343
   18MOL   H145 5619   7.671   4.510   7.666 -0.9008 -0.8282  2.1142
   18MOL   C146 5620   0.096   4.783   7.813  0.0640 -0.4989  0.0354
   18MOL   C147 5621   0.085   4.692   0.046  0.4933 -0.1881 -0.2658
   18MOL   C148 5622   0.186   4.906   7.843  0.2872  0.8124  0.2991
   18MOL   C149 5623   0.171   5.023   7.745 -0.3555  0.4520  0.6263
   18MOL   C150 5624   0.195   5.165   7.803 -0.7102 -0.2654  0.1608
   18MOL   C151 5625   0.145   5.003   7.612 -0.7627  0.2239 -0.2802
   18MOL   H152 5626   0.151   4.722   7.741  1.3269  1.4571 -0.6924
   18MOL   H153 5627   0.021   4.608   0.018  2.9478 -2.0919 -0.3346
   18MOL   H154 5628   0.046   4.739   0.136 -2.3805  0.7996 -1.9358
   18MOL   H155 5629   0.182   4.646   0.062 -0.4419 -1.7678  1.0097
   18MOL   H156 5630   0.145   4.937   0.046  0.9833  2.0483  0.2147
   18MOL   H157 5631   0.112   5.203   7.862 -0.3694  0.7433 -0.0030
   18MOL   H158 5632   0.245   5.238   7.739 -1.5731  0.7303  0.6054
   18MOL   H159 5633   0.274   5.145   7.875 -0.5451  0.8609  0.3047
   18MOL   H160 5634   0.137   4.910   7.557  0.3116  0.7291 -1.3314
   18MOL   H161 5635   0.133   5.087   7.545  0.9685 -0.7106 -1.8059
   18MOL   C162 5636   0.339   4.868   7.882 -0.4897 -0.4016 -0.3957
   18MOL   C163 5637   0.362   4.898   0.135  0.2316  0.0089 -0.2694
   18MOL   C164 5638   0.447   4.920   7.785  0.1346 -0.0397  0.7198
   18MOL   C165 5639   0.433   4.862   7.642  0.1480  1.1111  0.1429
   18MOL   C166 5640   0.475   4.954   7.531 -0.0205  0.0661 -0.0771
   18MOL   C167 5641   0.400   4.734   7.614 -0.3223  0.6666  0.1579
   18MOL   H168 5642   0.339   4.759   7.874  0.4979 -0.6333  2.3632
   18MOL   H169 5643   0.454   4.856   0.174 -0.7214 -0.4600  1.5337
   18MOL   H170 5644   0.291   4.854   0.204  1.3560 -1.0989  0.1949
   18MOL   H171 5645   0.355   5.006   0.153 -0.7142  0.1294 -1.2758
   18MOL   H172 5646   0.427   5.026   7.775  0.6269 -0.0566 -0.5334
   18MOL   H173 5647   0.397   4.976   7.458  0.1756 -2.5212 -1.1156
   18MOL   H174 5648   0.560   4.911   7.479  0.3461  0.5546  0.1202
   18MOL   H175 5649   0.510   5.048   7.573 -0.6405 -0.7686  2.4215
   18MOL   H176 5650   0.377   4.657   7.686  2.2939 -1.5730 -1.3073
   18MOL   H177 5651   0.401   4.706   7.510  1.2909 -1.5240  0.7421
   18MOL   C178 5652   0.599   4.907   7.836 -0.1986 -0.0908 -0.2444
   18MOL   C179 5653   0.630   4.753   7.858  0.2108 -0.6196  0.2090
   18MOL   C180 5654   0.662   5.011   0.046  0.4853 -0.3693  0.1051
   18MOL   C181 5655   0.605   5.151   0.035 -0.2394 -0.1199  1.1333
   18MOL   C182 5656   0.591   5.220   0.167  0.1518  0.0731  0.1102
   18MOL   C183 5657   0.590   5.212   7.810  0.1024 -0.0853 -0.7124
   18MOL   H184 5658   0.659   4.929   7.748  1.2103  3.7556  1.5324
   18MOL   H185 5659   0.577   4.712   0.052  0.0615 -0.2505  0.2955
   18MOL   H186 5660   0.736   4.732   7.865  0.4881  0.2751 -1.1486
   18MOL   H187 5661   0.596   4.694   7.773  0.8149  1.7349 -1.7359
   18MOL   H188 5662   0.632   4.978   0.146 -1.4452  4.9996  1.4534
   18MOL   H189 5663   0.529   5.309   0.150  0.3046  0.5287  1.8694
   18MOL   H190 5664   0.685   5.256   0.209 -0.6258  2.7107 -0.2965
   18MOL   H191 5665   0.531   5.155   0.230 -1.3599  2.3793  1.1197
   18MOL   H192 5666   0.601   5.161   7.715 -2.1699 -0.7508 -0.6383
   18MOL   H193 5667   0.551   5.313   7.803 -1.0223 -0.4179  0.5843
   18MOL   C194 5668   0.821   5.019   0.050 -0.7570  0.2086  0.7804
   18MOL   C195 5669   0.871   5.036   7.803  0.1145  0.1817  0.0108
   18MOL   C196 5670   0.902   4.909   0.134 -0.7674  0.1981  0.5622
   18MOL   C197 5671   0.834   4.872   0.270  0.6373 -0.1796 -0.5322
   18MOL   C198 5672   0.838   4.973   0.376 -0.0976 -0.6358 -0.3696
   18MOL   C199 5673   0.775   4.754   0.297  0.2301 -0.0987 -0.1862
   18MOL   H200 5674   0.847   5.110   0.103  0.0414  1.8298 -2.2563
   18MOL   H201 5675   0.884   4.938   7.755  0.2874 -0.0166  0.4586
   18MOL   H202 5676   0.968   5.085   7.802  0.1134  0.1909  0.2767
   18MOL   H203 5677   0.801   5.090   7.740  0.8178  1.5062  0.3514
   18MOL   H204 5678   0.897   4.816   0.078 -0.2515  0.4723  0.0501
   18MOL   H205 5679   0.804   4.934   0.472  0.0501  0.2977  0.0672
   18MOL   H206 5680   0.772   5.056   0.349 -0.0049  0.6163  3.0578
   18MOL   H207 5681   0.931   5.029   0.380  0.1425 -0.9956 -0.8504
   18MOL   H208 5682   0.776   4.678   0.220  1.7227 -0.8318  0.5517
   18MOL   H209 5683   0.728   4.719   0.388  0.3750 -0.2658 -0.1750
   18MOL   C210 5684   1.063   4.924   0.151 -0.3670 -0.4973  0.2684
   18MOL   C211 5685   1.101   5.075   0.170  0.3123  0.6261  0.2009
   18MOL   C212 5686   1.148   4.845   0.048 -0.5485 -0.1330 -0.3145
   18MOL   C213 5687   1.104   4.699   0.038  0.4966  0.3380 -0.3049
   18MOL   C214 5688   1.077   4.639   7.785  0.0597  0.2823 -0.2745
   18MOL   C215 5689   1.081   4.621   0.148  0.3205 -0.1015  0.6185
   18MOL   H216 5690   1.097   4.883   0.246 -0.4965  2.1035  1.4803
   18MOL   H217 5691   1.115   5.137   0.082 -0.3904  1.9901  1.0292
   18MOL   H218 5692   1.191   5.078   0.232  0.2195 -0.1435  0.3816
   18MOL   H219 5693   1.031   5.127   0.235  0.9059  0.0754  1.3128
   18MOL   H220 5694   1.109   4.876   7.844 -3.5740 -0.4260  0.7516
   18MOL   H221 5695   1.158   4.659   7.714 -0.3450 -1.7726 -1.3356
   18MOL   H222 5696   0.986   4.689   7.751 -0.2939 -0.6507 -0.7191
   18MOL   H223 5697   1.046   4.535   7.782  1.1089 -0.0385 -0.1077
   18MOL   H224 5698   1.102   4.651   0.250 -0.0571 -0.0532  0.6825
   18MOL   H225 5699   1.045   4.520   0.145 -0.0674  0.0197  1.0897
   18MOL   C226 5700   1.308   4.867   0.050  0.4629  0.1565  0.2752
   18MOL   C227 5701   1.348   4.845   7.799 -0.0117 -0.2793  0.1654
   18MOL   C228 5702   1.391   4.773   0.149  0.0828 -0.0862 -0.5050
   18MOL   C229 5703   1.378   4.812   0.296 -0.0325 -0.2713  0.8614
   18MOL   C230 5704   1.434   4.943   0.346 -0.0863  0.2789  0.1862
   18MOL   C231 5705   1.331   4.725   0.392  0.4565 -0.2339 -0.1456
   18MOL   H232 5706   1.326   4.973   0.069 -1.1011  0.4412  0.1691
   18MOL   H233 5707   1.331   4.740   7.773 -0.9800 -0.3486  1.0456
   18MOL   H234 5708   1.454   4.858   7.779  0.7012 -2.5111  2.2196
   18MOL   H235 5709   1.285   4.909   7.737 -1.0667 -1.6596 -0.2124
   18MOL   H236 5710   1.339   4.678   0.155 -3.7722  2.0466  2.1785
   18MOL   H237 5711   1.431   4.959   0.453  1.9556  1.0573  0.1502
   18MOL   H238 5712   1.379   5.025   0.300 -1.4947 -1.6754 -1.7258
   18MOL   H239 5713   1.535   4.971   0.316 -0.7547  1.3524 -1.1409
   18MOL   H240 5714   1.281   4.633   0.369  0.6026 -0.5368  0.7288
   18MOL   H241 5715   1.341   4.749   0.497 -0.4973 -1.4988  0.2450
   18MOL   C242 5716   1.544   4.757   0.121 -0.2783  0.9135 -0.1911
   18MOL   C243 5717   1.617   4.888   0.069  0.5595 -0.6933 -0.1397
   18MOL   C244 5718   1.576   4.621   0.030  0.3335  0.2341 -0.6061
   18MOL   C245 5719   1.478   4.505   0.052  0.3476 -0.3741  0.1851
   18MOL   C246 5720   1.473   4.428   0.182 -0.2885  0.6526 -0.5235
   18MOL   C247 5721   1.383   4.466   7.853 -0.1631  0.8362  0.7566
   18MOL   H248 5722   1.591   4.733   0.216  1.7083  0.0437 -1.3631
   18MOL   H249 5723   1.546   4.968   0.054  0.4998 -0.6524  0.3617
   18MOL   H250 5724   1.667   4.875   7.865  0.1183 -0.3641 -0.4122
   18MOL   H251 5725   1.688   4.918   0.146  0.8529 -0.6670 -0.4182
   18MOL   H252 5726   1.564   4.658   7.820 -0.5221  1.6774  0.0003
   18MOL   H253 5727   1.449   4.494   0.265  1.6774  0.0756  0.5286
   18MOL   H254 5728   1.577   4.397   0.196 -0.2091 -0.1837 -2.6959
   18MOL   H255 5729   1.402   4.345   0.187  0.7821 -0.3538 -1.5002
   18MOL   H256 5730   1.382   4.524   7.763  0.3485  4.0192  2.7278
   18MOL   H257 5731   1.317   4.381   7.855  2.3240 -1.1633  0.4548
   18MOL   C258 5732   1.720   4.572   0.057  0.2004 -0.0076  0.3601
   18MOL   C259 5733   1.824   4.690   0.013 -0.0673 -0.1604  0.6249
   18MOL   C260 5734   1.767   4.433   7.886  0.3229  0.6660 -0.1464
   18MOL   C261 5735   1.863   4.361   0.094 -0.1940 -0.2986  0.6309
   18MOL   C262 5736   2.008   4.403   0.106 -0.4642 -1.0625 -0.6793
   18MOL   C263 5737   1.813   4.257   0.162 -0.0675  0.0080  0.1045
   18MOL   H264 5738   1.733   4.560   0.165 -0.3092 -2.6261  0.1728
   18MOL   H265 5739   1.806   4.722   7.802  0.0817 -1.9556  0.0203
   18MOL   H266 5740   1.921   4.641   0.010  0.5456  1.0814 -3.1215
   18MOL   H267 5741   1.834   4.762   0.094  1.0832  0.4083 -0.0035
   18MOL   H268 5742   1.675   4.374   7.886  0.0002  1.1609 -1.4525
   18MOL   H269 5743   2.066   4.335   0.168 -1.8174 -1.1502  0.5162
   18MOL   H270 5744   2.009   4.505   0.145 -0.1259 -0.6025 -1.8796
   18MOL   H271 5745   2.059   4.408   0.010  0.3499 -0.2624 -0.2219
   18MOL   H272 5746   1.712   4.223   0.148 -0.6807  2.4642 -1.7336
   18MOL   H273 5747   1.885   4.205   0.224  0.4754 -0.3171 -0.7809
   18MOL   C274 5748   1.817   4.433   7.733 -0.3022 -0.7149  0.2413
   18MOL   C275 5749   1.717   4.511   7.637 -0.1386 -0.0747  0.2378
   18MOL   C276 5750   1.858   4.293   7.676 -0.1472 -0.3730  0.4487
   18MOL   C277 5751   1.995   4.302   7.591  0.0807  0.4964  0.6996
   18MOL   C278 5752   1.979   4.361   7.450  0.1599  0.5931  0.7492
   18MOL   C279 5753   2.108   4.242   7.633  0.4356 -0.4753  0.2507
   18MOL   H280 5754   1.907   4.494   7.732 -1.0131  0.3448  0.7708
   18MOL   H281 5755   1.721   4.494   7.529 -1.8515  0.1158  0.1349
   18MOL   H282 5756   1.717   4.619   7.650 -2.6613  0.2208 -1.7890
   18MOL   H283 5757   1.612   4.490   7.654  0.1873 -0.1617  2.1793
   18MOL   H284 5758   1.886   4.234   7.763  0.0503 -2.4540 -0.9893
   18MOL   H285 5759   1.917   4.297   7.387  2.8495 -1.9831  0.6332
   18MOL   H286 5760   2.070   4.385   7.395 -0.0327  1.3006  0.7399
   18MOL   H287 5761   1.932   4.459   7.463  1.3323  1.6593 -2.5537
   18MOL   H288 5762   2.126   4.205   7.733  0.0190  2.5211  1.4662
   18MOL   H289 5763   2.188   4.237   7.561 -0.3032  1.6670 -0.7702
   18MOL   C290 5764   1.747   4.213   7.602  0.3817 -0.0399  0.0990
   18MOL   C291 5765   1.611   4.196   7.669 -0.6513  0.3257 -0.0524
   18MOL   C292 5766   1.796   4.080   7.538 -0.3823  0.4642  0.3063
   18MOL   C293 5767   1.756   4.083   7.383  0.4991 -0.1268 -0.0049
   18MOL   C294 5768   1.607   4.091   7.354 -0.2408 -0.5547  0.1765
   18MOL   C295 5769   1.851   4.075   7.284  0.3907  0.0261  0.1765
   18MOL   H296 5770   1.720   4.277   7.517 -0.2876  0.3137  0.5784
   18MOL   H297 5771   1.547   4.116   7.633 -0.3014  0.4744 -1.0456
   18MOL   H298 5772   1.549   4.286   7.666 -0.6900  0.2877 -0.4627
   18MOL   H299 5773   1.629   4.183   7.775 -0.4565  2.3973  0.1964
   18MOL   H300 5774   1.903   4.078   7.520 -0.2900  2.6183  0.5419
   18MOL   H301 5775   1.552   4.184   7.368  1.1494  0.8865 -3.2592
   18MOL   H302 5776   1.549   4.009   7.398 -0.5792 -0.0756  0.6252
   18MOL   H303 5777   1.584   4.074   7.248  0.4555 -1.9028  0.2316
   18MOL   H304 5778   1.955   4.067   7.312  0.7418  1.3363 -0.7046
   18MOL   H305 5779   1.825   4.081   7.180 -1.6341  1.5142  0.7362
   18MOL   C306 5780   1.769   3.942   7.617  0.4914 -0.6453 -0.0515
   18MOL   C307 5781   1.827   3.943   7.761  0.4280 -0.0905 -0.1360
   18MOL   C308 5782   1.832   3.825   7.537  0.3374  0.0171  0.2338
   18MOL   C309 5783   1.755   3.696   7.574  0.2697  0.1936  0.6250
   18MOL   C310 5784   1.623   3.673   7.500 -0.6613  0.0878 -0.4665
   18MOL   C311 5785   1.801   3.605   7.664 -0.2360 -0.1039  0.2492
   18MOL   H312 5786   1.663   3.924   7.628  0.6180 -2.7271 -1.8861
   18MOL   H313 5787   1.828   3.842   7.801 -0.5060 -0.2250 -0.4474
   18MOL   H314 5788   1.764   4.006   7.824  1.4361  2.3655 -1.5055
   18MOL   H315 5789   1.921   3.997   7.774 -0.3596  1.0818  0.8147
   18MOL   H316 5790   1.834   3.852   7.432 -3.1228  1.4021  0.4543
   18MOL   H317 5791   1.539   3.718   7.554  0.5166  1.6363  0.1285
   18MOL   H318 5792   1.596   3.569   7.481  0.1270 -0.0356 -0.9333
   18MOL   H319 5793   1.628   3.713   7.398 -0.8632  0.9373 -0.1538
   18MOL   H320 5794   1.894   3.616   7.719 -0.8859 -0.5850  1.4698
   18MOL   H321 5795   1.725   3.531   7.686 -0.3388  0.4321  1.7818
   18MOL   H322 5796   1.932   3.813   7.578 -0.9021 -1.6061  3.0232
   19MOL     C1 5797   2.119   7.762   0.720 -0.1844 -0.0824  0.2789
   19MOL     C2 5798   1.988   7.690   0.701  0.4423  0.7580 -0.3368
   19MOL     C3 5799   2.155   7.790   0.868 -0.5829 -0.2653  0.0636
   19MOL     C4 5800   2.050   7.848   0.955  0.0786  0.2798  0.6051
   19MOL     C5 5801   2.064   7.813   1.106  0.1608 -0.3134 -0.2398
   19MOL     C6 5802   1.962   0.050   0.910  0.5625 -0.2783 -0.0318
   19MOL     H7 5803   2.197   7.711   0.663  0.9083  0.7485  0.9953
   19MOL     H8 5804   1.900   7.738   0.743 -0.5238 -1.1314 -0.1000
   19MOL     H9 5805   1.993   7.585   0.731  0.2174  0.7532 -0.3172
   19MOL    H10 5806   1.981   7.690   0.592  0.3431  1.6224 -0.3261
   19MOL    H11 5807   2.171   7.690   0.910  1.7657  0.7713  1.7841
   19MOL    H12 5808   2.070   7.705   1.119 -0.5472 -0.2580  0.5954
   19MOL    H13 5809   1.978   7.840   1.167 -0.4798 -1.0730 -0.7905
   19MOL    H14 5810   2.161   7.841   1.145  0.1701 -0.3487 -0.2377
   19MOL    H15 5811   1.960   0.079   0.806 -2.4098 -3.0663 -0.8197
   19MOL    H16 5812   1.889   0.098   0.973 -0.2748 -1.2048 -0.2778
   19MOL    H17 5813   2.118   7.861   0.676  0.9422 -0.3975 -0.4810
   19MOL    C18 5814   2.290   7.864   0.888  0.0730 -0.1113 -0.6375
   19MOL    C19 5815   2.294   0.114   0.813  0.1355  0.2797  0.1433
   19MOL    C20 5816   2.411   7.768   0.841  0.2972 -0.6302 -0.0577
   19MOL    C21 5817   2.415   7.634   0.912  0.0452  0.2703  0.3531
   19MOL    C22 5818   2.433   7.515   0.817 -0.4925 -0.2107 -1.0713
   19MOL    C23 5819   2.385   7.608   1.041 -0.0563 -0.4105  0.3881
   19MOL    H24 5820   2.298   7.891   0.993  3.3881  3.4152 -1.6304
   19MOL    H25 5821   2.204   0.175   0.817 -0.5825 -0.7608  0.1114
   19MOL    H26 5822   2.327   0.099   0.711  0.1939  1.1008  0.0354
   19MOL    H27 5823   2.374   0.170   0.861  0.4117  1.2561 -1.4220
   19MOL    H28 5824   2.379   7.759   0.737  2.0402 -0.2935 -0.6240
   19MOL    H29 5825   2.367   7.516   0.731 -0.9368  0.0087 -0.7250
   19MOL    H30 5826   2.409   7.427   0.877 -1.7471 -0.2191 -1.5726
   19MOL    H31 5827   2.539   7.511   0.789  0.7023  0.4961  3.0347
   19MOL    H32 5828   2.364   7.693   1.104 -0.3068 -0.3005  0.1581
   19MOL    H33 5829   2.387   7.508   1.083 -0.1175 -0.8401 -0.6099
   19MOL    C34 5830   2.559   7.834   0.833 -0.4187  0.2220  1.0107
   19MOL    C35 5831   2.620   7.815   0.692  0.2539  0.1931  0.9087
   19MOL    C36 5832   2.659   7.814   0.959 -0.4551 -0.5739  0.1505
   19MOL    C37 5833   2.602   7.876   1.089 -0.1159 -0.0234 -0.2890
   19MOL    C38 5834   2.618   7.790   1.212 -0.0102  0.2495 -0.0129
   19MOL    C39 5835   2.537   0.100   1.099  0.0159  0.2290 -0.7218
   19MOL    H40 5836   2.552   0.049   0.819 -0.1392 -0.2610 -3.2962
   19MOL    H41 5837   2.554   7.841   0.609  2.1756  0.8331 -0.4575
   19MOL    H42 5838   2.650   7.711   0.679 -0.0153  0.4307 -1.9204
   19MOL    H43 5839   2.719   7.857   0.672  0.8494 -1.7590 -0.3487
   19MOL    H44 5840   2.664   7.706   0.973  0.7464 -0.2411  2.6127
   19MOL    H45 5841   2.621   7.682   1.192 -0.2715  0.1873  0.2834
   19MOL    H46 5842   2.529   7.795   1.274  0.5018  0.9973  0.6724
   19MOL    H47 5843   2.701   7.819   1.276  3.6669 -2.9083 -3.0576
   19MOL    H48 5844   2.525   0.162   1.011  0.8710  2.6468  0.8080
   19MOL    H49 5845   2.499   0.139   1.192  1.5578 -2.3531  1.0348
   19MOL    C50 5846   2.810   7.865   0.945  0.5539  0.3340 -0.3105
   19MOL    C51 5847   2.813   0.120   0.890  0.1978 -0.1496 -0.2679
   19MOL    C52 5848   2.918   7.763   0.881  0.3495  0.0201 -0.8030
   19MOL    C53 5849   2.900   7.618   0.939  0.1792  0.4457  0.9065
   19MOL    C54 5850   2.918   7.612   1.086 -0.2182 -0.3611 -0.0286
   19MOL    C55 5851   2.872   7.515   0.863  0.0471  0.1436 -0.2593
   19MOL    H56 5852   2.844   7.880   1.047  0.0059 -0.8293  0.0561
   19MOL    H57 5853   2.719   0.175   0.898  0.3408  0.3040 -1.5242
   19MOL    H58 5854   2.820   0.116   0.781 -1.7962 -2.6887 -0.3370
   19MOL    H59 5855   2.895   0.174   0.937  0.7559  0.0805 -1.4868
   19MOL    H60 5856   2.881   7.767   0.779  1.1464 -0.0038 -1.0949
   19MOL    H61 5857   2.881   7.708   1.121  0.5257  0.7448 -2.2234
   19MOL    H62 5858   3.018   7.590   1.123 -0.2716 -1.6751 -0.6449
   19MOL    H63 5859   2.851   7.541   1.136 -0.6593 -0.0118 -0.1237
   19MOL    H64 5860   2.843   7.523   0.759  0.0124 -0.0827 -0.2676
   19MOL    H65 5861   2.868   7.414   0.903  2.2889  1.1441  2.6898
   19MOL    C66 5862   3.067   7.806   0.876 -0.1498  0.1720  0.2907
   19MOL    C67 5863   3.125   7.891   0.993  0.0164 -0.6873 -0.0194
   19MOL    C68 5864   3.117   7.867   0.738 -0.1966  0.3062 -0.5630
   19MOL    C69 5865   3.073   7.786   0.614  0.3778  0.6233  0.1802
   19MOL    C70 5866   3.048   7.862   0.486 -0.3537  0.0923  0.4608
   19MOL    C71 5867   3.052   7.657   0.614  0.7055  0.9461 -0.2919
   19MOL    H72 5868   3.127   7.716   0.881  0.9990  0.7774 -2.0242
   19MOL    H73 5869   3.064   7.870   1.081  1.6173 -1.1591  0.9971
   19MOL    H74 5870   3.125   0.106   0.973 -0.8330 -0.4080  1.4213
   19MOL    H75 5871   3.227   7.863   1.019  0.5855  1.1633 -0.1766
   19MOL    H76 5872   3.060   0.066   0.722 -0.7182  0.1157  0.2197
   19MOL    H77 5873   2.995   7.800   0.414  0.1972  0.6696 -0.4470
   19MOL    H78 5874   3.147   7.884   0.446  0.7763 -2.4542  1.7496
   19MOL    H79 5875   2.982   0.054   0.509 -0.4226 -0.2074  1.3857
   19MOL    H80 5876   3.066   7.587   0.695  0.9009 -0.2997 -1.3765
   19MOL    H81 5877   3.020   7.608   0.523 -0.1335 -1.5106  1.2858
   19MOL    C82 5878   3.269   0.011   0.721 -0.1399 -0.5646 -0.2004
   19MOL    C83 5879   3.363   7.799   0.774 -0.5030 -0.0311 -0.5092
   19MOL    C84 5880   3.316   0.163   0.761  0.1690  0.2092  0.2412
   19MOL    C85 5881   3.224   0.273   0.705 -0.3400 -0.0151 -0.0516
   19MOL    C86 5882   3.212   0.304   0.553  0.4501  0.6182  0.2187
   19MOL    C87 5883   3.148   0.341   0.791 -0.3169  0.3054  0.0384
   19MOL    H88 5884   3.279   7.886   0.614 -4.7219 -0.4547 -0.7251
   19MOL    H89 5885   3.393   7.822   0.877  1.7985 -1.2772 -0.8521
   19MOL    H90 5886   3.452   7.789   0.711  0.8856 -0.3685  1.4451
   19MOL    H91 5887   3.331   7.695   0.785 -1.8475  0.7031  3.2547
   19MOL    H92 5888   3.308   0.159   0.870  0.5351 -0.6219  0.2418
   19MOL    H93 5889   3.184   0.215   0.496 -0.3092  1.0103 -0.0301
   19MOL    H94 5890   3.293   0.358   0.505  0.5057 -0.4090 -0.8756
   19MOL    H95 5891   3.124   0.369   0.547 -0.3736 -0.2462  2.4901
   19MOL    H96 5892   3.157   0.323   0.897  2.9953 -0.1126 -0.2679
   19MOL    H97 5893   3.103   0.428   0.746 -0.4531  0.7081  0.9516
   19MOL    C98 5894   3.471   0.189   0.733 -0.2958  0.5884  0.1624
   19MOL    C99 5895   3.514   0.133   0.595  0.3947 -0.6969  0.6798
   19MOL   C100 5896   3.573   0.175   0.860 -0.4244 -0.4337 -0.0962
   19MOL   C101 5897   3.520   0.236   0.991 -0.3344  0.4020  0.6875
   19MOL   C102 5898   3.533   0.152   1.111  0.9870 -0.0277 -0.3665
   19MOL   C103 5899   3.451   0.346   0.992  0.1302 -0.5342 -0.3042
   19MOL   H104 5900   3.471   0.297   0.722 -0.9364  0.4865 -0.9130
   19MOL   H105 5901   3.578   0.201   0.539 -1.5235 -0.3860 -1.1821
   19MOL   H106 5902   3.429   0.112   0.531  1.8028  1.0694 -1.8626
   19MOL   H107 5903   3.561   0.035   0.601  0.2552 -0.8675 -0.9791
   19MOL   H108 5904   3.582   0.068   0.878  1.7631 -0.1002  1.0596
   19MOL   H109 5905   3.627   0.096   1.103  0.8808 -0.1068 -1.0685
   19MOL   H110 5906   3.446   0.088   1.124  0.9974  0.0746  0.2161
   19MOL   H111 5907   3.545   0.207   1.204  1.2558 -2.4380  1.0766
   19MOL   H112 5908   3.422   0.404   0.905 -1.8517 -1.2040 -0.1013
   19MOL   H113 5909   3.410   0.395   1.079 -1.3612 -1.2909 -0.5627
   19MOL   C114 5910   3.720   0.234   0.825  0.6011 -0.1042 -0.0191
   19MOL   C115 5911   3.723   0.381   0.779 -1.3654 -0.2903 -0.7057
   19MOL   C116 5912   3.807   0.139   0.739 -0.1205 -0.0458 -0.2190
   19MOL   C117 5913   3.810   7.884   0.797  0.6646 -0.5901  0.0146
   19MOL   C118 5914   3.818   7.767   0.697  0.3459 -0.5118 -0.2652
   19MOL   C119 5915   3.815   7.854   0.930 -0.6354 -0.5243 -0.2156
   19MOL   H120 5916   3.767   0.249   0.922  0.1811  0.2187  0.1373
   19MOL   H121 5917   3.699   0.381   0.672 -1.3483  0.3301 -0.7110
   19MOL   H122 5918   3.822   0.422   0.799 -1.6286 -0.4068  0.8299
   19MOL   H123 5919   3.648   0.446   0.822 -0.6620 -0.0617  0.1884
   19MOL   H124 5920   3.756   0.116   0.645 -0.4638 -2.4264  0.5080
   19MOL   H125 5921   3.920   7.754   0.660  0.2214 -0.4921 -0.6125
   19MOL   H126 5922   3.759   7.788   0.608  1.2600  0.7464 -0.5893
   19MOL   H127 5923   3.767   7.687   0.750 -4.4251  0.7110 -2.7596
   19MOL   H128 5924   3.825   0.039   1.005  0.3703  0.3087 -1.1861
   19MOL   H129 5925   3.819   7.749   0.955  0.0258 -0.4105  0.1849
   19MOL   C130 5926   3.958   0.174   0.710  0.3153 -0.6413 -0.0294
   19MOL   C131 5927   4.042   0.222   0.836  0.0997 -0.6068  0.2302
   19MOL   C132 5928   3.982   0.259   0.580  0.8614  0.1183  0.2868
   19MOL   C133 5929   3.903   0.210   0.453  0.1652 -0.0103  0.1799
   19MOL   C134 5930   3.825   0.301   0.368 -0.0441  0.6327 -0.6451
   19MOL   C135 5931   3.891   0.082   0.421 -0.2631  0.2207  0.0504
   19MOL   H136 5932   4.011   0.083   0.680  1.0615  0.5364 -2.4746
   19MOL   H137 5933   4.021   0.322   0.874  1.3927  0.0567 -0.7388
   19MOL   H138 5934   4.149   0.221   0.816  0.3626 -0.8555  1.6168
   19MOL   H139 5935   4.019   0.142   0.907 -1.6343  0.7397  1.2092
   19MOL   H140 5936   3.928   0.346   0.616  1.4172  0.1463  1.0746
   19MOL   H141 5937   3.752   0.246   0.309 -0.6788  2.8967 -2.0504
   19MOL   H142 5938   3.899   0.352   0.307 -1.2181  1.2421 -1.5800
   19MOL   H143 5939   3.766   0.363   0.435 -0.7040 -0.7935  0.0977
   19MOL   H144 5940   3.932   0.006   0.485  0.0833 -1.1846 -1.8082
   19MOL   H145 5941   3.842   0.037   0.336 -0.3420 -2.9047  1.7098
   19MOL   C146 5942   4.122   0.314   0.531  0.5751 -1.2092 -0.7833
   19MOL   C147 5943   4.100   0.467   0.497 -0.0455  0.0149 -0.0748
   19MOL   C148 5944   4.213   0.231   0.427 -0.1472 -1.0319  0.5099
   19MOL   C149 5945   4.232   0.079   0.475 -0.0361  0.3717 -0.3445
   19MOL   C150 5946   4.236   7.859   0.372  0.4292 -0.4436 -0.5849
   19MOL   C151 5947   4.267   0.050   0.603 -0.3542  0.1968  0.6889
   19MOL   H152 5948   4.186   0.326   0.619  2.3540  2.3320 -2.4302
   19MOL   H153 5949   4.086   0.485   0.390  0.6890 -0.5341 -0.2739
   19MOL   H154 5950   4.198   0.516   0.506 -1.2030  2.2353  0.8472
   19MOL   H155 5951   4.034   0.527   0.559 -1.0805 -2.0174  0.8332
   19MOL   H156 5952   4.153   0.209   0.339  0.5463 -1.4784  0.1371
   19MOL   H157 5953   4.236   7.771   0.438  1.6520  0.3814  0.5446
   19MOL   H158 5954   4.324   7.868   0.310 -1.0161  0.4982 -2.5529
   19MOL   H159 5955   4.145   7.859   0.312 -1.0676 -2.8823  1.5379
   19MOL   H160 5956   4.281   0.124   0.680  4.8638 -0.6273  0.7695
   19MOL   H161 5957   4.285   7.839   0.630 -0.7602 -0.0728 -0.0571
   19MOL   C162 5958   4.353   0.279   0.375  0.4511 -0.1448 -0.1913
   19MOL   C163 5959   4.443   0.315   0.492 -0.2682 -0.5911  1.3940
   19MOL   C164 5960   4.338   0.384   0.254 -0.5984 -0.2339 -0.0381
   19MOL   C165 5961   4.221   0.345   0.155 -0.5448 -0.2151  0.5504
   19MOL   C166 5962   4.248   0.233   0.073  0.4082 -0.4611  0.4865
   19MOL   C167 5963   4.108   0.414   0.137 -0.1256 -0.0409 -0.5796
   19MOL   H168 5964   4.405   0.193   0.332  1.6698 -0.6130  2.1439
   19MOL   H169 5965   4.403   0.400   0.548 -0.1277 -0.1320  0.8026
   19MOL   H170 5966   4.544   0.351   0.470 -0.3806 -0.9730  0.2257
   19MOL   H171 5967   4.452   0.235   0.565 -0.4018 -0.7344  1.2520
   19MOL   H172 5968   4.299   0.470   0.309 -3.0703 -2.2214  1.4133
   19MOL   H173 5969   4.294   0.147   0.120  0.6097 -0.6291 -0.0062
   19MOL   H174 5970   4.323   0.249   7.888  0.8009 -1.4057  0.6644
   19MOL   H175 5971   4.152   0.199   0.033  0.0946 -1.2260  1.8804
   19MOL   H176 5972   4.103   0.509   0.187 -1.7171  0.4257 -1.5748
   19MOL   H177 5973   4.027   0.391   0.068 -1.5948  0.2909  1.0071
   19MOL   C178 5974   4.467   0.425   0.166  0.5171  0.2920 -0.4554
   19MOL   C179 5975   4.581   0.326   0.162  0.1777  0.4955 -0.4318
   19MOL   C180 5976   4.529   0.574   0.186  0.3374  0.1026  0.3743
   19MOL   C181 5977   4.598   0.589   0.324 -0.2312  0.4117 -0.1833
   19MOL   C182 5978   4.748   0.576   0.331 -0.2954 -0.0768 -0.5373
   19MOL   C183 5979   4.533   0.615   0.434 -0.0815 -0.1587 -0.1880
   19MOL   H184 5980   4.429   0.425   0.064 -1.2498 -0.0955  0.1809
   19MOL   H185 5981   4.661   0.364   0.097 -0.0617  1.3939 -0.2088
   19MOL   H186 5982   4.545   0.235   0.114  0.1549  1.3882 -2.1664
   19MOL   H187 5983   4.623   0.295   0.258 -0.6807 -0.2022 -0.2821
   19MOL   H188 5984   4.612   0.577   0.115 -0.3994 -0.3187 -0.5046
   19MOL   H189 5985   4.797   0.599   0.425  0.1716  0.5598 -0.9326
   19MOL   H190 5986   4.797   0.643   0.260  0.3493 -0.9948 -0.9578
   19MOL   H191 5987   4.783   0.476   0.307 -1.1263 -0.4742 -0.1087
   19MOL   H192 5988   4.426   0.626   0.443 -0.1002 -0.1398 -0.4485
   19MOL   H193 5989   4.579   0.626   0.531  0.0172 -1.3789 -0.0818
   19MOL   C194 5990   4.430   0.697   0.155  0.5891  0.6074 -0.2857
   19MOL   C195 5991   4.352   0.674   0.026  0.0645  0.4728 -0.1910
   19MOL   C196 5992   4.500   0.841   0.162  0.4219  0.5393  0.6442
   19MOL   C197 5993   4.402   0.958   0.206  0.5950  0.2139 -0.7338
   19MOL   C198 5994   4.300   1.015   0.102 -0.8556 -0.0515  0.4448
   19MOL   C199 5995   4.397   1.007   0.329  0.2616 -0.2857  0.2283
   19MOL   H200 5996   4.356   0.699   0.235  0.7474 -2.2803 -0.0349
   19MOL   H201 5997   4.265   0.615   0.057  1.2202 -0.2088  1.8574
   19MOL   H202 5998   4.416   0.619   7.850  1.4505  0.2991  1.2123
   19MOL   H203 5999   4.317   0.767   7.873  1.5779  0.2923 -1.7718
   19MOL   H204 6000   4.577   0.850   0.240  0.3380  1.2722  0.6467
   19MOL   H205 6001   4.205   0.966   0.080  0.0105  0.5841 -5.5322
   19MOL   H206 6002   4.355   1.047   0.014 -3.8193  2.3267 -0.6380
   19MOL   H207 6003   4.277   1.116   0.134  0.1724 -0.7006  3.3850
   19MOL   H208 6004   4.457   0.968   0.410 -0.2662 -0.0835  0.7244
   19MOL   H209 6005   4.324   1.082   0.356 -1.3741 -1.3969 -1.0260
   19MOL   C210 6006   4.589   0.887   0.041  0.1189 -0.7783  0.2505
   19MOL   C211 6007   4.686   0.792   7.860 -0.2379 -0.1411 -0.7889
   19MOL   C212 6008   4.656   1.029   0.062 -1.0570  0.4651  0.1578
   19MOL   C213 6009   4.593   1.137   7.862 -0.8339 -0.5328 -0.7523
   19MOL   C214 6010   4.596   1.280   0.033 -0.3696 -0.4571  0.0779
   19MOL   C215 6011   4.538   1.108   7.748  0.4757 -0.7100 -0.0383
   19MOL   H216 6012   4.515   0.892   7.854 -1.2393 -1.1840  1.4661
   19MOL   H217 6013   4.774   0.760   0.024 -1.0557  0.2563  0.7252
   19MOL   H218 6014   4.709   0.832   7.762  1.2974  0.6217 -0.1305
   19MOL   H219 6015   4.616   0.710   7.843 -2.1962  1.2327  0.4296
   19MOL   H220 6016   4.617   1.069   0.156 -0.3826  0.1549  0.5730
   19MOL   H221 6017   4.593   1.281   0.142  0.7928  1.9253  0.1102
   19MOL   H222 6018   4.517   1.337   7.877  0.9997  0.7200 -0.7933
   19MOL   H223 6019   4.685   1.341   0.020 -1.4449  0.8687 -1.0725
   19MOL   H224 6020   4.523   1.014   7.697  1.6687 -1.7666  1.5042
   19MOL   H225 6021   4.490   1.187   7.693  1.3721 -0.9984 -1.2566
   19MOL   C226 6022   4.811   1.060   0.068 -0.3639 -0.1440  0.3716
   19MOL   C227 6023   4.890   1.030   7.827 -0.1906  0.3863  0.1090
   19MOL   C228 6024   4.878   1.000   0.201  0.0310  0.2544  0.1242
   19MOL   C229 6025   4.803   1.045   0.332 -0.2394 -0.1834  0.1798
   19MOL   C230 6026   4.791   0.938   0.441  0.8087 -0.1972 -0.3485
   19MOL   C231 6027   4.760   1.171   0.361  0.5157 -0.4757 -0.6373
   19MOL   H232 6028   4.820   1.168   0.081  1.7030 -0.4955  2.2596
   19MOL   H233 6029   4.834   1.052   7.736 -0.1066 -2.0247 -0.5573
   19MOL   H234 6030   4.909   0.923   7.828  0.6401  0.4854 -1.9198
   19MOL   H235 6031   4.985   1.084   7.825  1.3626 -2.2123  1.4532
   19MOL   H236 6032   4.864   0.892   0.195 -1.9623  0.5561 -1.4359
   19MOL   H237 6033   4.769   0.843   0.393 -0.7470 -0.5554  1.0482
   19MOL   H238 6034   4.707   0.966   0.505 -0.0195 -3.7121  0.1867
   19MOL   H239 6035   4.884   0.920   0.496  1.0850 -0.2924 -0.8449
   19MOL   H240 6036   4.766   1.259   0.299  0.5832 -0.4254 -0.5588
   19MOL   H241 6037   4.706   1.198   0.451 -1.3164  0.9589 -2.1368
   19MOL   C242 6038   5.037   1.026   0.220  0.3600 -0.0023  0.0622
   19MOL   C243 6039   5.069   1.170   0.181  0.1560  0.5586 -0.7014
   19MOL   C244 6040   5.127   0.918   0.147 -0.4458  0.2770 -0.2533
   19MOL   C245 6041   5.090   0.770   0.179  0.1865 -0.3138 -0.1865
   19MOL   C246 6042   5.103   0.731   0.325 -0.2791  0.6382 -0.3632
   19MOL   C247 6043   5.043   0.687   0.082 -0.4770 -0.4693  0.5824
   19MOL   H248 6044   5.063   1.023   0.325  0.0082 -0.4738  0.1370
   19MOL   H249 6045   4.981   1.233   0.195  0.6770  1.0105  0.6380
   19MOL   H250 6046   5.104   1.183   0.079  0.8374  1.1489 -0.3968
   19MOL   H251 6047   5.147   1.210   0.246  0.2278 -1.8824  0.7879
   19MOL   H252 6048   5.105   0.933   0.042  0.3422  0.4675 -0.3972
   19MOL   H253 6049   5.208   0.712   0.345 -0.1330  1.6600 -0.1449
   19MOL   H254 6050   5.048   0.637   0.342 -0.3546  0.5809 -0.9179
   19MOL   H255 6051   5.068   0.810   0.391 -0.4158 -1.6974  2.4721
   19MOL   H256 6052   5.048   0.726   7.874  0.0914 -0.4950  0.5999
   19MOL   H257 6053   5.007   0.587   0.099  1.1352 -0.9317  1.2995
   19MOL   C258 6054   5.281   0.933   0.152 -0.5453  0.6467 -0.1564
   19MOL   C259 6055   5.328   0.978   0.292  0.8080 -0.0867 -0.2628
   19MOL   C260 6056   5.348   1.013   0.037  0.0558  0.2646 -0.1680
   19MOL   C261 6057   5.289   0.957   7.795  0.5388  0.0555  0.5946
   19MOL   C262 6058   5.345   0.822   7.751  0.1199  0.1862 -0.1646
   19MOL   C263 6059   5.224   1.045   7.716  0.2355  0.2537 -0.0693
   19MOL   H264 6060   5.326   0.835   0.137  1.7470  1.7138 -0.5062
   19MOL   H265 6061   5.259   0.944   0.369  1.2062  0.7914  0.4882
   19MOL   H266 6062   5.331   1.087   0.303 -2.8741 -0.0244  0.6383
   19MOL   H267 6063   5.419   0.929   0.327  1.1364  1.1193  0.6145
   19MOL   H268 6064   5.313   1.116   0.035 -1.0112 -0.0803  0.2193
   19MOL   H269 6065   5.333   0.738   7.820 -1.1297  1.1156  0.7981
   19MOL   H270 6066   5.449   0.838   7.723 -0.3820  0.4498 -1.9381
   19MOL   H271 6067   5.292   0.791   7.662  0.6271  1.0554 -0.7809
   19MOL   H272 6068   5.204   1.145   7.754 -0.2327  0.0009  0.3613
   19MOL   H273 6069   5.188   1.004   7.623 -1.2931  1.0393  0.1663
   19MOL   C274 6070   5.506   1.026   0.034  0.4919  0.2068  0.2486
   19MOL   C275 6071   5.573   0.896   0.073 -0.3830 -0.2588 -0.2174
   19MOL   C276 6072   5.571   1.158   0.090 -0.2188 -1.2081  0.1026
   19MOL   C277 6073   5.499   1.283   0.033 -0.1376  0.2538 -0.1448
   19MOL   C278 6074   5.502   1.304   7.776 -1.0114 -0.9053 -0.6306
   19MOL   C279 6075   5.447   1.376   0.120  0.0008  0.5166  0.2314
   19MOL   H280 6076   5.531   1.022   7.820 -3.6618  0.4480 -0.7891
   19MOL   H281 6077   5.573   0.868   0.178  2.0189 -0.3932 -0.2258
   19MOL   H282 6078   5.680   0.904   0.054  0.0049 -0.1247  1.9051
   19MOL   H283 6079   5.537   0.813   0.012 -2.4941  0.6500 -0.2435
   19MOL   H284 6080   5.541   1.156   0.195 -0.6217  1.2620  0.0618
   19MOL   H285 6081   5.429   1.379   7.746 -0.4270  0.3444  0.9921
   19MOL   H286 6082   5.477   1.215   7.718 -2.5423 -0.6410 -0.3981
   19MOL   H287 6083   5.602   1.325   7.740 -0.2528 -0.5172  1.6003
   19MOL   H288 6084   5.453   1.369   0.227 -1.3716 -1.3664  0.2019
   19MOL   H289 6085   5.399   1.463   0.077 -0.1125  0.0711 -0.5634
   19MOL   C290 6086   5.732   1.186   0.085 -0.2531  0.4428 -0.0050
   19MOL   C291 6087   5.798   1.139   7.845 -0.0012  0.0568 -0.4183
   19MOL   C292 6088   5.808   1.146   0.212 -0.4149  0.5656 -0.5667
   19MOL   C293 6089   5.735   1.166   0.338 -0.8614  0.0349  0.6899
   19MOL   C294 6090   5.683   1.311   0.374  0.4594 -0.4725  0.8313
   19MOL   C295 6091   5.707   1.066   0.422 -0.0814  0.4223  0.0095
   19MOL   H296 6092   5.752   1.292   0.074 -0.5901  0.5509  0.4284
   19MOL   H297 6093   5.830   1.035   7.842  0.1281 -0.0068  2.2108
   19MOL   H298 6094   5.886   1.198   7.820  0.4504  0.2785  1.6226
   19MOL   H299 6095   5.732   1.148   7.759 -1.1280 -2.2802  0.1663
   19MOL   H300 6096   5.813   1.039   0.192 -0.7779  0.3970  0.2343
   19MOL   H301 6097   5.726   1.345   0.468  0.9296 -0.3383  0.5685
   19MOL   H302 6098   5.578   1.333   0.393  0.9045  0.9931  1.6311
   19MOL   H303 6099   5.709   1.381   0.295  0.1372 -0.1782  0.9846
   19MOL   H304 6100   5.734   0.966   0.392 -2.3909  0.1771 -1.3965
   19MOL   H305 6101   5.651   1.078   0.514  1.2301 -1.2148  1.0605
   19MOL   C306 6102   5.962   1.172   0.213  0.2657 -0.4220  0.5615
   19MOL   C307 6103   6.040   1.053   0.271 -0.3491  0.3547  0.0991
   19MOL   C308 6104   6.015   1.292   0.285 -0.2231  0.0445  0.5899
   19MOL   C309 6105   5.969   1.427   0.234 -0.7683 -0.0809 -0.2647
   19MOL   C310 6106   5.961   1.534   0.340  0.1712  0.8900 -0.6959
   19MOL   C311 6107   5.963   1.460   0.105 -0.5709  0.5537 -0.3894
   19MOL   H312 6108   6.012   1.190   0.118 -1.2180  0.0359 -0.1483
   19MOL   H313 6109   6.014   1.039   0.376 -0.5344  0.2835  0.0435
   19MOL   H314 6110   6.144   1.084   0.265 -0.4380  0.2193 -2.8631
   19MOL   H315 6111   6.017   0.960   0.220 -0.3554 -0.3115  1.2935
   19MOL   H316 6112   5.976   1.285   0.387 -0.7627 -2.1663  0.2599
   19MOL   H317 6113   5.879   1.508   0.408  0.0939  2.6181 -0.1038
   19MOL   H318 6114   5.936   1.627   0.289 -1.5762  1.5001  1.2072
   19MOL   H319 6115   6.051   1.532   0.402  1.0131  0.6483 -1.9171
   19MOL   H320 6116   5.964   1.382   0.030  0.6501  0.6819 -0.5157
   19MOL   H321 6117   5.928   1.556   0.071 -0.3434  0.1963 -1.6750
   19MOL   H322 6118   6.123   1.291   0.298 -0.3038 -0.2633  1.2568
   20MOL     C1 6119   1.752   4.208   2.793  0.0790 -0.5007 -0.9875
   20MOL     C2 6120   1.790   4.254   2.653  0.2133 -0.7772  0.1856
   20MOL     C3 6121   1.601   4.228   2.819 -0.0954  0.0019 -0.3606
   20MOL     C4 6122   1.560   4.377   2.819 -0.7329 -0.3561 -0.0162
   20MOL     C5 6123   1.574   4.456   2.948 -0.4942  0.3976 -0.6232
   20MOL     C6 6124   1.495   4.429   2.715 -0.2813  0.1284 -0.7860
   20MOL     H7 6125   1.781   4.103   2.794  1.0155 -0.2430 -0.7946
   20MOL     H8 6126   1.720   4.203   2.587 -0.8120  0.9813 -0.0945
   20MOL     H9 6127   1.889   4.220   2.621  0.9518  1.2873  0.1802
   20MOL    H10 6128   1.778   4.362   2.664  0.9265 -0.7755  1.0397
   20MOL    H11 6129   1.560   4.189   2.726 -0.7013 -1.5037  0.5212
   20MOL    H12 6130   1.679   4.449   2.978 -0.0875  0.7185 -1.9297
   20MOL    H13 6131   1.509   4.423   3.029 -0.6955 -1.0636 -1.3563
   20MOL    H14 6132   1.561   4.564   2.938  0.0772  0.4912 -0.3365
   20MOL    H15 6133   1.485   4.373   2.623  2.4148  0.4914 -1.3466
   20MOL    H16 6134   1.466   4.533   2.721  0.0810  0.2086 -0.3334
   20MOL    H17 6135   1.814   4.259   2.867  2.0535 -2.2167 -1.4222
   20MOL    C18 6136   1.531   4.142   2.935 -0.1487 -0.5509  0.1366
   20MOL    C19 6137   1.644   4.121   3.044  0.0243 -0.5490  0.1921
   20MOL    C20 6138   1.470   4.003   2.880  0.1003  0.0519 -0.2503
   20MOL    C21 6139   1.376   4.024   2.760  0.2399 -0.4549 -0.2017
   20MOL    C22 6140   1.260   4.118   2.771 -0.5789  0.1562 -0.3240
   20MOL    C23 6141   1.383   3.958   2.645  0.0767  0.5650  0.4767
   20MOL    H24 6142   1.451   4.205   2.975 -0.0584 -1.2021  1.3592
   20MOL    H25 6143   1.695   4.213   3.072  0.0123 -0.4635 -0.0582
   20MOL    H26 6144   1.723   4.060   3.001  0.3299 -1.1926  1.6636
   20MOL    H27 6145   1.618   4.068   3.135 -1.9416 -1.0666 -0.6267
   20MOL    H28 6146   1.562   3.960   2.840  0.2614  0.6695 -0.5577
   20MOL    H29 6147   1.305   4.206   2.817 -2.6272  0.2392  1.6497
   20MOL    H30 6148   1.187   4.102   2.851 -1.4235  2.4644 -0.5893
   20MOL    H31 6149   1.218   4.151   2.676  0.1267 -0.7587 -0.9704
   20MOL    H32 6150   1.463   3.886   2.631 -2.2878 -1.6624 -2.0536
   20MOL    H33 6151   1.311   3.972   2.567  0.5503 -1.7689 -0.4240
   20MOL    C34 6152   1.395   3.923   2.987 -0.0203 -0.5896  0.3392
   20MOL    C35 6153   1.317   4.012   3.084 -0.5197  0.0417  0.1234
   20MOL    C36 6154   1.484   3.823   3.067  0.4043 -0.1060  0.0781
   20MOL    C37 6155   1.587   3.751   2.974 -0.5542  0.2071  0.6314
   20MOL    C38 6156   1.723   3.748   3.032  0.4395 -0.1101 -0.0262
   20MOL    C39 6157   1.570   3.706   2.844 -0.5267 -0.2661 -0.7840
   20MOL    H40 6158   1.327   3.870   2.920  0.6149 -2.1594  0.8915
   20MOL    H41 6159   1.283   4.103   3.034  0.9013  0.0877 -0.7892
   20MOL    H42 6160   1.381   4.054   3.162 -0.6755  1.5157 -0.5398
   20MOL    H43 6161   1.223   3.963   3.110 -0.2580 -0.4397  0.1745
   20MOL    H44 6162   1.544   3.878   3.139  0.6149 -2.1308  1.5166
   20MOL    H45 6163   1.731   3.692   3.125  2.6271  0.0445 -0.0945
   20MOL    H46 6164   1.766   3.847   3.046  0.6725 -0.4056  1.4434
   20MOL    H47 6165   1.791   3.697   2.964 -0.0266  0.2184 -0.7432
   20MOL    H48 6166   1.478   3.720   2.788 -0.0888 -1.7789 -1.9228
   20MOL    H49 6167   1.652   3.656   2.795 -0.7855 -1.3688 -0.1156
   20MOL    C50 6168   1.418   3.711   3.150  0.4692  0.0454  0.6978
   20MOL    C51 6169   1.309   3.644   3.070 -0.4997  0.9246 -0.4185
   20MOL    C52 6170   1.358   3.757   3.297 -0.2367  0.0544 -0.3927
   20MOL    C53 6171   1.458   3.852   3.373 -0.2174 -0.1281 -0.5256
   20MOL    C54 6172   1.391   3.973   3.438  0.4425  0.0628  0.6630
   20MOL    C55 6173   1.591   3.833   3.383 -0.2555  0.0596 -0.4835
   20MOL    H56 6174   1.497   3.636   3.154  0.9338  0.5398  0.8994
   20MOL    H57 6175   1.283   3.545   3.107  3.2478 -0.0267 -0.2077
   20MOL    H58 6176   1.336   3.621   2.967  1.0492  0.6820  0.0411
   20MOL    H59 6177   1.227   3.716   3.058  0.1561  1.7516  0.0052
   20MOL    H60 6178   1.274   3.826   3.294  0.8237  1.4281  0.6256
   20MOL    H61 6179   1.456   4.059   3.420 -0.1177  0.1375 -1.2037
   20MOL    H62 6180   1.381   3.957   3.545  0.6940 -0.7296  0.5656
   20MOL    H63 6181   1.296   4.001   3.392  0.3216 -2.6784 -0.8375
   20MOL    H64 6182   1.627   3.750   3.325 -0.0259 -0.3655  0.2641
   20MOL    H65 6183   1.650   3.899   3.444  0.6075 -0.8772 -0.2974
   20MOL    C66 6184   1.329   3.624   3.385 -0.0217 -0.2192  0.6752
   20MOL    C67 6185   1.426   3.512   3.357  0.7532 -0.1297  0.0108
   20MOL    C68 6186   1.182   3.584   3.383  0.1486  0.1476 -0.1674
   20MOL    C69 6187   1.088   3.699   3.431 -0.7360  0.0247  0.3421
   20MOL    C70 6188   0.973   3.727   3.341 -0.0239  0.2196 -0.5551
   20MOL    C71 6189   1.126   3.783   3.530 -0.1443 -0.2572  0.5947
   20MOL    H72 6190   1.356   3.654   3.486  0.5097 -1.4725  0.9134
   20MOL    H73 6191   1.410   3.435   3.432  1.1431 -1.6309 -1.4163
   20MOL    H74 6192   1.524   3.561   3.364  0.1421  0.6798  4.2253
   20MOL    H75 6193   1.415   3.456   3.264 -2.8413 -1.0423  0.9418
   20MOL    H76 6194   1.161   3.570   3.277 -0.1609  1.3684 -0.2728
   20MOL    H77 6195   0.945   3.831   3.355 -2.1161 -0.2237 -1.4273
   20MOL    H78 6196   0.899   3.653   3.370  0.7032 -1.0610 -1.8957
   20MOL    H79 6197   0.999   3.709   3.237 -1.1156  3.1542 -1.3820
   20MOL    H80 6198   1.210   3.775   3.596 -0.5676 -0.5876  1.1007
   20MOL    H81 6199   1.061   3.867   3.550  2.9037  1.8286  2.0422
   20MOL    C82 6200   1.134   3.457   3.459 -0.0149 -0.8052 -0.3305
   20MOL    C83 6201   1.194   3.455   3.598 -0.1715 -0.4937  0.0072
   20MOL    C84 6202   1.146   3.319   3.388 -0.2795  0.6188 -0.4933
   20MOL    C85 6203   1.133   3.325   3.234  0.0208  0.3658  0.3174
   20MOL    C86 6204   1.001   3.363   3.184 -0.4708  0.6213  0.0079
   20MOL    C87 6205   1.226   3.282   3.150 -0.5623  0.5698  0.4817
   20MOL    H88 6206   1.028   3.471   3.479  0.4471  1.3585  0.7305
   20MOL    H89 6207   1.213   3.556   3.633  2.2526 -1.2097  0.8332
   20MOL    H90 6208   1.291   3.405   3.604 -0.1568 -0.5338 -0.5185
   20MOL    H91 6209   1.120   3.402   3.658  0.3127 -0.6479  0.4681
   20MOL    H92 6210   1.251   3.294   3.376 -0.2897 -1.1245  2.4210
   20MOL    H93 6211   0.936   3.276   3.184  0.1794  0.1213 -1.6956
   20MOL    H94 6212   0.999   3.415   3.088  1.5919  0.9915  0.1364
   20MOL    H95 6213   0.957   3.433   3.255 -0.4789 -0.6077  1.2090
   20MOL    H96 6214   1.320   3.245   3.187  0.4957  2.8387  0.1646
   20MOL    H97 6215   1.219   3.264   3.044  0.9692 -1.9428  0.7643
   20MOL    C98 6216   1.073   3.190   3.455 -0.0291  0.2322 -0.7583
   20MOL    C99 6217   0.919   3.223   3.487  0.3370  0.1366 -0.0282
   20MOL   C100 6218   1.149   3.121   3.573 -0.0778 -0.7438  0.6923
   20MOL   C101 6219   1.299   3.088   3.541  0.1334  0.5046 -0.5675
   20MOL   C102 6220   1.396   3.101   3.655 -0.3875  0.7056 -0.0539
   20MOL   C103 6221   1.343   3.059   3.416  0.5121  0.4134 -0.0974
   20MOL   H104 6222   1.073   3.114   3.377 -0.5076 -0.3309 -0.2216
   20MOL   H105 6223   0.905   3.288   3.573  0.2549  1.4454 -1.0153
   20MOL   H106 6224   0.868   3.130   3.510  4.2184 -2.3064 -0.7711
   20MOL   H107 6225   0.867   3.256   3.398  0.0947 -0.2550 -0.0329
   20MOL   H108 6226   1.156   3.197   3.650  0.0570 -1.3585  1.2910
   20MOL   H109 6227   1.487   3.052   3.620 -0.8866 -0.5044  0.3090
   20MOL   H110 6228   1.359   3.046   3.742  2.1218 -1.2080 -0.1309
   20MOL   H111 6229   1.417   3.206   3.670 -1.5940  0.8467  0.6777
   20MOL   H112 6230   1.280   3.055   3.329 -0.0112  0.8624  0.2597
   20MOL   H113 6231   1.447   3.040   3.394  0.3375  1.1720 -1.6404
   20MOL   C114 6232   1.083   3.003   3.648  0.2708 -0.1463 -0.0765
   20MOL   C115 6233   1.029   2.897   3.549 -0.2060 -0.3219  0.6778
   20MOL   C116 6234   0.984   3.038   3.771 -0.6515 -0.0889 -0.2540
   20MOL   C117 6235   1.076   3.077   3.891  0.5363  0.1278  0.1917
   20MOL   C118 6236   1.156   2.960   3.953  0.4430 -0.2701 -0.4324
   20MOL   C119 6237   1.091   3.208   3.924  0.5177 -0.7968  0.1248
   20MOL   H120 6238   1.169   2.952   3.693 -0.0143  0.2851  0.9717
   20MOL   H121 6239   0.924   2.917   3.530  0.0057 -0.4056 -0.6487
   20MOL   H122 6240   1.042   2.797   3.589  1.2904 -0.1021  0.7833
   20MOL   H123 6241   1.083   2.898   3.454 -0.5120  0.9890  0.5083
   20MOL   H124 6242   0.936   3.133   3.746  1.1445  1.2886  1.3665
   20MOL   H125 6243   1.220   2.906   3.883  0.1158 -0.2564 -0.7446
   20MOL   H126 6244   1.092   2.882   3.995 -0.0016 -0.3011 -1.1444
   20MOL   H127 6245   1.232   3.001   4.019  0.2719  2.1288 -1.6784
   20MOL   H128 6246   1.039   3.292   3.881  1.4977  1.2131  2.6863
   20MOL   H129 6247   1.153   3.229   4.010 -2.2017  0.9235  1.7267
   20MOL   C130 6248   0.865   2.954   3.810  0.0497  0.9917  0.2996
   20MOL   C131 6249   0.899   2.800   3.809 -0.3263 -0.3516 -0.5699
   20MOL   C132 6250   0.725   2.999   3.742  0.0313  0.0107 -0.1991
   20MOL   C133 6251   0.679   3.144   3.779 -1.2563  0.1540  0.4252
   20MOL   C134 6252   0.594   3.227   3.676 -0.3460  0.1028 -0.0109
   20MOL   C135 6253   0.696   3.195   3.905 -0.2069 -0.1037  0.7286
   20MOL   H136 6254   0.848   2.966   3.917 -1.3951 -2.1144  0.4701
   20MOL   H137 6255   1.003   2.773   3.825 -0.1772 -0.4494 -1.6881
   20MOL   H138 6256   0.875   2.752   3.714 -0.9490  1.3158 -1.2826
   20MOL   H139 6257   0.846   2.735   3.879  0.9303 -1.4756 -0.6531
   20MOL   H140 6258   0.735   3.002   3.634 -3.6084 -1.1263 -0.6458
   20MOL   H141 6259   0.492   3.190   3.669 -0.4727  0.4711 -0.1364
   20MOL   H142 6260   0.637   3.214   3.576  0.0519 -3.8423  0.6183
   20MOL   H143 6261   0.580   3.330   3.708  1.2157  0.0098  1.0394
   20MOL   H144 6262   0.742   3.145   3.989  0.7777 -1.2657 -0.4889
   20MOL   H145 6263   0.664   3.297   3.921 -0.5266 -0.2078  0.7566
   20MOL   C146 6264   0.608   2.898   3.764 -0.4319 -0.3727  0.0005
   20MOL   C147 6265   0.585   2.873   3.917  0.1609  0.0466  0.2173
   20MOL   C148 6266   0.592   2.773   3.677 -0.7092 -0.6180  0.2001
   20MOL   C149 6267   0.641   2.791   3.533  0.1711  0.3511  0.4817
   20MOL   C150 6268   0.570   2.894   3.445 -0.0855  0.1285 -0.1416
   20MOL   C151 6269   0.739   2.712   3.482  0.2863 -0.4827 -0.2791
   20MOL   H152 6270   0.519   2.954   3.736 -1.8480 -2.0767  0.9638
   20MOL   H153 6271   0.652   2.936   3.976  1.7632  0.6272 -2.1626
   20MOL   H154 6272   0.609   2.769   3.939 -3.0567 -1.2820 -2.0942
   20MOL   H155 6273   0.485   2.903   3.949  0.1735  0.0284  0.2739
   20MOL   H156 6274   0.667   2.703   3.715 -0.0949 -0.1767 -0.1908
   20MOL   H157 6275   0.563   2.984   3.505  1.4423  0.0771  0.1318
   20MOL   H158 6276   0.475   2.856   3.407 -0.4479 -1.2396  2.0148
   20MOL   H159 6277   0.622   2.929   3.356  0.5934 -1.2462 -0.3083
   20MOL   H160 6278   0.794   2.643   3.545  0.5288 -2.6061 -2.7098
   20MOL   H161 6279   0.776   2.722   3.381  0.6945 -0.4391 -0.1244
   20MOL   C162 6280   0.447   2.701   3.670 -0.4946  0.0475  0.1792
   20MOL   C163 6281   0.345   2.719   3.783  0.2033 -0.0403  0.2971
   20MOL   C164 6282   0.453   2.546   3.619 -0.2005  0.3583 -0.1164
   20MOL   C165 6283   0.330   2.514   3.543  0.4600 -0.2098  0.3615
   20MOL   C166 6284   0.324   2.559   3.400  0.3048  0.0665 -0.3680
   20MOL   C167 6285   0.219   2.464   3.602 -0.0248 -0.1369  0.2511
   20MOL   H168 6286   0.389   2.750   3.592  0.1812  0.8093  0.1586
   20MOL   H169 6287   0.380   2.688   3.882 -1.0290 -0.2401  0.6771
   20MOL   H170 6288   0.250   2.667   3.770  0.6400 -1.5198  2.6819
   20MOL   H171 6289   0.321   2.825   3.791  0.4072 -0.0295  0.7844
   20MOL   H172 6290   0.529   2.536   3.542  0.0008 -1.0748  0.2468
   20MOL   H173 6291   0.245   2.510   3.343 -0.1107  0.7241 -0.3705
   20MOL   H174 6292   0.425   2.546   3.360  0.0023  0.4366 -1.2826
   20MOL   H175 6293   0.311   2.667   3.409  1.8749  0.2163  0.3317
   20MOL   H176 6294   0.212   2.430   3.705  0.0829 -2.5103 -0.5049
   20MOL   H177 6295   0.123   2.457   3.552  1.2101  3.0022 -2.8024
   20MOL   C178 6296   0.484   2.443   3.731 -0.7941  0.6126  0.9141
   20MOL   C179 6297   0.588   2.485   3.836  0.1979 -0.3155 -0.0249
   20MOL   C180 6298   0.499   2.290   3.684  0.4376 -0.1392  0.5470
   20MOL   C181 6299   0.422   2.189   3.765 -0.0485  0.0889  0.0082
   20MOL   C182 6300   0.461   2.169   3.909  0.0248  0.4597 -0.6717
   20MOL   C183 6301   0.318   2.118   3.718  0.0484  0.0988 -0.0811
   20MOL   H184 6302   0.390   2.448   3.785 -0.4815 -2.5559  1.8899
   20MOL   H185 6303   0.563   2.576   3.891  1.8157 -0.7699  1.5002
   20MOL   H186 6304   0.690   2.484   3.799  0.4472  1.2162  0.5731
   20MOL   H187 6305   0.587   2.413   3.917  1.4132 -3.5074 -2.7495
   20MOL   H188 6306   0.463   2.270   3.583 -1.6068  0.9069  1.0349
   20MOL   H189 6307   0.426   2.079   3.959 -0.8939  0.5432 -1.1513
   20MOL   H190 6308   0.434   2.257   3.968  0.6523  0.1259  0.1141
   20MOL   H191 6309   0.570   2.159   3.916 -0.2379 -1.7120  0.8147
   20MOL   H192 6310   0.293   2.128   3.613  1.5290 -1.6838 -0.6525
   20MOL   H193 6311   0.254   2.056   3.779 -1.8119  2.4637  0.4172
   20MOL   C194 6312   0.646   2.239   3.662  0.6644  0.5553  0.4780
   20MOL   C195 6313   0.720   2.336   3.565  0.0346  0.2179  0.1080
   20MOL   C196 6314   0.661   2.083   3.631 -0.0555  0.6430 -1.0016
   20MOL   C197 6315   0.775   2.025   3.718 -0.6812  0.1134  0.7183
   20MOL   C198 6316   0.916   2.071   3.680 -0.4606  0.3030 -0.4523
   20MOL   C199 6317   0.761   1.923   3.803  0.3113  0.6962  0.8649
   20MOL   H200 6318   0.697   2.249   3.759  3.1191 -0.6869 -0.6293
   20MOL   H201 6319   0.658   2.353   3.477  2.1661  1.6633 -1.1699
   20MOL   H202 6320   0.820   2.300   3.540  1.5284  2.9655  1.8217
   20MOL   H203 6321   0.742   2.436   3.602 -2.7393  0.8437  0.1261
   20MOL   H204 6322   0.577   2.026   3.671 -0.2486  0.1531 -2.0904
   20MOL   H205 6323   0.932   2.059   3.572 -0.4096 -1.3471 -0.2767
   20MOL   H206 6324   0.990   2.007   3.729 -0.5823  0.1607 -0.4550
   20MOL   H207 6325   0.932   2.176   3.704  0.6698 -0.6472  3.2776
   20MOL   H208 6326   0.669   1.873   3.828  1.2992 -1.8415 -0.3762
   20MOL   H209 6327   0.843   1.876   3.855 -1.9584 -3.6101  0.7603
   20MOL   C210 6328   0.651   2.034   3.482 -0.1451 -0.4237  0.5244
   20MOL   C211 6329   0.529   2.087   3.402 -0.1874  0.4626 -0.0056
   20MOL   C212 6330   0.702   1.886   3.452 -0.7235 -0.0684 -0.5726
   20MOL   C213 6331   0.790   1.889   3.324 -0.1516 -0.0586 -0.0085
   20MOL   C214 6332   0.735   1.915   3.190 -0.6619 -0.2872  0.0202
   20MOL   C215 6333   0.921   1.858   3.329 -0.1845  0.2094  0.1195
   20MOL   H216 6334   0.729   2.097   3.440  1.0426  0.2010  3.5037
   20MOL   H217 6335   0.532   2.194   3.381 -2.5250  0.9982  2.1316
   20MOL   H218 6336   0.440   2.070   3.462  0.9192 -2.1621  0.9408
   20MOL   H219 6337   0.508   2.036   3.309 -1.3515  1.6240 -0.3993
   20MOL   H220 6338   0.765   1.861   3.537  1.0035  1.7492 -1.2582
   20MOL   H221 6339   0.636   1.871   3.179 -0.5920 -0.5881  0.5802
   20MOL   H222 6340   0.794   1.865   3.112 -0.3560  1.4908 -0.9024
   20MOL   H223 6341   0.734   2.021   3.168 -1.6466 -0.1046  0.9537
   20MOL   H224 6342   0.967   1.841   3.425 -0.4960  0.1417  0.2568
   20MOL   H225 6343   0.993   1.842   3.249  1.1081 -1.4631  1.5638
   20MOL   C226 6344   0.589   1.781   3.451 -0.8051  0.5756  0.0006
   20MOL   C227 6345   0.492   1.784   3.567  0.0806  0.2742  0.7997
   20MOL   C228 6346   0.642   1.629   3.421  0.3115 -0.2771 -1.3183
   20MOL   C229 6347   0.588   1.584   3.295  0.1772 -0.4115  0.7255
   20MOL   C230 6348   0.439   1.543   3.288 -0.3239  0.2072  0.6230
   20MOL   C231 6349   0.666   1.576   3.184 -0.0230  0.4551  0.2101
   20MOL   H232 6350   0.523   1.817   3.373 -0.3322 -0.7176 -1.0082
   20MOL   H233 6351   0.536   1.791   3.667  2.1943  0.3441 -0.0997
   20MOL   H234 6352   0.422   1.701   3.561 -0.4800  0.8158 -0.3650
   20MOL   H235 6353   0.428   1.871   3.554 -0.1789 -0.0827 -0.3921
   20MOL   H236 6354   0.745   1.652   3.396 -0.1979  3.2893 -0.3194
   20MOL   H237 6355   0.381   1.612   3.350 -2.3115 -0.4065 -0.4794
   20MOL   H238 6356   0.426   1.441   3.324 -1.8649  0.1025 -0.1794
   20MOL   H239 6357   0.403   1.559   3.186  0.0575  0.8144  0.5795
   20MOL   H240 6358   0.763   1.622   3.192 -0.0225  0.5651 -0.3623
   20MOL   H241 6359   0.632   1.528   3.093 -1.5225 -2.2099  2.0954
   20MOL   C242 6360   0.646   1.515   3.531  0.1848  0.4308  0.1654
   20MOL   C243 6361   0.665   1.560   3.676  0.4392  0.2156  0.3250
   20MOL   C244 6362   0.731   1.392   3.498 -0.2552 -0.1759 -0.1814
   20MOL   C245 6363   0.659   1.261   3.534  0.3607 -0.1807  0.4776
   20MOL   C246 6364   0.633   1.220   3.677 -0.2411  0.1325  0.3629
   20MOL   C247 6365   0.616   1.181   3.430 -0.4997  0.9378  0.4669
   20MOL   H248 6366   0.541   1.488   3.525  0.3557  0.1264 -1.7698
   20MOL   H249 6367   0.692   1.476   3.740 -1.9752  0.1328  1.2986
   20MOL   H250 6368   0.570   1.586   3.723  0.5882  0.8664  0.2701
   20MOL   H251 6369   0.732   1.640   3.705  0.4162  0.9717 -1.5715
   20MOL   H252 6370   0.722   1.409   3.391  0.4402 -0.8150 -0.3350
   20MOL   H253 6371   0.542   1.271   3.707 -0.9461 -0.3240 -0.9433
   20MOL   H254 6372   0.714   1.236   3.748 -1.0377  0.6720  1.1558
   20MOL   H255 6373   0.605   1.115   3.681  0.0414  0.0601  0.4456
   20MOL   H256 6374   0.619   1.205   3.325 -0.7336 -0.2194  0.1870
   20MOL   H257 6375   0.581   1.080   3.447  0.8358  0.7920  2.6174
   20MOL   C258 6376   0.880   1.402   3.543 -0.2077  0.9249 -0.4632
   20MOL   C259 6377   0.959   1.534   3.521  0.1025  0.3236  0.1876
   20MOL   C260 6378   0.979   1.292   3.485 -0.7171  0.0884 -0.4820
   20MOL   C261 6379   1.000   1.303   3.328 -0.0452  0.2440  0.2523
   20MOL   C262 6380   0.897   1.229   3.236 -0.2474  0.0577  0.5452
   20MOL   C263 6381   1.095   1.382   3.273  0.0063 -0.5610 -0.3739
   20MOL   H264 6382   0.862   1.388   3.650  0.3307  0.7194 -0.3946
   20MOL   H265 6383   0.914   1.612   3.583  0.1969  1.6939 -1.4313
   20MOL   H266 6384   0.959   1.572   3.419  0.5294 -0.9903 -0.3130
   20MOL   H267 6385   1.060   1.521   3.560 -0.8371  1.4039  3.0986
   20MOL   H268 6386   1.083   1.319   3.507 -0.1186 -0.6217 -2.3675
   20MOL   H269 6387   0.813   1.297   3.231  0.1930  0.6802  1.4050
   20MOL   H270 6388   0.866   1.131   3.273  1.2617 -0.5629  0.2150
   20MOL   H271 6389   0.934   1.219   3.134 -0.4820 -0.9610  0.5471
   20MOL   H272 6390   1.160   1.443   3.333 -1.6882  3.0803 -2.1178
   20MOL   H273 6391   1.100   1.392   3.166  0.0214  2.1907 -0.1400
   20MOL   C274 6392   0.968   1.146   3.541 -0.0782  0.0564 -0.2928
   20MOL   C275 6393   0.992   1.131   3.692  0.8575  0.2188  0.1697
   20MOL   C276 6394   1.056   1.037   3.465 -0.1890  0.4851 -0.5728
   20MOL   C277 6395   0.989   0.899   3.455 -0.4956  0.2876  0.0638
   20MOL   C278 6396   0.915   0.866   3.325  0.5252  0.1630  0.2407
   20MOL   C279 6397   1.004   0.806   3.552  0.1667 -0.4080 -0.3174
   20MOL   H280 6398   0.866   1.119   3.514 -0.7072  0.4607  1.5931
   20MOL   H281 6399   0.970   1.029   3.724  0.1593  0.1419 -0.5351
   20MOL   H282 6400   0.920   1.198   3.741 -0.2377 -1.0612  0.3400
   20MOL   H283 6401   1.086   1.168   3.734  1.3516 -1.6725  0.7668
   20MOL   H284 6402   1.067   1.060   3.359 -0.5265  1.0195 -0.4938
   20MOL   H285 6403   0.976   0.904   3.243  1.1688  0.1820  0.7175
   20MOL   H286 6404   0.827   0.927   3.345 -0.1067 -0.8718  0.6086
   20MOL   H287 6405   0.892   0.761   3.309 -1.0517  0.4058  0.8629
   20MOL   H288 6406   1.062   0.827   3.640 -0.0948 -1.3515  0.0888
   20MOL   H289 6407   0.954   0.713   3.531  0.2410 -0.3422 -0.7934
   20MOL   C290 6408   1.208   1.026   3.504 -0.2028  0.3408 -0.2629
   20MOL   C291 6409   1.281   1.159   3.522 -0.2042 -0.0400 -0.0765
   20MOL   C292 6410   1.286   0.930   3.405 -0.6716  0.0301 -0.0636
   20MOL   C293 6411   1.395   0.837   3.460 -0.2594  0.0012  0.9555
   20MOL   C294 6412   1.448   0.720   3.375 -0.0796  0.8645 -0.4139
   20MOL   C295 6413   1.455   0.852   3.575  0.0936 -0.1030  0.2779
   20MOL   H296 6414   1.210   0.970   3.597  0.9880 -1.5207 -1.3756
   20MOL   H297 6415   1.390   1.156   3.533 -0.2454 -1.3340  0.0455
   20MOL   H298 6416   1.239   1.216   3.606 -0.2969  1.4294 -1.0992
   20MOL   H299 6417   1.259   1.221   3.436  1.5918 -0.5029 -0.8892
   20MOL   H300 6418   1.214   0.852   3.380  1.4167 -1.8616 -0.4694
   20MOL   H301 6419   1.364   0.668   3.328  0.3984 -0.3218  0.0436
   20MOL   H302 6420   1.491   0.647   3.443  0.6509  1.4907 -0.2018
   20MOL   H303 6421   1.521   0.756   3.303  1.3348 -1.4949 -0.1807
   20MOL   H304 6422   1.427   0.938   3.634  1.4813 -0.2860  1.2490
   20MOL   H305 6423   1.539   0.793   3.609 -0.4229 -0.7739  0.3983
   20MOL   C306 6424   1.319   1.006   3.269  0.2527  0.4669 -0.4880
   20MOL   C307 6425   1.288   0.916   3.144 -0.2213 -0.4521 -0.1251
   20MOL   C308 6426   1.469   1.055   3.262  0.1731 -0.5752 -0.1727
   20MOL   C309 6427   1.513   1.128   3.134  1.2634 -0.4826  0.1234
   20MOL   C310 6428   1.421   1.240   3.098  0.2960 -0.4113 -0.1696
   20MOL   C311 6429   1.614   1.086   3.062 -0.1973 -0.3447 -0.0765
   20MOL   H312 6430   1.262   1.098   3.261  0.4662  0.8151  1.7314
   20MOL   H313 6431   1.181   0.895   3.148  0.0664 -1.7155  1.4082
   20MOL   H314 6432   1.334   0.818   3.129  1.0471  0.0313  0.4946
   20MOL   H315 6433   1.310   0.978   3.058 -0.5377  3.4002  2.4685
   20MOL   H316 6434   1.493   1.126   3.341  0.5871 -0.2112 -0.6255
   20MOL   H317 6435   1.322   1.204   3.071  0.0378 -1.7391  2.4307
   20MOL   H318 6436   1.449   1.296   3.009 -0.0135 -0.2643 -0.1721
   20MOL   H319 6437   1.406   1.300   3.188 -0.7130 -1.2415  0.2242
   20MOL   H320 6438   1.667   0.993   3.082 -0.5084 -0.4671  0.1900
   20MOL   H321 6439   1.630   1.141   2.971  0.3565  1.3275  1.0191
   20MOL   H322 6440   1.543   0.982   3.293  0.7673  0.7012  1.4841
   21MOL     C1 6441   7.289   4.937   6.671 -0.5454  0.4234 -0.0149
   21MOL     C2 6442   7.294   4.818   6.573 -0.2834 -0.1197  0.2766
   21MOL     C3 6443   7.241   5.071   6.619  0.2994 -0.0592 -0.2068
   21MOL     C4 6444   7.087   5.076   6.627  0.2679 -0.1899  0.2524
   21MOL     C5 6445   7.005   5.024   6.509 -0.0482 -0.3625 -0.3650
   21MOL     C6 6446   7.009   5.134   6.726 -0.1305  0.2817  0.0736
   21MOL     H7 6447   7.237   4.916   6.765  0.4219 -1.3299  0.1554
   21MOL     H8 6448   7.197   4.803   6.526 -0.6272 -0.1315  0.9860
   21MOL     H9 6449   7.336   4.725   6.612  2.0769  0.5523 -0.5641
   21MOL    H10 6450   7.359   4.832   6.486  1.5352 -0.4180  1.5643
   21MOL    H11 6451   7.270   5.149   6.690 -0.2389  0.2070 -0.2773
   21MOL    H12 6452   6.926   5.092   6.476 -1.1543 -0.0697  2.6745
   21MOL    H13 6453   6.966   4.925   6.529 -0.3160  0.0931  1.4720
   21MOL    H14 6454   7.068   5.014   6.420 -0.3249 -1.6611 -0.4139
   21MOL    H15 6455   7.049   5.186   6.812 -0.0779  0.8138 -0.2679
   21MOL    H16 6456   6.903   5.125   6.713 -0.2019  1.8263 -0.5235
   21MOL    H17 6457   7.390   4.948   6.710  0.2990  2.0024 -2.5395
   21MOL    C18 6458   7.311   5.124   6.487  0.4691  0.8201  0.0871
   21MOL    C19 6459   7.467   5.121   6.494 -0.3394  0.2613 -0.5624
   21MOL    C20 6460   7.255   5.251   6.431  0.1629 -0.3319 -1.0393
   21MOL    C21 6461   7.252   5.237   6.281 -0.2951  0.1173  0.6955
   21MOL    C22 6462   7.383   5.211   6.209  0.8576 -0.2164 -0.6914
   21MOL    C23 6463   7.140   5.231   6.208  0.4442 -0.7994  0.2188
   21MOL    H24 6464   7.277   5.043   6.422  1.2617  0.3970  0.1808
   21MOL    H25 6465   7.497   5.149   6.595 -1.7211  0.7321 -0.2706
   21MOL    H26 6466   7.509   5.202   6.435 -0.8615  1.0635  0.1484
   21MOL    H27 6467   7.511   5.024   6.472  0.6982  0.7044 -0.4318
   21MOL    H28 6468   7.150   5.251   6.460  0.7266  2.1213  1.2297
   21MOL    H29 6469   7.363   5.214   6.102  0.5154 -0.8939 -0.6532
   21MOL    H30 6470   7.415   5.109   6.230  1.0611 -0.0309 -0.1088
   21MOL    H31 6471   7.463   5.282   6.228 -0.1502  1.0851 -1.1554
   21MOL    H32 6472   7.046   5.246   6.259  1.6144 -3.6416  3.4281
   21MOL    H33 6473   7.148   5.230   6.101  0.9444  1.1566  0.2151
   21MOL    C34 6474   7.315   5.385   6.475  0.3735 -0.4283  0.1036
   21MOL    C35 6475   7.341   5.407   6.628  0.0952  0.6034 -0.2859
   21MOL    C36 6476   7.252   5.514   6.400  0.1043  0.2873 -0.4154
   21MOL    C37 6477   7.376   5.606   6.386 -0.4772  0.0602  0.3500
   21MOL    C38 6478   7.437   5.591   6.247 -0.5146 -0.3481 -0.5457
   21MOL    C39 6479   7.430   5.692   6.479 -0.2178 -0.9566 -0.1032
   21MOL    H40 6480   7.419   5.380   6.442  0.7140  0.9201  0.9088
   21MOL    H41 6481   7.413   5.488   6.639  0.0901  0.0502  4.7254
   21MOL    H42 6482   7.381   5.315   6.669 -1.0632  0.7770  1.3021
   21MOL    H43 6483   7.247   5.421   6.681 -2.2813 -1.5252 -3.7123
   21MOL    H44 6484   7.215   5.483   6.302 -1.5157  0.9186 -0.0330
   21MOL    H45 6485   7.449   5.484   6.229 -2.2987 -0.5141 -0.9079
   21MOL    H46 6486   7.538   5.630   6.246 -0.1273 -1.1076  2.8370
   21MOL    H47 6487   7.373   5.628   6.167  0.5819  1.4176 -0.6174
   21MOL    H48 6488   7.384   5.700   6.576 -1.3078 -0.5530 -0.6402
   21MOL    H49 6489   7.511   5.761   6.454  0.2093 -1.0774  0.9303
   21MOL    C50 6490   7.134   5.586   6.470  0.3468 -0.2540 -0.1447
   21MOL    C51 6491   7.018   5.491   6.496  0.3574  0.0168 -0.1951
   21MOL    C52 6492   7.085   5.718   6.404 -0.7808  0.1373  0.1175
   21MOL    C53 6493   7.073   5.827   6.512 -0.7054 -0.3815 -0.1455
   21MOL    C54 6494   6.965   5.812   6.617  0.4715  0.1302 -0.1277
   21MOL    C55 6495   7.163   5.927   6.516  0.1229  0.2265  0.0505
   21MOL    H56 6496   7.181   5.612   6.565 -0.1992  0.2390 -0.0144
   21MOL    H57 6497   7.040   5.409   6.565  0.7443 -0.9081 -1.4114
   21MOL    H58 6498   6.984   5.444   6.404  0.1536 -0.0541 -0.0861
   21MOL    H59 6499   6.931   5.544   6.535  1.0120 -0.0332  1.3660
   21MOL    H60 6500   7.162   5.749   6.334 -0.2060 -2.7109 -0.5676
   21MOL    H61 6501   6.955   5.889   6.693  0.1326  0.5951 -0.6457
   21MOL    H62 6502   6.977   5.721   6.676  0.0527  0.9205  1.1923
   21MOL    H63 6503   6.870   5.818   6.564  0.2734 -2.5801 -0.1784
   21MOL    H64 6504   7.245   5.934   6.446 -2.2585 -2.3494 -3.1878
   21MOL    H65 6505   7.144   6.000   6.593  0.6101 -0.1971  0.5828
   21MOL    C66 6506   6.974   5.701   6.295  0.3083 -0.4326 -0.5886
   21MOL    C67 6507   7.007   5.608   6.174 -0.0218  0.4117 -0.7083
   21MOL    C68 6508   6.892   5.824   6.251  0.0060 -0.2204  0.8742
   21MOL    C69 6509   6.749   5.778   6.233 -0.3861 -0.6808 -0.3004
   21MOL    C70 6510   6.664   5.783   6.362  0.0112 -0.5688  0.2835
   21MOL    C71 6511   6.702   5.733   6.114  0.7571  0.8164  0.5224
   21MOL    H72 6512   6.898   5.640   6.344  0.4074 -1.5989 -1.8640
   21MOL    H73 6513   6.931   5.579   6.101 -1.1771  1.5957 -0.0030
   21MOL    H74 6514   7.037   5.508   6.206 -0.0187  0.9074  0.8792
   21MOL    H75 6515   7.095   5.651   6.128  0.4818  0.5976  0.4249
   21MOL    H76 6516   6.886   5.900   6.330  1.3947  1.1159 -0.2826
   21MOL    H77 6517   6.675   5.867   6.431  2.0479 -0.8603  0.3666
   21MOL    H78 6518   6.664   5.686   6.412  1.5646 -0.0925  1.2621
   21MOL    H79 6519   6.559   5.774   6.335 -0.1476 -0.7308  0.9364
   21MOL    H80 6520   6.752   5.722   6.019 -1.0635  0.5454 -0.4360
   21MOL    H81 6521   6.602   5.692   6.114  1.0075  0.1697  1.7344
   21MOL    C82 6522   6.949   5.899   6.121  0.7358 -0.0826  0.0044
   21MOL    C83 6523   7.085   5.961   6.147  0.8974 -0.0049  0.2853
   21MOL    C84 6524   6.854   6.007   6.057  0.4044  0.4456  0.4877
   21MOL    C85 6525   6.899   6.016   5.912  0.2133  0.5997 -0.8867
   21MOL    C86 6526   6.840   5.912   5.822 -0.2750 -0.2611 -0.1685
   21MOL    C87 6527   6.981   6.109   5.859 -0.6887 -0.6922 -0.2497
   21MOL    H88 6528   6.956   5.822   6.044 -0.0041 -2.2182  2.0490
   21MOL    H89 6529   7.085   6.026   6.235  0.2360  0.3071  0.0581
   21MOL    H90 6530   7.115   6.020   6.061 -1.6495  0.9245 -0.0226
   21MOL    H91 6531   7.167   5.892   6.168  0.5743 -0.8696 -1.2577
   21MOL    H92 6532   6.752   5.967   6.056  0.4540  0.3037 -1.1445
   21MOL    H93 6533   6.732   5.914   5.815 -0.3764  2.5945  1.5581
   21MOL    H94 6534   6.864   5.808   5.845  0.1013 -0.5912 -1.9330
   21MOL    H95 6535   6.877   5.928   5.721  0.0351 -0.6712 -0.1223
   21MOL    H96 6536   7.021   6.188   5.920 -1.6598 -0.2332 -0.2013
   21MOL    H97 6537   7.004   6.102   5.754  0.1531 -1.6449 -0.0095
   21MOL    C98 6538   6.829   6.143   6.115 -0.1204  0.1590  0.0294
   21MOL    C99 6539   6.819   6.152   6.271  0.3673 -0.1731  0.2099
   21MOL   C100 6540   6.717   6.222   6.030 -0.1831 -0.2842  0.5782
   21MOL   C101 6541   6.769   6.365   5.995  0.0690  0.3090 -0.6329
   21MOL   C102 6542   6.803   6.395   5.856 -0.1215  0.1507  0.3276
   21MOL   C103 6543   6.782   6.454   6.097 -0.1508  0.0065  0.5156
   21MOL   H104 6544   6.918   6.205   6.103 -0.9882  1.3485 -0.4397
   21MOL   H105 6545   6.752   6.081   6.319  0.3746 -0.2411  0.1170
   21MOL   H106 6546   6.792   6.250   6.312  1.8127 -0.7690  2.7112
   21MOL   H107 6547   6.920   6.134   6.309  0.7198 -1.7971 -1.4300
   21MOL   H108 6548   6.711   6.177   5.932  1.3469  1.0693 -0.1620
   21MOL   H109 6549   6.808   6.313   5.784  0.1300  0.5959 -0.1683
   21MOL   H110 6550   6.906   6.429   5.851 -0.0791  0.2619  1.8588
   21MOL   H111 6551   6.726   6.458   5.811  1.0521  2.0670  0.9622
   21MOL   H112 6552   6.751   6.428   6.197 -0.8713 -1.6654 -0.1340
   21MOL   H113 6553   6.830   6.550   6.082 -0.8426  0.3493  0.4613
   21MOL   C114 6554   6.567   6.220   6.072  0.4060 -0.5052  0.2122
   21MOL   C115 6555   6.523   6.080   6.113 -0.3725  0.4373  0.7747
   21MOL   C116 6556   6.470   6.281   5.962  0.3910 -0.8064  0.1004
   21MOL   C117 6557   6.365   6.366   6.034 -0.1678  0.3156 -0.4329
   21MOL   C118 6558   6.403   6.511   6.040 -0.1694  0.1284 -0.3706
   21MOL   C119 6559   6.262   6.307   6.099  0.1620 -0.6999 -0.2943
   21MOL   H120 6560   6.566   6.275   6.166  1.0503 -1.2740  0.6791
   21MOL   H121 6561   6.523   6.018   6.024  1.9058  1.5113 -0.0095
   21MOL   H122 6562   6.422   6.083   6.155 -1.3341 -1.3459 -1.3105
   21MOL   H123 6563   6.585   6.037   6.191 -0.8426  0.1326  0.9852
   21MOL   H124 6564   6.531   6.349   5.903 -1.9271 -0.3371 -1.7947
   21MOL   H125 6565   6.309   6.563   6.025  0.1346  0.2452 -2.0286
   21MOL   H126 6566   6.481   6.543   5.971  0.3070 -0.4751 -0.1132
   21MOL   H127 6567   6.441   6.527   6.141 -0.9147 -0.1071 -0.0517
   21MOL   H128 6568   6.242   6.201   6.092  2.4403 -1.1882  0.3988
   21MOL   H129 6569   6.200   6.362   6.169 -0.1359 -2.7267  1.0765
   21MOL   C130 6570   6.396   6.181   5.857  0.1840 -0.3851 -0.9706
   21MOL   C131 6571   6.493   6.105   5.766 -0.2663 -0.3614 -0.3298
   21MOL   C132 6572   6.272   6.241   5.774 -0.3235 -0.6736  1.0311
   21MOL   C133 6573   6.169   6.133   5.751  0.1291  0.3575 -0.0148
   21MOL   C134 6574   6.057   6.113   5.850  0.4334  0.0607 -0.8074
   21MOL   C135 6575   6.172   6.052   5.644  0.0634  0.1138 -0.5056
   21MOL   H136 6576   6.346   6.114   5.927 -0.7111  0.0983 -1.1461
   21MOL   H137 6577   6.454   6.066   5.672  0.4841 -3.6723  0.6809
   21MOL   H138 6578   6.534   6.019   5.819 -0.3823 -0.3938 -0.2927
   21MOL   H139 6579   6.574   6.169   5.732  0.4210 -2.6110 -3.1457
   21MOL   H140 6580   6.220   6.315   5.835  1.4066  2.1294 -0.7526
   21MOL   H141 6581   5.999   6.202   5.874 -0.0604 -1.0059  2.2877
   21MOL   H142 6582   6.094   6.074   5.945 -2.5642 -0.9130  0.0146
   21MOL   H143 6583   5.994   6.032   5.815  0.3251 -0.8173  1.3198
   21MOL   H144 6584   6.255   6.050   5.575  1.1531 -1.3900  0.7764
   21MOL   H145 6585   6.096   5.977   5.627  2.0010 -1.6962 -1.4906
   21MOL   C146 6586   6.302   6.333   5.644  0.6608  0.5773 -0.0839
   21MOL   C147 6587   6.422   6.431   5.651  0.8377  0.0374  0.3995
   21MOL   C148 6588   6.168   6.393   5.584 -0.1723 -0.1630 -0.3763
   21MOL   C149 6589   6.160   6.363   5.431  0.2380  0.3693  0.8500
   21MOL   C150 6590   6.270   6.423   5.340  0.1595 -0.4414 -0.2229
   21MOL   C151 6591   6.080   6.268   5.380 -0.1101  0.9658 -0.6874
   21MOL   H152 6592   6.349   6.258   5.580  0.0843  0.9935 -1.0090
   21MOL   H153 6593   6.410   6.502   5.733 -0.6063  0.8699 -0.5049
   21MOL   H154 6594   6.453   6.487   5.564 -1.7140 -1.4148 -1.5125
   21MOL   H155 6595   6.515   6.387   5.686  1.0542 -1.8970 -2.4528
   21MOL   H156 6596   6.081   6.342   5.624  0.9471  0.5502  3.1309
   21MOL   H157 6597   6.266   6.407   5.232  0.3870 -3.3274  0.1550
   21MOL   H158 6598   6.355   6.371   5.385 -1.0799 -2.2101  0.1313
   21MOL   H159 6599   6.278   6.531   5.351  0.4272 -0.3576 -1.1734
   21MOL   H160 6600   6.024   6.218   5.457 -0.1340  2.3277  0.1969
   21MOL   H161 6601   6.087   6.228   5.280  1.0735 -0.7630  0.0664
   21MOL   C162 6602   6.133   6.541   5.629 -0.5015 -0.1270  0.3841
   21MOL   C163 6603   6.120   6.553   5.784  0.5965  0.1926  0.2869
   21MOL   C164 6604   6.020   6.621   5.551 -0.8137  0.4306  0.0960
   21MOL   C165 6605   6.060   6.771   5.540 -0.1548 -0.7112 -0.0162
   21MOL   C166 6606   6.138   6.803   5.414  0.5846  0.4172 -0.3214
   21MOL   C167 6607   6.030   6.861   5.633  0.6724 -0.3831  0.6172
   21MOL   H168 6608   6.218   6.604   5.605  0.5780 -1.3929  0.8214
   21MOL   H169 6609   6.086   6.650   5.820 -1.9114 -0.1887 -0.9230
   21MOL   H170 6610   6.218   6.544   5.831  0.2328  0.1718  1.0614
   21MOL   H171 6611   6.054   6.475   5.823 -1.4687  1.6511 -0.2215
   21MOL   H172 6612   6.026   6.572   5.454 -0.1079 -1.0988  0.8753
   21MOL   H173 6613   6.229   6.747   5.390  2.1366  2.1885  1.2366
   21MOL   H174 6614   6.162   6.909   5.406  2.8346 -0.0319 -0.0306
   21MOL   H175 6615   6.082   6.788   5.322 -0.3637 -2.2636  0.6260
   21MOL   H176 6616   5.974   6.831   5.721 -2.5063  2.5147 -0.3076
   21MOL   H177 6617   6.063   6.964   5.628 -3.3311  0.9460 -0.1055
   21MOL   C178 6618   5.870   6.589   5.590  0.3270  0.3605 -0.0345
   21MOL   C179 6619   5.829   6.439   5.600  0.3307  0.1015 -0.2543
   21MOL   C180 6620   5.763   6.670   5.502 -0.0694 -0.2781 -0.4622
   21MOL   C181 6621   5.637   6.686   5.590 -0.1215  0.8218  0.0980
   21MOL   C182 6622   5.650   6.791   5.698  0.2144 -0.8001 -0.0844
   21MOL   C183 6623   5.529   6.611   5.578  0.0662  0.1359 -0.0213
   21MOL   H184 6624   5.868   6.616   5.696  2.2526 -1.4998  0.5136
   21MOL   H185 6625   5.890   6.378   5.666  2.4273  0.5566 -1.7369
   21MOL   H186 6626   5.832   6.387   5.504 -2.8082 -0.4128 -0.1483
   21MOL   H187 6627   5.727   6.425   5.638  0.8450 -2.4207  0.2867
   21MOL   H188 6628   5.796   6.774   5.492 -3.7665  1.0675  0.6300
   21MOL   H189 6629   5.551   6.798   5.743  0.8612 -1.7133  1.4904
   21MOL   H190 6630   5.694   6.882   5.658 -1.8735 -0.1718 -1.0427
   21MOL   H191 6631   5.707   6.754   5.782  1.0350 -1.3265 -0.8754
   21MOL   H192 6632   5.518   6.528   5.510 -0.8311 -0.6330  1.0498
   21MOL   H193 6633   5.440   6.624   5.639  1.3809  1.3732  1.6988
   21MOL   C194 6634   5.735   6.618   5.354 -0.0113  0.0286  0.0889
   21MOL   C195 6635   5.860   6.593   5.266  0.3276  0.0966 -0.8527
   21MOL   C196 6636   5.629   6.699   5.268 -0.5444  0.7180 -0.1013
   21MOL   C197 6637   5.535   6.607   5.185  0.8866  0.2713 -0.0189
   21MOL   C198 6638   5.594   6.520   5.078  0.4254 -0.6373  0.7219
   21MOL   C199 6639   5.403   6.592   5.205 -0.4389 -0.0622 -0.5319
   21MOL   H200 6640   5.686   6.521   5.356 -1.6284  0.8382  2.4379
   21MOL   H201 6641   5.832   6.564   5.164 -1.4761 -1.6338  0.0846
   21MOL   H202 6642   5.917   6.505   5.294 -0.1093 -0.3078 -1.2141
   21MOL   H203 6643   5.932   6.674   5.255  1.4155 -0.6191  0.8893
   21MOL   H204 6644   5.560   6.739   5.342 -0.6489 -2.3139  1.4829
   21MOL   H205 6645   5.650   6.572   5.000 -0.6017  0.4795  0.7137
   21MOL   H206 6646   5.523   6.465   5.016  0.8983 -0.8305  0.3490
   21MOL   H207 6647   5.657   6.440   5.117  0.7381 -0.0968  1.3213
   21MOL   H208 6648   5.352   6.642   5.285  1.4320  0.8894  0.1040
   21MOL   H209 6649   5.342   6.520   5.153  1.2488 -0.8616 -1.4788
   21MOL   C210 6650   5.680   6.825   5.190  0.6922  0.0327  0.3016
   21MOL   C211 6651   5.789   6.913   5.257  0.9258 -0.1760 -0.1151
   21MOL   C212 6652   5.586   6.896   5.093 -0.2663 -0.3449 -0.2343
   21MOL   C213 6653   5.645   6.918   4.949 -0.4571  0.4063 -0.6229
   21MOL   C214 6654   5.774   7.001   4.930 -0.0473 -0.0787 -0.1855
   21MOL   C215 6655   5.576   6.866   4.842 -0.1162  0.9520 -0.2801
   21MOL   H216 6656   5.735   6.775   5.110  0.9860 -0.1849  0.6406
   21MOL   H217 6657   5.852   6.959   5.181 -0.7181 -1.5396 -2.3288
   21MOL   H218 6658   5.863   6.855   5.313  0.7942 -0.5568 -0.3382
   21MOL   H219 6659   5.759   6.998   5.318 -1.5762  0.1665 -1.7905
   21MOL   H220 6660   5.505   6.825   5.076  0.9077 -1.7978  0.2090
   21MOL   H221 6661   5.763   7.097   4.981  1.5284 -0.4163  0.8369
   21MOL   H222 6662   5.793   7.018   4.824  2.5260  1.9155  0.5263
   21MOL   H223 6663   5.867   6.959   4.970 -0.2529  1.4163  1.9823
   21MOL   H224 6664   5.487   6.804   4.844  0.7292 -0.2283  1.4816
   21MOL   H225 6665   5.620   6.884   4.745 -0.8943  0.8447 -0.6539
   21MOL   C226 6666   5.526   7.026   5.148  0.1894 -0.0272  0.3460
   21MOL   C227 6667   5.476   7.016   5.290  0.2670  0.4464 -0.3800
   21MOL   C228 6668   5.434   7.114   5.049 -0.1200  0.1746 -0.1457
   21MOL   C229 6669   5.476   7.266   5.052  0.0066  0.7286 -0.0312
   21MOL   C230 6670   5.410   7.359   5.155 -0.9684 -0.0248  0.1570
   21MOL   C231 6671   5.566   7.312   4.958 -0.3809 -0.5689  0.2433
   21MOL   H232 6672   5.615   7.086   5.171  0.2078  1.7197 -3.8049
   21MOL   H233 6673   5.406   6.934   5.302  0.9838 -0.2290 -0.7632
   21MOL   H234 6674   5.432   7.108   5.330  2.2829  1.0713  0.4944
   21MOL   H235 6675   5.551   6.986   5.364 -0.7179  0.2006  0.5313
   21MOL   H236 6676   5.459   7.095   4.944 -0.1371 -1.4113  0.1274
   21MOL   H237 6677   5.408   7.316   5.255 -3.5429  0.0012  0.1453
   21MOL   H238 6678   5.311   7.398   5.133 -1.1333 -1.3324 -1.4940
   21MOL   H239 6679   5.485   7.437   5.166 -1.0784 -0.0159  0.8462
   21MOL   H240 6680   5.613   7.250   4.883 -1.2690 -1.4828  0.4277
   21MOL   H241 6681   5.599   7.414   4.963 -0.5711 -0.5402  1.0090
   21MOL   C242 6682   5.281   7.082   5.034 -0.1516  0.1324 -0.1174
   21MOL   C243 6683   5.243   6.934   5.021  0.0793  0.0462 -0.4792
   21MOL   C244 6684   5.198   7.166   4.927  0.3338  0.1294  0.0390
   21MOL   C245 6685   5.059   7.187   4.989 -0.3140 -0.1779  0.0499
   21MOL   C246 6686   5.043   7.283   5.101  0.8991 -0.6064  0.2632
   21MOL   C247 6687   4.949   7.128   4.940 -0.4992 -0.0810  0.2737
   21MOL   H248 6688   5.235   7.107   5.130  0.0247 -0.2024  0.0583
   21MOL   H249 6689   5.266   6.892   4.923 -1.0868  0.2310 -0.8431
   21MOL   H250 6690   5.134   6.933   5.023  0.0704  1.3893  0.1962
   21MOL   H251 6691   5.286   6.870   5.098 -0.4144  4.1619  3.4424
   21MOL   H252 6692   5.240   7.266   4.933  0.1184  0.2503 -0.4366
   21MOL   H253 6693   5.091   7.378   5.078 -2.4878  0.7784 -1.4634
   21MOL   H254 6694   5.088   7.238   5.189  0.2067 -1.3304  0.2511
   21MOL   H255 6695   4.941   7.313   5.125  1.7574  1.0661  1.9693
   21MOL   H256 6696   4.953   7.056   4.860 -1.3352 -1.2159  1.2304
   21MOL   H257 6697   4.848   7.155   4.969 -0.5921  0.7306 -0.7389
   21MOL   C258 6698   5.200   7.132   4.777 -0.1688  0.5625  0.4003
   21MOL   C259 6699   5.346   7.130   4.718  0.4472  0.2357  0.4062
   21MOL   C260 6700   5.100   7.221   4.686 -0.3956 -0.0271 -0.3847
   21MOL   C261 6701   5.024   7.145   4.582 -0.2682 -0.4476  0.3487
   21MOL   C262 6702   5.110   7.070   4.484 -0.2796  0.3706 -0.5816
   21MOL   C263 6703   4.891   7.135   4.585 -0.2321  0.0765 -0.4572
   21MOL   H264 6704   5.164   7.029   4.766  1.3388  0.2444 -2.0022
   21MOL   H265 6705   5.404   7.215   4.752 -2.2239  2.5207 -0.5265
   21MOL   H266 6706   5.345   7.120   4.609  0.5522  0.3795  0.3916
   21MOL   H267 6707   5.386   7.033   4.749 -1.6069 -0.8943 -0.3838
   21MOL   H268 6708   5.023   7.266   4.749 -0.7935 -0.3976 -0.6068
   21MOL   H269 6709   5.160   6.997   4.547  3.7892  2.4805 -1.1796
   21MOL   H270 6710   5.174   7.147   4.441 -0.3369 -0.0589 -1.4410
   21MOL   H271 6711   5.054   7.032   4.399  3.9250  0.4495 -3.5040
   21MOL   H272 6712   4.830   7.182   4.661 -0.4547 -2.7469  1.1570
   21MOL   H273 6713   4.837   7.085   4.506 -0.1868 -0.0737 -0.3909
   21MOL   C274 6714   5.161   7.362   4.623 -0.2656  0.4194  0.2923
   21MOL   C275 6715   5.214   7.455   4.734 -0.1562  0.0405  0.1189
   21MOL   C276 6716   5.070   7.444   4.516  0.2150  0.0931 -0.3153
   21MOL   C277 6717   5.166   7.506   4.412 -0.3226  0.0697 -0.2320
   21MOL   C278 6718   5.265   7.619   4.453 -0.1728  1.1572 -0.5237
   21MOL   C279 6719   5.170   7.468   4.285 -0.0811 -0.6824 -0.4885
   21MOL   H280 6720   5.249   7.336   4.565  0.2337  0.4685  1.0107
   21MOL   H281 6721   5.307   7.417   4.776  0.5873 -0.0585 -1.5800
   21MOL   H282 6722   5.138   7.455   4.813 -1.5194  0.2895 -1.1548
   21MOL   H283 6723   5.229   7.553   4.690  1.1572  0.1478  0.7967
   21MOL   H284 6724   5.001   7.384   4.458  0.5015  0.9182 -1.5171
   21MOL   H285 6725   5.347   7.577   4.512 -1.3782 -0.6700 -0.1048
   21MOL   H286 6726   5.210   7.687   4.519 -2.3619 -0.5227 -0.5678
   21MOL   H287 6727   5.294   7.675   4.364 -2.4921  0.6535 -1.6463
   21MOL   H288 6728   5.113   7.385   4.246  1.6661 -1.4016 -1.5802
   21MOL   H289 6729   5.249   7.509   4.223 -0.5954  0.3226 -0.4953
   21MOL   C290 6730   4.970   7.542   4.578 -0.0739  0.5267  0.6443
   21MOL   C291 6731   4.862   7.479   4.671 -0.0148  0.2100 -0.6480
   21MOL   C292 6732   4.906   7.648   4.479 -0.0987  0.5329 -0.3765
   21MOL   C293 6733   4.884   7.781   4.549  0.6845 -0.7259  0.8378
   21MOL   C294 6734   4.764   7.789   4.644 -0.0074 -0.4465 -0.0322
   21MOL   C295 6735   4.960   7.883   4.526  0.2845 -1.1668  0.0316
   21MOL   H296 6736   5.024   7.604   4.651  0.5182 -0.3768  0.9804
   21MOL   H297 6737   4.798   7.556   4.713  0.2300  1.1835 -2.0383
   21MOL   H298 6738   4.910   7.426   4.754  2.0021 -0.9195 -2.4724
   21MOL   H299 6739   4.802   7.401   4.625 -0.6606 -0.4772  1.2876
   21MOL   H300 6740   4.977   7.663   4.398  1.0591  0.1180  0.5507
   21MOL   H301 6741   4.796   7.768   4.746  1.1240 -0.5308 -0.4000
   21MOL   H302 6742   4.682   7.723   4.616 -2.0224  1.1622  1.8078
   21MOL   H303 6743   4.720   7.889   4.652  0.3587 -0.1145 -1.9936
   21MOL   H304 6744   5.046   7.883   4.459  0.8660 -1.0527  0.7758
   21MOL   H305 6745   4.940   0.080   4.581 -1.2927 -1.6270  0.2337
   21MOL   C306 6746   4.779   7.595   4.401 -0.0646  0.1431  0.4440
   21MOL   C307 6747   4.781   7.454   4.339 -0.5492 -0.4226 -0.2286
   21MOL   C308 6748   4.732   7.693   4.291 -0.6261 -0.7174  0.2148
   21MOL   C309 6749   4.585   7.691   4.242 -0.0641 -0.0654 -0.2392
   21MOL   C310 6750   4.561   7.798   4.139 -0.2407 -0.0921 -0.1681
   21MOL   C311 6751   4.489   7.609   4.292 -0.4234  0.1076  0.1394
   21MOL   H312 6752   4.691   7.587   4.465 -1.1642 -1.6541 -1.2257
   21MOL   H313 6753   4.882   7.439   4.300 -0.8419 -2.5805 -0.2054
   21MOL   H314 6754   4.710   7.434   4.259 -1.2130 -0.7974  0.4560
   21MOL   H315 6755   4.757   7.372   4.407 -3.1136  0.7594  0.3413
   21MOL   H316 6756   4.758   7.792   4.327  2.6144 -1.9996  1.5461
   21MOL   H317 6757   4.580   0.006   4.176  0.1125  1.0658 -3.3823
   21MOL   H318 6758   4.459   7.786   4.103  0.2331 -3.5151 -0.5481
   21MOL   H319 6759   4.628   7.799   4.054 -1.1910  2.1066 -0.9251
   21MOL   H320 6760   4.517   7.545   4.374  1.3811  1.9526  1.0105
   21MOL   H321 6761   4.390   7.601   4.251  0.0015 -1.9075 -0.5296
   21MOL   H322 6762   4.800   7.679   4.207 -1.0466  1.9280 -0.6216
   22MOL     C1 6763   6.168   3.380   4.721 -0.1254  0.3155 -0.1526
   22MOL     C2 6764   6.074   3.256   4.695  0.0024 -0.8231  0.0727
   22MOL     C3 6765   6.139   3.451   4.858 -0.3692  0.5547  0.8598
   22MOL     C4 6766   6.000   3.521   4.866 -0.9945  0.0313  0.4040
   22MOL     C5 6767   5.930   3.542   5.000 -0.0204  0.4257  0.0165
   22MOL     C6 6768   5.934   3.567   4.761  0.7243  1.0969 -0.9119
   22MOL     H7 6769   6.268   3.336   4.725  0.2539  1.0431 -1.5041
   22MOL     H8 6770   6.084   3.218   4.593  0.6678 -1.1391  0.2458
   22MOL     H9 6771   5.968   3.280   4.697  0.4024  0.9711  0.4857
   22MOL    H10 6772   6.085   3.176   4.769 -0.5328 -1.8715 -0.9629
   22MOL    H11 6773   6.122   3.371   4.929  0.7054  0.4783  1.0302
   22MOL    H12 6774   5.982   3.623   5.051 -0.5269  0.6432  0.1816
   22MOL    H13 6775   5.942   3.450   5.058 -2.0097 -1.2956 -2.1608
   22MOL    H14 6776   5.828   3.578   4.990  0.3854  1.2668 -1.2223
   22MOL    H15 6777   5.969   3.549   4.661 -1.6475 -0.2064 -1.5351
   22MOL    H16 6778   5.837   3.614   4.777 -0.3420 -1.6319  0.9757
   22MOL    H17 6779   6.167   3.450   4.638 -0.0004  0.7285  0.1937
   22MOL    C18 6780   6.254   3.549   4.903  0.4356  0.1140  0.6702
   22MOL    C19 6781   6.280   3.655   4.790  0.0252 -0.0113  0.2812
   22MOL    C20 6782   6.374   3.479   4.960 -0.5621  0.0235 -0.5317
   22MOL    C21 6783   6.347   3.355   5.054  0.5104  0.1321 -0.6028
   22MOL    C22 6784   6.274   3.383   5.184 -0.4731 -0.4112 -0.2624
   22MOL    C23 6785   6.379   3.230   5.007  0.7528 -0.5006  0.8278
   22MOL    H24 6786   6.198   3.589   4.987 -1.2895  0.9681 -0.8255
   22MOL    H25 6787   6.194   3.696   4.738  1.2330  1.7341 -0.4069
   22MOL    H26 6788   6.342   3.620   4.707 -0.3736  1.5264 -0.6798
   22MOL    H27 6789   6.331   3.739   4.836  0.4522 -0.9234  1.5074
   22MOL    H28 6790   6.415   3.435   4.869  0.5619 -1.3916  0.6459
   22MOL    H29 6791   6.340   3.432   5.255  0.5521 -1.9513 -0.1142
   22MOL    H30 6792   6.247   3.283   5.220 -0.5560 -0.4414 -0.4077
   22MOL    H31 6793   6.186   3.445   5.172 -0.7475 -1.0764 -1.8024
   22MOL    H32 6794   6.437   3.219   4.916 -2.1076 -2.4697 -0.8264
   22MOL    H33 6795   6.356   3.134   5.050  1.0214 -0.2501  1.5197
   22MOL    C34 6796   6.486   3.558   5.016 -0.2150  0.3855  0.2015
   22MOL    C35 6797   6.429   3.668   5.105 -0.6789  0.3746 -0.8120
   22MOL    C36 6798   6.591   3.606   4.902  0.0427 -0.1324 -0.3565
   22MOL    C37 6799   6.660   3.485   4.831  0.3189 -0.8859 -0.6837
   22MOL    C38 6800   6.678   3.505   4.686  0.0844 -0.1443  1.0019
   22MOL    C39 6801   6.700   3.366   4.882  0.3512 -0.0602 -0.3502
   22MOL    H40 6802   6.550   3.489   5.070 -0.2977 -1.2960 -1.8076
   22MOL    H41 6803   6.344   3.633   5.164 -0.1970  2.0838  0.9640
   22MOL    H42 6804   6.390   3.753   5.050 -1.3661 -0.6690 -1.9613
   22MOL    H43 6805   6.510   3.696   5.172 -0.9598 -1.3341  0.2940
   22MOL    H44 6806   6.533   3.650   4.821  0.4600  0.0408 -0.5682
   22MOL    H45 6807   6.746   3.588   4.666 -1.9310  1.4745  0.6743
   22MOL    H46 6808   6.579   3.518   4.642 -0.0358  0.2182  1.3796
   22MOL    H47 6809   6.732   3.432   4.627  1.2444 -0.5124  2.5082
   22MOL    H48 6810   6.696   3.345   4.988 -3.0240  0.5747 -0.3169
   22MOL    H49 6811   6.743   3.286   4.824  2.0532  0.9950 -0.5802
   22MOL    C50 6812   6.703   3.710   4.947  0.0679 -0.0044 -0.1023
   22MOL    C51 6813   6.788   3.651   5.068  0.6022 -0.1374  0.7316
   22MOL    C52 6814   6.658   3.862   4.964  0.1538  0.0569 -0.5365
   22MOL    C53 6815   6.604   3.914   4.833 -0.2690  0.5393 -1.0249
   22MOL    C54 6816   6.493   4.018   4.847 -0.2036 -0.4218 -0.0317
   22MOL    C55 6817   6.637   3.869   4.711 -0.1478  0.0327 -0.5076
   22MOL    H56 6818   6.771   3.725   4.864 -1.3396 -0.0758 -1.3003
   22MOL    H57 6819   6.722   3.643   5.155  1.4484  1.8758  1.5837
   22MOL    H58 6820   6.867   3.723   5.087 -1.4717  2.7964 -1.2668
   22MOL    H59 6821   6.822   3.550   5.049 -1.4607 -0.9227  0.9992
   22MOL    H60 6822   6.577   3.860   5.037  0.2927 -1.9048 -0.4002
   22MOL    H61 6823   6.403   3.977   4.893 -0.3133 -0.4952 -0.3112
   22MOL    H62 6824   6.467   4.056   4.749 -1.7510 -1.1263  0.0935
   22MOL    H63 6825   6.526   4.112   4.891 -1.9879  0.2820 -0.1741
   22MOL    H64 6826   6.701   3.786   4.685  0.8594  0.2703  1.1015
   22MOL    H65 6827   6.602   3.924   4.625 -0.9607  0.7505  0.2762
   22MOL    C66 6828   6.760   3.966   5.016 -0.0435 -0.0076 -0.5043
   22MOL    C67 6829   6.899   3.981   4.947 -0.0691  0.0844 -0.0876
   22MOL    C68 6830   6.769   3.973   5.179  0.8379  0.3786 -0.1015
   22MOL    C69 6831   6.638   3.982   5.259  0.1534 -0.3692 -0.6366
   22MOL    C70 6832   6.639   3.904   5.391  0.3437  0.5034  0.5342
   22MOL    C71 6833   6.528   4.051   5.217  0.5317  0.3702 -0.2741
   22MOL    H72 6834   6.710   4.060   4.993 -0.3308 -0.2732 -0.9841
   22MOL    H73 6835   6.969   3.899   4.967 -1.6352 -1.7670 -1.9398
   22MOL    H74 6836   6.946   4.078   4.964 -1.0720  0.5891 -0.1876
   22MOL    H75 6837   6.882   3.985   4.839 -0.5073 -0.2622 -0.0313
   22MOL    H76 6838   6.802   3.875   5.212  0.4860 -0.8700 -3.2347
   22MOL    H77 6839   6.701   3.965   5.458 -0.4001  1.3932  0.4246
   22MOL    H78 6840   6.665   3.799   5.384  1.7866  0.8570  0.4811
   22MOL    H79 6841   6.542   3.905   5.440  0.2193  0.8806  0.2816
   22MOL    H80 6842   6.530   4.099   5.119 -2.2964  1.0168 -0.0543
   22MOL    H81 6843   6.432   4.058   5.266  0.5386 -0.1752 -0.1843
   22MOL    C82 6844   6.866   4.075   5.240 -0.1841 -0.6200  0.1991
   22MOL    C83 6845   6.841   4.215   5.174 -0.4177  0.1313  0.0561
   22MOL    C84 6846   7.015   4.028   5.252  0.4441 -0.1097  0.5491
   22MOL    C85 6847   7.016   3.929   5.363  0.0410 -0.2266 -0.0337
   22MOL    C86 6848   6.997   3.987   5.509  0.3760 -0.4269  0.6050
   22MOL    C87 6849   7.004   3.793   5.349  0.5812  0.3999 -0.1343
   22MOL    H88 6850   6.830   4.092   5.341  0.3579 -3.0860  0.8412
   22MOL    H89 6851   6.901   4.288   5.229 -1.2433  0.5334  0.4236
   22MOL    H90 6852   6.735   4.232   5.191 -0.6687 -0.1588 -1.1732
   22MOL    H91 6853   6.877   4.219   5.071  2.5254  0.3479  1.0366
   22MOL    H92 6854   7.027   3.980   5.155 -1.9948  2.2333 -0.9962
   22MOL    H93 6855   7.075   3.946   5.573 -0.2391 -0.6235  1.2480
   22MOL    H94 6856   6.903   3.969   5.562 -0.1827 -1.6484 -0.7841
   22MOL    H95 6857   7.006   4.096   5.508  0.0477 -0.3764  1.8696
   22MOL    H96 6858   7.017   3.748   5.252  2.0513 -0.1924  0.3242
   22MOL    H97 6859   6.993   3.721   5.429  0.6109 -1.9383 -2.1701
   22MOL    C98 6860   7.130   4.140   5.255 -0.1399  0.0919 -0.4736
   22MOL    C99 6861   7.146   4.217   5.121  0.1497  0.2972 -0.2426
   22MOL   C100 6862   7.269   4.097   5.312 -0.0293  1.1047  0.2102
   22MOL   C101 6863   7.330   4.219   5.386  0.3133  0.3783 -0.0496
   22MOL   C102 6864   7.310   4.229   5.535 -0.8867 -0.8654  0.0551
   22MOL   C103 6865   7.403   4.313   5.323  0.1713  0.0163  0.0141
   22MOL   H104 6866   7.100   4.227   5.314  0.7164 -0.4099  0.7073
   22MOL   H105 6867   7.145   4.144   5.040  3.8987  1.7047 -1.6608
   22MOL   H106 6868   7.245   4.260   5.113  0.6600 -0.9272 -0.6233
   22MOL   H107 6869   7.077   4.301   5.110  0.0867  0.1276 -1.1844
   22MOL   H108 6870   7.242   4.023   5.388 -0.5346 -1.4901 -2.4242
   22MOL   H109 6871   7.380   4.302   5.576  0.7618 -1.9940 -0.6926
   22MOL   H110 6872   7.343   4.135   5.579 -1.7883 -1.0806  0.2800
   22MOL   H111 6873   7.203   4.237   5.555 -0.7693 -1.7802  1.1188
   22MOL   H112 6874   7.421   4.287   5.220 -0.8158 -0.9980  0.0831
   22MOL   H113 6875   7.443   4.401   5.372 -0.7244 -0.7280  2.1318
   22MOL   C114 6876   7.368   4.012   5.216 -0.2036  0.8611  0.6333
   22MOL   C115 6877   7.313   3.883   5.162 -0.0073 -0.1958  0.3237
   22MOL   C116 6878   7.519   3.997   5.270 -0.4599  0.7423 -0.5214
   22MOL   C117 6879   7.612   4.017   5.147 -0.2641 -0.0614  0.5364
   22MOL   C118 6880   7.636   4.155   5.092  0.1009 -0.3836 -0.0940
   22MOL   C119 6881   7.671   3.913   5.084 -0.3030  0.2451  0.3858
   22MOL   H120 6882   7.374   4.065   5.121 -0.8430 -1.8637 -0.9675
   22MOL   H121 6883   7.388   3.834   5.100  1.0727  1.9547 -0.1335
   22MOL   H122 6884   7.239   3.916   5.090  3.4996  3.4166 -1.7657
   22MOL   H123 6885   7.275   3.811   5.235  0.1017  0.7780  1.3576
   22MOL   H124 6886   7.539   4.079   5.339 -1.6835  1.9381 -1.5547
   22MOL   H125 6887   7.674   4.216   5.173 -1.9771  0.6255  0.1463
   22MOL   H126 6888   7.542   4.195   5.056  0.6389  0.3923 -0.6482
   22MOL   H127 6889   7.707   4.163   5.009 -0.3145 -0.6940 -0.4810
   22MOL   H128 6890   7.655   3.809   5.110  0.1295  0.1815  0.4055
   22MOL   H129 6891   7.742   3.920   5.003 -0.6576 -0.9969 -0.0415
   22MOL   C130 6892   7.554   3.871   5.358 -0.5341  0.5176  0.9089
   22MOL   C131 6893   7.447   3.849   5.470  0.4735 -1.1571 -0.4073
   22MOL   C132 6894   7.706   3.861   5.408  0.7122  0.0126  0.1275
   22MOL   C133 6895   7.771   3.738   5.348 -0.1107  0.8054  0.3019
   22MOL   C134 6896   0.026   3.747   5.316 -0.2756  0.6460 -0.1072
   22MOL   C135 6897   7.709   3.624   5.336 -0.1914  0.1501  0.4708
   22MOL   H136 6898   7.535   3.787   5.291  1.9616 -1.1156  2.1697
   22MOL   H137 6899   7.423   3.929   5.540  3.9622  0.4112 -0.9060
   22MOL   H138 6900   7.478   3.778   5.546  1.0284 -0.3554  0.1203
   22MOL   H139 6901   7.356   3.805   5.429  1.7399 -1.6712 -2.8034
   22MOL   H140 6902   7.755   3.936   5.346  0.2135 -0.7059 -1.1615
   22MOL   H141 6903   0.077   3.653   5.295 -1.4580  0.4864 -2.3475
   22MOL   H142 6904   0.075   3.805   5.395 -2.1026  0.7386  0.9882
   22MOL   H143 6905   0.038   3.804   5.225  0.5581  1.3109  0.4113
   22MOL   H144 6906   7.608   3.608   5.373  0.2195 -1.6098  0.8753
   22MOL   H145 6907   7.765   3.547   5.285  0.3487  1.8375 -1.5567
   22MOL   C146 6908   7.749   3.895   5.559 -0.1648  0.3231  0.1277
   22MOL   C147 6909   7.700   3.787   5.661  0.5750 -0.5059  0.5594
   22MOL   C148 6910   7.733   4.047   5.608 -0.5215 -0.5127  0.8591
   22MOL   C149 6911   7.783   4.155   5.510 -0.9602 -0.5331  0.3285
   22MOL   C150 6912   0.043   4.153   5.466  0.5426 -0.2792 -0.9562
   22MOL   C151 6913   7.705   4.260   5.467 -0.2878 -0.3448 -0.3931
   22MOL   H152 6914   7.854   3.868   5.557 -0.0658  0.8025 -1.2817
   22MOL   H153 6915   7.610   3.815   5.716  0.8835  1.1230  0.2352
   22MOL   H154 6916   7.774   3.760   5.736 -0.5253 -0.1907  1.7677
   22MOL   H155 6917   7.691   3.692   5.608  1.3712 -0.4544  0.3209
   22MOL   H156 6918   7.625   4.064   5.611 -0.8475 -2.2240 -0.6260
   22MOL   H157 6919   0.070   4.221   5.385  0.7447 -0.2565 -0.8678
   22MOL   H158 6920   0.073   4.049   5.450 -1.0629 -1.0487  0.8411
   22MOL   H159 6921   0.093   4.185   5.557  1.0679 -1.0976 -0.9511
   22MOL   H160 6922   7.600   4.260   5.492 -0.4443 -2.3182 -0.9979
   22MOL   H161 6923   7.740   4.338   5.401  2.4727 -2.3143 -1.3606
   22MOL   C162 6924   7.787   4.091   5.752 -0.2321  0.0105 -0.2809
   22MOL   C163 6925   0.025   4.018   5.779  0.5948  0.3283 -0.6526
   22MOL   C164 6926   7.689   4.081   5.867  0.1512  0.0850 -0.0881
   22MOL   C165 6927   7.551   4.160   5.840 -0.7320  0.2403  0.0211
   22MOL   C166 6928   7.417   4.089   5.867  0.2353 -0.0261  0.1537
   22MOL   C167 6929   7.551   4.284   5.792  0.2993  0.3234 -0.0694
   22MOL   H168 6930   7.810   4.196   5.739  1.0022 -0.3931 -1.4690
   22MOL   H169 6931   0.090   4.071   5.848  1.2403  0.1392 -1.1062
   22MOL   H170 6932   0.097   4.002   5.698  0.4108 -0.9767 -0.5774
   22MOL   H171 6933   0.002   3.925   5.831  2.5927 -0.6704 -1.4750
   22MOL   H172 6934   7.657   3.977   5.871 -0.5424  0.3849  2.7125
   22MOL   H173 6935   7.399   4.003   5.802 -0.4124 -0.1191  0.4525
   22MOL   H174 6936   7.333   4.156   5.854  0.3671  0.4922  1.8379
   22MOL   H175 6937   7.408   4.068   5.974  1.2125 -0.2766  0.1914
   22MOL   H176 6938   7.637   4.343   5.766  0.2055  0.2001 -0.6648
   22MOL   H177 6939   7.462   4.341   5.767  0.2481  0.0692 -0.4712
   22MOL   C178 6940   7.739   4.102   6.019 -0.1775  0.1982 -0.1154
   22MOL   C179 6941   7.834   4.229   6.030  0.4820  0.2184 -0.7257
   22MOL   C180 6942   7.804   3.976   6.079 -0.7656  0.0442 -0.4417
   22MOL   C181 6943   7.741   3.834   6.046 -0.5859 -0.8660 -0.4125
   22MOL   C182 6944   7.597   3.824   6.090  0.3115 -0.3632  0.1228
   22MOL   C183 6945   7.806   3.727   5.991  0.2413 -0.0539  0.1973
   22MOL   H184 6946   7.650   4.123   6.078  0.4695  0.2889  0.8355
   22MOL   H185 6947   7.848   4.264   6.133 -0.3294  1.6529 -1.0938
   22MOL   H186 6948   7.791   4.310   5.971  0.6380  0.3575 -0.6494
   22MOL   H187 6949   0.044   4.215   5.996  1.3862  2.4762  0.8933
   22MOL   H188 6950   0.011   3.959   6.039 -0.2927  0.2213  0.6261
   22MOL   H189 6951   7.530   3.905   6.063  0.8463  0.1432  0.2941
   22MOL   H190 6952   7.594   3.818   6.199 -0.8117 -1.8046  0.0317
   22MOL   H191 6953   7.561   3.730   6.049  1.3200 -0.0673 -1.4974
   22MOL   H192 6954   0.021   3.734   5.986  0.1741  0.4339 -0.7862
   22MOL   H193 6955   7.761   3.635   5.955  0.4492  0.8590 -2.5076
   22MOL   C194 6956   7.837   3.979   6.231 -0.0187 -0.7048  0.3221
   22MOL   C195 6957   7.726   4.052   6.307  0.5785 -0.3653 -0.9396
   22MOL   C196 6958   0.089   4.035   6.266 -0.0241  0.8396  0.6819
   22MOL   C197 6959   0.202   3.957   6.190 -0.3199 -0.7473  0.0225
   22MOL   C198 6960   0.317   4.043   6.143  0.4479 -0.5632  0.5839
   22MOL   C199 6961   0.207   3.828   6.169 -0.5557 -0.2298  0.3116
   22MOL   H200 6962   7.839   3.873   6.257  3.0911 -0.8822 -0.4576
   22MOL   H201 6963   7.707   4.006   6.404  0.2216 -1.7087 -1.6343
   22MOL   H202 6964   7.626   4.043   6.265  1.2199 -0.2138 -2.5272
   22MOL   H203 6965   7.748   4.152   6.344  4.5100 -1.5371  0.1027
   22MOL   H204 6966   0.097   4.138   6.229 -0.6537  0.6514  0.0034
   22MOL   H205 6967   0.265   4.126   6.095  2.5417  0.1970 -0.4078
   22MOL   H206 6968   0.381   3.986   6.076  1.2086  0.8514  0.0916
   22MOL   H207 6969   0.370   4.084   6.228 -2.2874  1.5393  1.3598
   22MOL   H208 6970   0.117   3.776   6.199 -0.7384  1.1538  2.1821
   22MOL   H209 6971   0.285   3.763   6.131  0.6252  1.5728 -0.4001
   22MOL   C210 6972   0.126   4.035   6.418  0.5268  0.7069  0.1160
   22MOL   C211 6973   0.067   3.909   6.495 -0.0523  0.5028 -0.2368
   22MOL   C212 6974   0.096   4.171   6.500 -0.1955 -0.1162 -0.3286
   22MOL   C213 6975   0.119   4.301   6.421 -0.6731  0.4528  0.0978
   22MOL   C214 6976   0.004   4.402   6.397  0.0293  0.2078  0.0369
   22MOL   C215 6977   0.249   4.329   6.385 -0.2719  0.2745  0.2273
   22MOL   H216 6978   0.234   4.018   6.420  0.2004 -1.4015  1.4208
   22MOL   H217 6979   7.851   3.910   6.506 -0.0884 -2.0895 -0.0859
   22MOL   H218 6980   0.111   3.884   6.591 -0.2891 -0.2073 -0.3127
   22MOL   H219 6981   0.083   3.819   6.435 -1.0112 -0.8078  1.4485
   22MOL   H220 6982   7.880   4.171   6.508 -0.2105  0.3675 -0.5317
   22MOL   H221 6983   0.034   4.470   6.316 -3.5546  1.2329 -0.4985
   22MOL   H222 6984   7.874   4.464   6.483 -2.8116 -0.4374 -0.1895
   22MOL   H223 6985   7.808   4.344   6.371  0.0699  0.8172 -1.5563
   22MOL   H224 6986   0.336   4.267   6.404  0.2108  1.5614  2.2628
   22MOL   H225 6987   0.266   4.425   6.338 -1.2050  1.9412  3.2175
   22MOL   C226 6988   0.151   4.180   6.647 -0.1314  0.0997 -0.4368
   22MOL   C227 6989   0.295   4.132   6.648  0.6772 -0.0412  0.0839
   22MOL   C228 6990   0.055   4.127   6.760 -0.3631 -0.2310  0.8368
   22MOL   C229 6991   7.804   4.187   6.757 -0.0445 -0.2368  0.9508
   22MOL   C230 6992   7.697   4.091   6.802 -0.1474  0.7499 -0.2829
   22MOL   C231 6993   7.765   4.308   6.717  0.0536 -0.0808  0.5153
   22MOL   H232 6994   0.163   4.287   6.664 -0.1082  0.1797 -0.9475
   22MOL   H233 6995   0.302   4.024   6.653 -0.9379 -0.1805 -0.4314
   22MOL   H234 6996   0.362   4.171   6.725 -1.1907 -3.3036  3.5395
   22MOL   H235 6997   0.353   4.159   6.560  2.3138 -0.6357  0.9471
   22MOL   H236 6998   0.039   4.023   6.731 -1.1884 -0.0262  0.5358
   22MOL   H237 6999   7.718   3.984   6.793 -2.2951  0.4631 -2.2896
   22MOL   H238 7000   7.597   4.110   6.763 -0.4134  0.0468  0.0430
   22MOL   H239 7001   7.691   4.101   6.911 -0.0913  0.2776 -0.2338
   22MOL   H240 7002   7.840   4.383   6.695  1.6813 -0.8037  3.3320
   22MOL   H241 7003   7.661   4.335   6.727 -0.0602  0.1096 -1.1309
   22MOL   C242 7004   0.107   4.145   6.905 -0.1019 -0.1918 -0.7421
   22MOL   C243 7005   0.129   4.291   6.942  0.4735  0.3166  0.1101
   22MOL   C244 7006   0.219   4.035   6.950  0.7799  0.7535  0.7506
   22MOL   C245 7007   0.170   3.891   6.920  0.1009  0.0212  0.5412
   22MOL   C246 7008   0.279   3.801   6.882 -0.4243  0.2581  0.0530
   22MOL   C247 7009   0.039   3.848   6.927  0.6021  0.2752  0.1693
   22MOL   H248 7010   0.022   4.126   6.970  0.0023 -0.1184 -0.5839
   22MOL   H249 7011   0.223   4.325   6.898  0.5571  2.8252  2.0867
   22MOL   H250 7012   0.125   4.322   7.047 -1.2249  0.2323  0.0799
   22MOL   H251 7013   0.051   4.353   6.898  0.6459  0.4143 -0.0610
   22MOL   H252 7014   0.306   4.045   6.886  1.6288 -3.6272  1.0187
   22MOL   H253 7015   0.247   3.699   6.906  0.7288 -0.5871 -1.8233
   22MOL   H254 7016   0.374   3.815   6.934 -0.9421 -1.2087  1.4311
   22MOL   H255 7017   0.306   3.782   6.778  1.1740  1.8966  0.1484
   22MOL   H256 7018   7.851   3.915   6.952 -0.9548 -1.8176  0.9171
   22MOL   H257 7019   0.006   3.749   6.899  1.4329 -0.7307  2.5123
   22MOL   C258 7020   0.276   4.041   7.099 -1.1769 -0.0742 -0.1804
   22MOL   C259 7021   0.158   4.054   7.207  0.4206 -0.2540 -0.5108
   22MOL   C260 7022   0.388   4.155   7.124  0.0371  0.2305 -0.7512
   22MOL   C261 7023   0.485   4.152   7.011 -0.4597  0.0871  0.4034
   22MOL   C262 7024   0.567   4.025   6.990 -0.0769  0.0067 -0.2879
   22MOL   C263 7025   0.510   4.265   6.943 -0.6799 -0.4363 -0.5141
   22MOL   H264 7026   0.325   3.945   7.112  0.7114  0.8129 -0.4746
   22MOL   H265 7027   0.076   3.988   7.178  0.1594 -0.2102  0.1120
   22MOL   H266 7028   0.134   4.160   7.217 -1.7553 -0.7846  0.0467
   22MOL   H267 7029   0.185   4.025   7.309 -0.2412 -2.2036 -0.8676
   22MOL   H268 7030   0.332   4.243   7.094  0.8232  0.7049 -0.8242
   22MOL   H269 7031   0.665   4.041   7.034 -1.0676 -0.8914  2.3617
   22MOL   H270 7032   0.585   4.009   6.884  3.4221 -0.6184  0.3517
   22MOL   H271 7033   0.523   3.937   7.037  2.9144 -2.5959 -2.1409
   22MOL   H272 7034   0.463   4.359   6.966 -0.4444 -0.5169  0.3081
   22MOL   H273 7035   0.575   4.253   6.858  0.1172  0.8908 -0.0992
   22MOL   C274 7036   0.452   4.162   7.267  0.3091  0.3338 -0.6297
   22MOL   C275 7037   0.469   4.027   7.336 -0.2265 -0.5139 -0.7494
   22MOL   C276 7038   0.377   4.269   7.361 -0.0968 -0.1716  0.9300
   22MOL   C277 7039   0.305   4.391   7.291  0.3821 -0.9576  0.4836
   22MOL   C278 7040   0.393   4.494   7.221 -0.0076  0.0534  0.0595
   22MOL   C279 7041   0.179   4.418   7.306  0.4522  0.1113 -0.0034
   22MOL   H280 7042   0.551   4.205   7.251  1.3660 -1.5990  0.5605
   22MOL   H281 7043   0.387   3.955   7.335 -1.5589  0.9685 -1.1537
   22MOL   H282 7044   0.491   4.058   7.438 -1.0166 -0.1474 -0.6834
   22MOL   H283 7045   0.548   3.977   7.281  0.2269 -0.2442 -0.3396
   22MOL   H284 7046   0.294   4.212   7.403 -0.5593 -1.0951 -1.1500
   22MOL   H285 7047   0.361   4.527   7.122  0.2546 -0.0248 -0.0522
   22MOL   H286 7048   0.496   4.458   7.215 -0.0558  0.0053 -0.5648
   22MOL   H287 7049   0.414   4.586   7.277 -1.5992  0.8662 -0.6393
   22MOL   H288 7050   0.112   4.351   7.358  1.1960 -0.9916 -0.4604
   22MOL   H289 7051   0.142   4.515   7.274 -1.6543  0.5197  3.3893
   22MOL   C290 7052   0.459   4.326   7.480  0.6463 -0.4990 -0.4213
   22MOL   C291 7053   0.607   4.328   7.463 -0.0173 -0.0459 -0.0224
   22MOL   C292 7054   0.420   4.271   7.622 -0.2094 -0.1116  0.3340
   22MOL   C293 7055   0.269   4.287   7.657 -0.2494 -0.2586 -0.3285
   22MOL   C294 7056   0.206   4.424   7.672 -0.5049  0.1076 -0.3430
   22MOL   C295 7057   0.183   4.181   7.664 -0.4246  0.4810 -0.3203
   22MOL   H296 7058   0.437   4.432   7.493 -1.5614 -0.9019 -0.6637
   22MOL   H297 7059   0.673   4.370   7.539  1.0858  1.3119 -1.6889
   22MOL   H298 7060   0.627   4.389   7.375 -0.4256 -1.9768 -1.4808
   22MOL   H299 7061   0.657   4.233   7.447  0.9260  0.3552  0.4770
   22MOL   H300 7062   0.421   4.166   7.592 -2.4570  0.6139 -2.4279
   22MOL   H301 7063   0.220   4.482   7.581  0.1849 -0.3673 -0.5445
   22MOL   H302 7064   0.251   4.484   7.751  0.3596 -1.9003  0.7582
   22MOL   H303 7065   0.100   4.415   7.699 -0.1196 -0.6952  0.9917
   22MOL   H304 7066   0.212   4.078   7.647 -0.9871  0.5216 -1.5508
   22MOL   H305 7067   0.081   4.191   7.695 -0.1867 -0.7645  0.9443
   22MOL   C306 7068   0.526   4.272   7.735  0.2531  0.0958  0.2662
   22MOL   C307 7069   0.480   4.173   7.847 -0.5266  0.1151  0.3545
   22MOL   C308 7070   0.548   4.411   7.795 -0.4539 -0.2251 -1.0427
   22MOL   C309 7071   0.659   4.416   0.012  0.3879 -0.1581 -0.3371
   22MOL   C310 7072   0.799   4.414   7.861  0.6822 -0.0845 -0.2882
   22MOL   C311 7073   0.628   4.426   0.141  0.6373 -0.1236 -0.3218
   22MOL   H312 7074   0.620   4.233   7.697  0.5895  2.2986 -1.3009
   22MOL   H313 7075   0.549   4.175   0.040  0.5480  1.3927 -0.5358
   22MOL   H314 7076   0.495   4.074   7.804  0.3988  1.3096 -2.1092
   22MOL   H315 7077   0.373   4.178   7.867 -0.4605 -0.2222  0.8099
   22MOL   H316 7078   0.588   4.474   7.716 -1.3193  1.2798 -0.3112
   22MOL   H317 7079   0.813   4.340   7.782  0.7541 -1.1899  0.7388
   22MOL   H318 7080   0.869   4.402   0.051  0.7870  0.2623 -0.3294
   22MOL   H319 7081   0.816   4.511   7.815  2.3007  0.4831  1.4284
   22MOL   H320 7082   0.526   4.416   0.175  1.4308 -2.4008  1.5100
   22MOL   H321 7083   0.699   4.436   0.221  1.5532 -1.5947 -0.9245
   22MOL   H322 7084   0.451   4.441   7.834  0.1677  0.0885  0.2827
   23MOL     C1 7085   3.278   1.486   3.514  1.2805  0.1637 -0.4655
   23MOL     C2 7086   3.354   1.463   3.379 -0.0017  0.3189 -0.7431
   23MOL     C3 7087   3.303   1.367   3.616  0.2413 -0.2764 -0.0411
   23MOL     C4 7088   3.274   1.240   3.539  0.4332  0.4137  0.4696
   23MOL     C5 7089   3.123   1.220   3.508 -0.3471  0.0854  0.2546
   23MOL     C6 7090   3.365   1.151   3.496  0.4642  0.0049 -0.0339
   23MOL     H7 7091   3.306   1.585   3.549  0.0273  0.8154 -1.2554
   23MOL     H8 7092   3.335   1.372   3.321  1.5308  0.7688 -1.9982
   23MOL     H9 7093   3.461   1.463   3.401  0.1420  0.2552 -1.4228
   23MOL    H10 7094   3.336   1.544   3.308 -2.1615  0.9523  0.4982
   23MOL    H11 7095   3.410   1.349   3.633  0.2784  0.9676  1.1341
   23MOL    H12 7096   3.080   1.120   3.518 -0.4756  0.3645  2.8165
   23MOL    H13 7097   3.099   1.263   3.411 -1.4015 -0.4678  0.2528
   23MOL    H14 7098   3.073   1.288   3.576 -1.5163 -1.2452  0.7497
   23MOL    H15 7099   3.469   1.166   3.522  0.1439  2.2941  0.0700
   23MOL    H16 7100   3.332   1.065   3.439  0.7529  1.0603 -1.8334
   23MOL    H17 7101   3.173   1.496   3.486  0.1599 -2.4763  2.5118
   23MOL    C18 7102   3.227   1.382   3.758  0.1172 -0.1224  0.0675
   23MOL    C19 7103   3.129   1.498   3.766  0.1866  0.1150  0.0240
   23MOL    C20 7104   3.318   1.369   3.890  0.3137  0.6459 -0.1781
   23MOL    C21 7105   3.438   1.471   3.891 -0.2606 -0.0069 -0.0157
   23MOL    C22 7106   3.400   1.615   3.900 -0.4472  0.2444  1.2284
   23MOL    C23 7107   3.568   1.437   3.876  0.0822 -0.0291  0.4182
   23MOL    H24 7108   3.163   1.294   3.766 -1.3898  0.8577 -1.0395
   23MOL    H25 7109   3.169   1.598   3.752 -1.3794  0.8457  0.5578
   23MOL    H26 7110   3.069   1.501   3.857 -0.1167 -0.6477 -0.1512
   23MOL    H27 7111   3.053   1.483   3.689 -0.0801  1.5678 -0.0122
   23MOL    H28 7112   3.254   1.417   3.964 -2.6873 -1.4778 -1.2831
   23MOL    H29 7113   3.389   1.657   3.800 -0.1249 -0.1597  1.0203
   23MOL    H30 7114   3.459   1.677   3.967  0.8792 -0.0173  0.3156
   23MOL    H31 7115   3.303   1.628   3.949 -0.3372  1.4379  1.1365
   23MOL    H32 7116   3.611   1.339   3.866 -1.0731 -0.4713 -0.3074
   23MOL    H33 7117   3.648   1.510   3.867  0.7525 -0.4446  2.6694
   23MOL    C34 7118   3.343   1.225   3.947  0.0403  0.0909 -0.0561
   23MOL    C35 7119   3.406   1.136   3.836 -0.2213 -0.3759 -0.1213
   23MOL    C36 7120   3.219   1.151   4.009  0.2226  0.3101  0.1573
   23MOL    C37 7121   3.143   1.239   4.113 -0.3747 -0.0626  0.2700
   23MOL    C38 7122   2.985   1.246   4.097 -0.3704  0.2947 -0.5075
   23MOL    C39 7123   3.204   1.320   4.196  0.0635 -0.8098  0.1521
   23MOL    H40 7124   3.425   1.244   4.016 -1.8071 -0.0930  2.2603
   23MOL    H41 7125   3.485   1.075   3.878 -1.3463 -1.5300  0.3332
   23MOL    H42 7126   3.461   1.201   3.767  0.4058  1.4805  2.0812
   23MOL    H43 7127   3.329   1.079   3.784  0.7619 -0.6824 -1.2981
   23MOL    H44 7128   3.147   1.144   3.928 -1.2390  1.2766  1.3428
   23MOL    H45 7129   2.974   1.263   3.990  1.0003  1.0694 -0.5348
   23MOL    H46 7130   2.948   1.337   4.144  1.9114  0.8436  0.2841
   23MOL    H47 7131   2.927   1.155   4.114 -0.0503  0.3018  0.6713
   23MOL    H48 7132   3.312   1.316   4.196  0.0534 -2.5154 -2.6264
   23MOL    H49 7133   3.148   1.394   4.251 -1.1578 -1.3080 -0.4025
   23MOL    C50 7134   3.248   1.010   4.076 -0.0462  0.1156  0.3746
   23MOL    C51 7135   3.378   1.014   4.160  0.2164 -0.0545  0.3088
   23MOL    C52 7136   3.235   0.885   3.977  0.5856 -0.3181 -0.2345
   23MOL    C53 7137   3.116   0.897   3.874 -0.5488  0.0493 -0.4163
   23MOL    C54 7138   2.974   0.898   3.926 -0.2522  0.6406  0.0683
   23MOL    C55 7139   3.143   0.919   3.743 -0.0628  0.1616  0.0018
   23MOL    H56 7140   3.169   0.992   4.148 -0.7444  2.3176  0.1933
   23MOL    H57 7141   3.384   1.113   4.205  0.3771  0.5358 -0.9841
   23MOL    H58 7142   3.455   0.993   4.086 -1.7399 -0.2382 -1.7330
   23MOL    H59 7143   3.383   0.940   4.240 -0.8405  1.0758  1.4506
   23MOL    H60 7144   3.324   0.889   3.914  0.6371 -1.5144 -0.2562
   23MOL    H61 7145   2.940   0.795   3.931  0.3871  0.4350  0.1815
   23MOL    H62 7146   2.907   0.942   3.853  1.3389 -0.5849 -2.1839
   23MOL    H63 7147   2.960   0.937   4.027 -1.4270  0.2187  0.0686
   23MOL    H64 7148   3.241   0.910   3.698 -1.0507  0.4817 -2.2373
   23MOL    H65 7149   3.066   0.940   3.671  2.8888  3.4642 -2.3206
   23MOL    C66 7150   3.233   0.744   4.050  0.6068 -0.7200 -0.0517
   23MOL    C67 7151   3.161   0.741   4.185 -0.2178 -0.0964 -0.8086
   23MOL    C68 7152   3.372   0.663   4.046  0.3418 -0.2261  0.4739
   23MOL    C69 7153   3.442   0.668   3.911  0.1375  0.2950  0.6480
   23MOL    C70 7154   3.369   0.623   3.782  0.2553 -0.8938  0.1561
   23MOL    C71 7155   3.569   0.709   3.899 -0.2844  0.6235 -0.0159
   23MOL    H72 7156   3.171   0.684   3.984 -1.1708  1.9312 -0.8847
   23MOL    H73 7157   3.214   0.796   4.264 -0.5415  0.6484 -1.1002
   23MOL    H74 7158   3.157   0.637   4.218 -0.6178  0.4140  0.8406
   23MOL    H75 7159   3.065   0.793   4.188  0.5145  1.2456  1.1344
   23MOL    H76 7160   3.440   0.723   4.107 -1.3121  1.1398  1.0019
   23MOL    H77 7161   3.264   0.650   3.793 -0.1857 -2.5948  0.3053
   23MOL    H78 7162   3.379   0.515   3.771  0.0578 -1.0174  1.1460
   23MOL    H79 7163   3.405   0.679   3.696  0.5729 -0.0415  0.8360
   23MOL    H80 7164   3.617   0.751   3.987 -0.6077 -0.9138  0.9196
   23MOL    H81 7165   3.623   0.701   3.806  0.8468 -0.6634  0.7306
   23MOL    C82 7166   3.362   0.512   4.095  0.9203  0.0411  0.4455
   23MOL    C83 7167   3.243   0.431   4.021  0.1266  0.0889  0.1624
   23MOL    C84 7168   3.387   0.474   4.249  0.6230 -0.7776 -0.9424
   23MOL    C85 7169   3.484   0.563   4.317 -0.5632  0.4098 -0.8175
   23MOL    C86 7170   3.466   0.607   4.458  0.0761  0.1306 -0.7238
   23MOL    C87 7171   3.599   0.599   4.261  0.1807  0.2712  0.2302
   23MOL    H88 7172   3.446   0.464   4.045  0.1960  0.7544 -1.4779
   23MOL    H89 7173   3.156   0.439   4.086 -1.1911 -0.2991 -1.5324
   23MOL    H90 7174   3.262   0.326   3.997 -2.0679 -0.9617  2.7568
   23MOL    H91 7175   3.209   0.474   3.927 -1.3947 -1.7625 -0.1654
   23MOL    H92 7176   3.290   0.494   4.295  0.7033 -0.5063 -0.8927
   23MOL    H93 7177   3.454   0.513   4.513  3.4826 -0.1098 -0.2434
   23MOL    H94 7178   3.373   0.663   4.463 -0.2159 -0.4776  0.9095
   23MOL    H95 7179   3.550   0.660   4.504  0.2553  0.1282 -1.0402
   23MOL    H96 7180   3.623   0.551   4.167 -3.4811 -2.3256  0.4835
   23MOL    H97 7181   3.663   0.670   4.309 -0.4214  1.1896 -0.3115
   23MOL    C98 7182   3.411   0.321   4.290 -0.2683 -0.6838 -0.2423
   23MOL    C99 7183   3.535   0.269   4.235  0.1240  0.0680 -0.1378
   23MOL   C100 7184   3.292   0.221   4.283  0.1736 -0.5568 -0.3076
   23MOL   C101 7185   3.167   0.277   4.346 -0.2977 -0.1397 -0.4058
   23MOL   C102 7186   3.036   0.250   4.268 -0.8858  0.8671  0.6948
   23MOL   C103 7187   3.170   0.343   4.466  0.0512  0.1510  0.1253
   23MOL   H104 7188   3.429   0.318   4.398 -1.3710  0.9999  0.0123
   23MOL   H105 7189   3.621   0.336   4.245 -0.3428  0.3518  2.3017
   23MOL   H106 7190   3.536   0.241   4.130  3.1322  3.2212 -1.0590
   23MOL   H107 7191   3.568   0.193   4.305  1.3559 -0.1301 -0.9000
   23MOL   H108 7192   3.259   0.209   4.180  2.4483 -1.4035 -0.9618
   23MOL   H109 7193   3.047   0.242   4.160  2.1691  0.8595  0.9839
   23MOL   H110 7194   2.964   0.332   4.273  0.0809  1.7553  0.2568
   23MOL   H111 7195   2.972   0.169   4.301 -0.2857  0.1512  0.1074
   23MOL   H112 7196   3.265   0.349   4.516 -0.0998  0.3174  0.3927
   23MOL   H113 7197   3.080   0.380   4.512 -1.2350 -0.9729 -1.3890
   23MOL   C114 7198   3.316   0.068   4.331  0.2967 -0.3083  0.0853
   23MOL   C115 7199   3.381   0.064   4.470 -0.2508 -0.8827  0.1301
   23MOL   C116 7200   3.379   7.861   4.230 -0.1331  0.0222  0.1730
   23MOL   C117 7201   3.320   7.884   4.094  0.3790  0.7733  0.2067
   23MOL   C118 7202   3.171   7.860   4.086  0.8806  0.1837  0.0648
   23MOL   C119 7203   3.395   0.020   3.986 -0.0157 -0.5377 -0.5888
   23MOL   H120 7204   3.215   0.033   4.357  0.5586 -0.4110  0.9778
   23MOL   H121 7205   3.347   7.866   4.522  0.2815 -2.2258 -1.7849
   23MOL   H122 7206   3.371   0.150   4.536  0.4228 -0.7403  0.0492
   23MOL   H123 7207   3.489   0.053   4.459 -0.3444 -1.4470 -0.2974
   23MOL   H124 7208   3.482   7.889   4.208 -0.8788  0.5542 -2.7941
   23MOL   H125 7209   3.119   7.848   4.180 -0.5349 -2.9898 -1.0397
   23MOL   H126 7210   3.164   7.766   4.030  0.6722  0.2116  0.0434
   23MOL   H127 7211   3.119   0.046   4.031 -1.3865 -1.8482 -0.7478
   23MOL   H128 7212   3.502   0.035   3.991 -0.0838 -0.3001  0.2974
   23MOL   H129 7213   3.339   0.033   3.894 -1.2769 -0.1946  0.2108
   23MOL   C130 7214   3.378   7.705   4.270 -0.0860 -0.3163  1.2091
   23MOL   C131 7215   3.272   7.643   4.356  0.6982  0.1939 -0.3947
   23MOL   C132 7216   3.518   7.632   4.293  0.2896 -0.0683  0.5276
   23MOL   C133 7217   3.614   7.711   4.391  0.4231  0.3666  0.5388
   23MOL   C134 7218   3.744   7.774   4.328  0.6967 -0.0345  0.0394
   23MOL   C135 7219   3.590   7.717   4.527 -0.3084 -0.7705  0.1306
   23MOL   H136 7220   3.343   7.666   4.174  1.0009 -0.4243  0.8534
   23MOL   H137 7221   3.250   7.539   4.336 -3.2406  0.5396  1.5481
   23MOL   H138 7222   3.182   7.703   4.337 -0.7228 -1.4447  0.9938
   23MOL   H139 7223   3.297   7.647   4.462  2.7193  1.6599 -0.8999
   23MOL   H140 7224   3.491   7.553   4.363 -3.8888 -1.1446 -2.1393
   23MOL   H141 7225   3.808   7.703   4.276  0.1985  0.4850 -1.3237
   23MOL   H142 7226   3.806   7.821   4.404  1.1299  0.5611 -0.6790
   23MOL   H143 7227   3.724   7.853   4.256 -0.1599 -0.7177 -0.4759
   23MOL   H144 7228   3.508   7.664   4.574  0.9260 -2.7492  0.1093
   23MOL   H145 7229   3.659   7.768   4.594  0.6048 -1.0092 -0.6118
   23MOL   C146 7230   3.577   7.557   4.169 -0.1049 -0.5001  0.3161
   23MOL   C147 7231   3.593   7.658   4.055 -0.1706  0.0970 -0.0474
   23MOL   C148 7232   3.514   7.414   4.154  0.0432 -0.1014 -1.0407
   23MOL   C149 7233   3.579   7.320   4.259 -0.2070 -0.4025  0.1770
   23MOL   C150 7234   3.491   7.220   4.337  0.3811  0.8120  0.1736
   23MOL   C151 7235   3.721   7.312   4.278  0.0899  0.3355  0.2277
   23MOL   H152 7236   3.684   7.551   4.191 -0.3814  0.2342  1.9081
   23MOL   H153 7237   3.617   7.756   4.095 -0.8140 -0.9764  3.1278
   23MOL   H154 7238   3.501   7.666   3.996 -0.1838 -0.3490 -0.0917
   23MOL   H155 7239   3.658   7.648   3.969 -0.7223  2.5162 -0.7875
   23MOL   H156 7240   3.414   7.430   4.194  0.7617  2.5992 -0.1899
   23MOL   H157 7241   3.416   7.176   4.272 -1.3860  1.7656  1.5200
   23MOL   H158 7242   3.448   7.269   4.425  1.9521 -1.3135  2.1984
   23MOL   H159 7243   3.552   7.134   4.365  0.9735  1.3955  0.7076
   23MOL   H160 7244   3.791   7.370   4.220  0.3717  0.1326  0.3610
   23MOL   H161 7245   3.769   7.243   4.346  2.6129  3.5889  1.8983
   23MOL   C162 7246   3.509   7.346   4.007 -0.6174 -0.6311 -0.9199
   23MOL   C163 7247   3.636   7.357   3.932 -0.4433 -0.1480  1.1199
   23MOL   C164 7248   3.384   7.376   3.921  0.1788  0.4378 -0.2875
   23MOL   C165 7249   3.251   7.355   3.999  0.4781  0.4384  0.1125
   23MOL   C166 7250   3.218   7.216   4.055 -0.4029  0.7092  0.1345
   23MOL   C167 7251   3.166   7.453   3.994  0.0520  0.4751 -0.1168
   23MOL   H168 7252   3.501   7.240   4.034 -2.2259 -0.4722 -0.7496
   23MOL   H169 7253   3.648   7.449   3.875 -0.4023 -1.8339 -1.6767
   23MOL   H170 7254   3.642   7.266   3.874 -2.6862  0.1350  0.4135
   23MOL   H171 7255   3.726   7.345   3.993 -0.8552 -2.0671  1.3699
   23MOL   H172 7256   3.380   7.484   3.911  0.2216  0.7458  2.5718
   23MOL   H173 7257   3.146   7.162   3.994 -0.1221  1.5317 -0.9396
   23MOL   H174 7258   3.178   7.215   4.156 -1.1883  1.8674 -0.1681
   23MOL   H175 7259   3.303   7.147   4.061 -1.2557 -0.4425 -0.8103
   23MOL   H176 7260   3.191   7.549   3.952  0.2794  1.1985  1.6267
   23MOL   H177 7261   3.068   7.449   4.039 -0.0019  0.9859 -0.1899
   23MOL   C178 7262   3.363   7.320   3.769 -0.1162  0.4080 -1.0222
   23MOL   C179 7263   3.420   7.173   3.740 -1.0757 -0.1191  0.0231
   23MOL   C180 7264   3.410   7.413   3.651  0.1781 -1.0414  0.0179
   23MOL   C181 7265   3.367   7.560   3.672  0.9749  0.0298  0.1194
   23MOL   C182 7266   3.222   7.590   3.651  0.2863  1.0909 -0.0022
   23MOL   C183 7267   3.457   7.655   3.704  0.2253  0.3375 -0.2461
   23MOL   H184 7268   3.258   7.305   3.748  0.4791 -0.6877 -3.4214
   23MOL   H185 7269   3.409   7.114   3.831 -1.3495  0.1714  0.1776
   23MOL   H186 7270   3.529   7.166   3.731 -0.7789  1.9076  1.8760
   23MOL   H187 7271   3.371   7.117   3.660 -1.7755  0.1347  0.2755
   23MOL   H188 7272   3.516   7.398   3.673 -0.2544 -2.4108  1.2543
   23MOL   H189 7273   3.153   7.545   3.722 -1.5454  1.2002 -1.6748
   23MOL   H190 7274   3.191   7.553   3.554 -0.3741 -0.1635  0.6739
   23MOL   H191 7275   3.196   7.696   3.653 -3.0839  0.3951 -2.7293
   23MOL   H192 7276   3.559   7.620   3.715  0.1438  0.6808  1.8590
   23MOL   H193 7277   3.434   7.760   3.714 -0.5148  0.2697 -1.1889
   23MOL   C194 7278   3.392   7.375   3.499  0.1636 -0.5021  0.0439
   23MOL   C195 7279   3.252   7.302   3.475  0.2363 -0.3765  0.3105
   23MOL   C196 7280   3.520   7.286   3.444  0.8225 -0.3515 -0.1806
   23MOL   C197 7281   3.656   7.355   3.480  0.9004  0.5159 -0.7470
   23MOL   C198 7282   3.766   7.255   3.515  0.5233  0.3909 -0.1116
   23MOL   C199 7283   3.669   7.490   3.491 -0.2814 -0.1707  0.1116
   23MOL   H200 7284   3.383   7.465   3.439 -0.4107 -0.7737 -0.2891
   23MOL   H201 7285   3.248   7.203   3.522  1.2007 -0.2602  0.6560
   23MOL   H202 7286   3.234   7.290   3.369  0.0032 -0.3948  0.3519
   23MOL   H203 7287   3.168   7.346   3.528  1.3055  2.9567 -0.6640
   23MOL   H204 7288   3.523   7.189   3.494 -2.0431 -1.3191 -1.7680
   23MOL   H205 7289   3.736   7.193   3.599  1.8626  0.4093  0.4039
   23MOL   H206 7290   3.853   7.309   3.553  0.1085 -0.2832  1.8730
   23MOL   H207 7291   3.804   7.192   3.435 -2.8024 -0.4490 -1.0735
   23MOL   H208 7292   3.598   7.570   3.471 -0.2104 -0.5883 -1.9034
   23MOL   H209 7293   3.766   7.523   3.524 -0.7177 -0.0626  1.2918
   23MOL   C210 7294   3.510   7.251   3.292  0.4400  0.8263  1.2431
   23MOL   C211 7295   3.451   7.107   3.291  0.0986 -0.0374  0.1296
   23MOL   C212 7296   3.629   7.280   3.197 -0.2385  0.0427  0.2168
   23MOL   C213 7297   3.653   7.427   3.174  0.3986  0.1060 -0.1990
   23MOL   C214 7298   3.795   7.466   3.149 -0.2457  0.4449 -0.3062
   23MOL   C215 7299   3.557   7.517   3.145 -0.5744 -0.2060  0.8487
   23MOL   H216 7300   3.429   7.308   3.247  1.0960 -0.8566 -2.2400
   23MOL   H217 7301   3.374   7.092   3.367  1.4388 -0.2917  1.4554
   23MOL   H218 7302   3.527   7.031   3.309  0.4240  0.4693  0.9056
   23MOL   H219 7303   3.412   7.080   3.193  0.5425 -0.3092  0.0265
   23MOL   H220 7304   3.721   7.267   3.254 -1.1054 -0.6307  1.4784
   23MOL   H221 7305   3.793   7.574   3.142 -1.4105  0.5472  1.2907
   23MOL   H222 7306   3.834   7.421   3.057  0.2390  0.5578 -0.1515
   23MOL   H223 7307   3.858   7.444   3.235  0.2389  0.5805 -0.6252
   23MOL   H224 7308   3.454   7.486   3.140 -0.8650  0.8071  0.4789
   23MOL   H225 7309   3.586   7.617   3.116  3.2012 -1.2184  0.8214
   23MOL   C226 7310   3.635   7.198   3.060 -0.0075  0.0342  0.3669
   23MOL   C227 7311   3.520   7.219   2.964  0.4202  0.2353 -0.3740
   23MOL   C228 7312   3.674   7.051   3.063 -0.0348 -0.3562 -0.0950
   23MOL   C229 7313   3.786   7.023   3.164 -0.2876 -0.0813 -0.0858
   23MOL   C230 7314   3.775   6.893   3.234 -0.5430 -0.0963  0.7652
   23MOL   C231 7315   3.899   7.096   3.177  0.0602  0.1480  0.9348
   23MOL   H232 7316   3.710   7.250   2.999  0.7695  1.3875  2.4033
   23MOL   H233 7317   3.472   7.314   2.990 -0.0896 -0.2313  0.4080
   23MOL   H234 7318   3.449   7.136   2.968 -0.6165  1.1364  0.3345
   23MOL   H235 7319   3.550   7.226   2.860  1.5466  0.1075 -0.0629
   23MOL   H236 7320   3.593   6.999   3.115 -0.6810 -0.4801 -1.2278
   23MOL   H237 7321   3.671   6.879   3.265 -0.8511 -0.4804 -0.4099
   23MOL   H238 7322   3.841   6.896   3.320  0.7464 -0.6102 -0.1808
   23MOL   H239 7323   3.819   6.817   3.170 -0.8494 -1.0143  1.6338
   23MOL   H240 7324   3.921   7.191   3.131 -0.5663 -0.6987 -1.1978
   23MOL   H241 7325   3.977   7.060   3.242  2.5830 -0.9553 -2.5503
   23MOL   C242 7326   3.709   6.967   2.925 -0.5703  0.4747  0.3098
   23MOL   C243 7327   3.826   7.036   2.835  0.0825  0.1933 -0.7889
   23MOL   C244 7328   3.582   6.921   2.841  0.7361 -0.0540 -0.2106
   23MOL   C245 7329   3.474   6.860   2.937 -0.4515 -0.5836  0.1851
   23MOL   C246 7330   3.505   6.748   3.035  0.3803 -0.4415 -0.2413
   23MOL   C247 7331   3.344   6.908   2.923  0.3203 -0.2552 -0.1734
   23MOL   H248 7332   3.767   6.882   2.960  1.4376  1.6149 -0.1658
   23MOL   H249 7333   3.861   6.967   2.758 -2.1794  0.0790 -1.7516
   23MOL   H250 7334   3.913   7.054   2.898 -0.1485 -1.0743 -0.0853
   23MOL   H251 7335   3.805   7.127   2.778  1.5099  0.1541 -1.4011
   23MOL   H252 7336   3.533   7.008   2.798 -0.3623 -0.6139 -0.1030
   23MOL   H253 7337   3.451   6.755   3.130  0.6964  0.6482 -0.1449
   23MOL   H254 7338   3.612   6.737   3.052  0.7068  0.3416 -1.7388
   23MOL   H255 7339   3.469   6.659   2.983  2.4093 -1.3501 -0.1180
   23MOL   H256 7340   3.320   6.991   2.858  0.9055  0.2796  0.3029
   23MOL   H257 7341   3.250   6.880   2.969  0.0756  1.0471  0.1311
   23MOL   C258 7342   3.615   6.819   2.725 -0.1644 -0.6065 -0.8860
   23MOL   C259 7343   3.709   6.708   2.769 -0.2490  0.6384 -0.5137
   23MOL   C260 7344   3.631   6.892   2.583  0.0544  0.1490 -0.5561
   23MOL   C261 7345   3.525   6.998   2.550 -0.9438  1.1903  0.5162
   23MOL   C262 7346   3.578   7.126   2.489 -0.4785  0.4485 -0.1587
   23MOL   C263 7347   3.399   6.994   2.594  0.8441 -0.0336  0.0688
   23MOL   H264 7348   3.522   6.764   2.711  0.6039 -2.2065  0.1584
   23MOL   H265 7349   3.728   6.638   2.688  0.9255 -1.0954  1.2140
   23MOL   H266 7350   3.664   6.645   2.846  0.1394 -1.1847 -1.7442
   23MOL   H267 7351   3.809   6.739   2.799  0.0581  0.7994 -1.6913
   23MOL   H268 7352   3.714   6.958   2.609  2.2502 -2.3540 -1.0685
   23MOL   H269 7353   3.652   7.106   2.412  0.5560  1.4784  0.5537
   23MOL   H270 7354   3.630   7.172   2.573  0.5050 -1.0545  0.0712
   23MOL   H271 7355   3.507   7.200   2.451 -1.1062 -0.1107 -0.0957
   23MOL   H272 7356   3.369   6.906   2.649 -0.0191 -1.1089 -2.0728
   23MOL   H273 7357   3.332   7.074   2.566  1.4155  1.5645  3.0518
   23MOL   C274 7358   3.644   6.800   2.454  0.2744 -0.1651 -0.0171
   23MOL   C275 7359   3.546   6.679   2.458  0.0629  0.4060  0.7153
   23MOL   C276 7360   3.794   6.748   2.434 -0.4208  0.1898  0.3153
   23MOL   C277 7361   3.904   6.838   2.495 -0.4896  0.4031  0.1145
   23MOL   C278 7362   3.952   6.962   2.424 -0.6039 -0.6228 -0.4969
   23MOL   C279 7363   3.976   6.797   2.603 -0.8662  0.6698  0.0608
   23MOL   H280 7364   3.611   6.860   2.370  0.8863 -1.7087 -1.3930
   23MOL   H281 7365   3.566   6.608   2.378 -2.9775  2.0247 -1.5888
   23MOL   H282 7366   3.441   6.705   2.448 -0.1797 -1.6424 -2.4705
   23MOL   H283 7367   3.554   6.614   2.545 -2.0249 -0.1698  0.4891
   23MOL   H284 7368   3.803   6.656   2.492 -0.0795  0.3571  0.5273
   23MOL   H285 7369   4.039   7.000   2.476 -2.0743  1.0445  0.7764
   23MOL   H286 7370   3.881   7.044   2.420  1.6324  1.3400 -1.3996
   23MOL   H287 7371   3.982   6.934   2.323 -1.5478 -0.9689 -0.6837
   23MOL   H288 7372   3.949   6.709   2.658 -1.4527  0.5045 -0.4902
   23MOL   H289 7373   4.056   6.858   2.643  0.7313 -1.4700  0.1860
   23MOL   C290 7374   3.837   6.704   2.289  0.3891  0.1904 -0.1417
   23MOL   C291 7375   3.795   6.801   2.177 -0.8394  0.3324 -0.1354
   23MOL   C292 7376   3.830   6.550   2.249  0.8479 -0.2664 -0.7254
   23MOL   C293 7377   3.877   6.452   2.355 -0.5030  0.3114  0.4134
   23MOL   C294 7378   3.782   6.341   2.394  0.4186 -0.2664  0.4880
   23MOL   C295 7379   3.998   6.464   2.408  0.0763  0.2596  0.7384
   23MOL   H296 7380   3.945   6.717   2.293  0.4569 -0.5793  0.3752
   23MOL   H297 7381   3.759   6.900   2.207  0.1114  0.8885 -0.7622
   23MOL   H298 7382   3.720   6.753   2.114  0.4943 -0.6177 -1.0219
   23MOL   H299 7383   3.878   6.813   2.108  0.2201 -1.1902  0.8679
   23MOL   H300 7384   3.722   6.534   2.249  0.8679 -0.4589  0.3653
   23MOL   H301 7385   3.760   6.296   2.298  1.2607 -1.2797  0.7600
   23MOL   H302 7386   3.692   6.383   2.441 -0.0454 -0.0624 -0.5715
   23MOL   H303 7387   3.827   6.258   2.450 -0.2574 -0.1142  1.2835
   23MOL   H304 7388   4.071   6.543   2.398  2.3153 -1.9327 -1.0276
   23MOL   H305 7389   4.031   6.390   2.479  2.8254  1.7460  1.0720
   23MOL   C306 7390   3.879   6.528   2.102  0.5854  0.3256 -0.0332
   23MOL   C307 7391   3.839   6.382   2.070  0.0081  0.0340 -0.0013
   23MOL   C308 7392   4.022   6.562   2.091  0.1689  0.5480  0.8877
   23MOL   C309 7393   4.091   6.550   1.956  0.1509  0.0387 -0.3915
   23MOL   C310 7394   4.238   6.541   1.958 -0.2016  0.4523  0.4476
   23MOL   C311 7395   4.017   6.567   1.843  0.0585  0.5008  0.0494
   23MOL   H312 7396   3.810   6.583   2.038  0.2631 -0.5227 -0.4125
   23MOL   H313 7397   3.890   6.300   2.122  0.9097  1.0250  0.6884
   23MOL   H314 7398   3.857   6.367   1.964  2.7301 -0.2737  0.4682
   23MOL   H315 7399   3.731   6.378   2.082  0.1853  0.5681  1.9771
   23MOL   H316 7400   4.051   6.659   2.133 -0.0559 -0.1124  2.5880
   23MOL   H317 7401   4.262   6.640   1.997  1.2986  0.0403  0.6277
   23MOL   H318 7402   4.274   6.519   1.857  1.5057  3.2371  0.3675
   23MOL   H319 7403   4.278   6.460   2.018 -2.0596 -1.5129 -0.8817
   23MOL   H320 7404   3.910   6.581   1.848  0.0658  0.4871  0.2485
   23MOL   H321 7405   4.063   6.561   1.746  1.7437 -1.0294  0.9070
   23MOL   H322 7406   4.079   6.487   2.145  0.0244 -0.4924 -0.3801
   24MOL     C1 7407   1.793   1.967   3.065 -0.1481 -0.3285  0.1298
   24MOL     C2 7408   1.882   2.094   3.062 -0.6333 -0.0585 -0.1437
   24MOL     C3 7409   1.829   1.874   3.191 -0.0650 -0.1181  0.2020
   24MOL     C4 7410   1.974   1.842   3.187 -0.1855 -0.3864 -0.7841
   24MOL     C5 7411   2.027   1.757   3.072 -0.1957  0.4922 -0.0270
   24MOL     C6 7412   2.057   1.890   3.281  0.3516  0.4221 -0.6927
   24MOL     H7 7413   1.687   1.991   3.077  0.1862  0.9130  0.6515
   24MOL     H8 7414   1.877   2.145   3.158  1.5569 -2.9693  1.6358
   24MOL     H9 7415   1.860   2.166   2.983  2.5682  1.2864  0.1424
   24MOL    H10 7416   1.986   2.072   3.039 -0.8151  0.5237 -1.5618
   24MOL    H11 7417   1.811   1.937   3.278 -1.6243 -1.6850  1.0402
   24MOL    H12 7418   2.013   1.803   2.975  1.9434  0.2635 -0.4881
   24MOL    H13 7419   1.985   1.657   3.062  1.9055 -0.2216 -2.2681
   24MOL    H14 7420   2.135   1.742   3.082 -0.4078 -1.4026 -0.4047
   24MOL    H15 7421   2.031   1.946   3.370 -1.4889 -2.2063  0.4873
   24MOL    H16 7422   2.163   1.869   3.273  0.1136 -0.7922 -0.7666
   24MOL    H17 7423   1.797   1.917   2.968 -0.8630  2.1055 -1.2211
   24MOL    C18 7424   1.729   1.750   3.208 -0.4846  0.2301 -0.3361
   24MOL    C19 7425   1.578   1.775   3.183  0.2861 -0.2658 -0.2603
   24MOL    C20 7426   1.767   1.651   3.320  0.7619 -0.1685  0.3248
   24MOL    C21 7427   1.770   1.507   3.272  0.3301 -0.1303  0.1509
   24MOL    C22 7428   1.638   1.443   3.251  0.3823 -0.3210 -0.2566
   24MOL    C23 7429   1.881   1.441   3.247 -0.0937 -0.0325  0.8732
   24MOL    H24 7430   1.759   1.711   3.111  1.2106  0.6257  0.0037
   24MOL    H25 7431   1.525   1.680   3.173  0.3631 -0.2583 -0.7244
   24MOL    H26 7432   1.573   1.817   3.083  0.1395  2.6982  0.9347
   24MOL    H27 7433   1.525   1.837   3.255  0.8902 -0.8460  0.7036
   24MOL    H28 7434   1.869   1.684   3.336  0.5951  1.6960 -2.2233
   24MOL    H29 7435   1.606   1.457   3.147  1.7510  0.3534 -0.6062
   24MOL    H30 7436   1.559   1.472   3.320 -0.1744 -0.8187 -0.6824
   24MOL    H31 7437   1.636   1.335   3.260 -0.7142 -0.4092 -1.5048
   24MOL    H32 7438   1.979   1.483   3.264 -0.8686  2.0252  0.4851
   24MOL    H33 7439   1.864   1.342   3.206  1.0705  0.4470 -0.8433
   24MOL    C34 7440   1.685   1.666   3.459 -0.2107  0.4549 -0.2932
   24MOL    C35 7441   1.714   1.805   3.518 -0.2286  0.3441  0.7425
   24MOL    C36 7442   1.682   1.552   3.570 -0.2652 -0.6753  0.3348
   24MOL    C37 7443   1.544   1.544   3.645  0.1445 -0.3416 -0.3380
   24MOL    C38 7444   1.544   1.622   3.773 -0.7512  0.4742 -0.4303
   24MOL    C39 7445   1.446   1.458   3.605 -0.0094 -0.2701 -0.6353
   24MOL    H40 7446   1.580   1.665   3.432  0.1171  0.1071 -1.5803
   24MOL    H41 7447   1.819   1.831   3.524  0.0017 -0.8517  2.5186
   24MOL    H42 7448   1.667   1.824   3.615 -1.5103 -0.4846  0.3088
   24MOL    H43 7449   1.683   1.877   3.443  0.8318  0.5226  0.4681
   24MOL    H44 7450   1.663   1.466   3.505  0.6239 -1.8441  1.5754
   24MOL    H45 7451   1.589   1.559   3.851 -1.6169  0.2422 -0.1101
   24MOL    H46 7452   1.437   1.633   3.794 -0.2849  4.1127  0.2911
   24MOL    H47 7453   1.573   1.727   3.767  0.9989 -0.0280 -1.1597
   24MOL    H48 7454   1.463   1.401   3.515  0.0989 -1.6867  0.2667
   24MOL    H49 7455   1.351   1.442   3.653  0.1399  0.3312 -0.1192
   24MOL    C50 7456   1.810   1.534   3.665  0.4125 -0.0190  0.5276
   24MOL    C51 7457   1.945   1.551   3.597  0.0051 -0.0801 -0.2833
   24MOL    C52 7458   1.809   1.402   3.761 -0.3641 -0.6999 -0.2864
   24MOL    C53 7459   1.893   1.424   3.884 -0.9983  0.0129  1.1287
   24MOL    C54 7460   1.826   1.497   3.999 -0.4084 -1.2011  0.9231
   24MOL    C55 7461   2.020   1.378   3.897  0.3787 -0.0436 -0.0551
   24MOL    H56 7462   1.806   1.615   3.739  1.1936 -0.3759  0.9673
   24MOL    H57 7463   2.029   1.566   3.666 -0.9424 -0.2751  0.9399
   24MOL    H58 7464   1.936   1.647   3.547  2.2570 -0.6957 -1.9770
   24MOL    H59 7465   1.976   1.470   3.531 -0.1931  0.0828 -0.5723
   24MOL    H60 7466   1.708   1.392   3.801  0.0772  1.4835  1.4142
   24MOL    H61 7467   1.738   1.446   4.038 -2.5426  0.1044 -2.0069
   24MOL    H62 7468   1.809   1.603   3.979 -0.6668 -1.9003 -2.9491
   24MOL    H63 7469   1.893   1.494   4.085 -1.2438  1.0360  1.6923
   24MOL    H64 7470   2.071   1.328   3.816 -0.0873 -0.9978  0.2323
   24MOL    H65 7471   2.064   1.400   3.993  0.1734 -0.9270  0.2431
   24MOL    C66 7472   1.838   1.262   3.694 -0.0479 -0.8975  0.3596
   24MOL    C67 7473   1.776   1.235   3.554  0.5233  0.0873 -0.5372
   24MOL    C68 7474   1.829   1.134   3.788  0.0171  0.3859 -0.0482
   24MOL    C69 7475   1.913   1.018   3.731 -0.3727  0.2428  0.3538
   24MOL    C70 7476   2.056   1.013   3.780  0.4508  0.2064  0.3368
   24MOL    C71 7477   1.868   0.922   3.645  1.3326 -0.2719  0.0537
   24MOL    H72 7478   1.943   1.273   3.669 -0.1476 -1.1408 -0.1779
   24MOL    H73 7479   1.802   1.307   3.476 -0.5750  1.1269  0.0206
   24MOL    H74 7480   1.667   1.235   3.563  0.7303  0.4931  2.4125
   24MOL    H75 7481   1.803   1.140   3.509  1.0608 -0.0087 -0.0110
   24MOL    H76 7482   1.868   1.160   3.887 -0.9431  0.3464  0.3485
   24MOL    H77 7483   2.065   0.910   3.815 -3.1408 -0.1634  0.3277
   24MOL    H78 7484   2.075   1.085   3.859 -1.4937  1.1919 -0.0659
   24MOL    H79 7485   2.131   1.012   3.701  0.4958  0.3430  0.3777
   24MOL    H80 7486   1.769   0.916   3.604  2.0384 -2.3010 -1.4053
   24MOL    H81 7487   1.936   0.846   3.611 -1.0240 -1.0165 -3.1283
   24MOL    C82 7488   1.682   1.080   3.829 -0.6904 -0.6450 -0.4355
   24MOL    C83 7489   1.562   1.180   3.847 -0.8243  0.0849  0.2811
   24MOL    C84 7490   1.689   0.972   3.943  0.4292 -0.0078  0.5682
   24MOL    C85 7491   1.581   0.861   3.916  0.2095  0.1814  0.0618
   24MOL    C86 7492   1.632   0.726   3.869  0.2545 -0.2787  0.2007
   24MOL    C87 7493   1.452   0.874   3.951  0.0486  0.6813  0.6099
   24MOL    H88 7494   1.662   1.024   3.737 -1.5763 -1.4183  0.2280
   24MOL    H89 7495   1.568   1.240   3.938  2.1913  0.2056  0.0481
   24MOL    H90 7496   1.469   1.124   3.851 -0.3227 -0.8204 -0.5388
   24MOL    H91 7497   1.548   1.257   3.770  0.8161  1.2460  1.0995
   24MOL    H92 7498   1.783   0.917   3.937  0.1930 -0.5433  1.5958
   24MOL    H93 7499   1.711   0.737   3.794 -0.2989  2.3271 -0.0485
   24MOL    H94 7500   1.544   0.682   3.824  0.9154 -0.9448 -0.4547
   24MOL    H95 7501   1.675   0.675   3.955 -0.7824  1.5949  1.9007
   24MOL    H96 7502   1.405   0.965   3.986 -1.0194  0.5450 -0.4432
   24MOL    H97 7503   1.385   0.790   3.941 -0.4787  1.3836 -2.3570
   24MOL    C98 7504   1.685   1.029   4.090 -0.0379  0.6488  0.0121
   24MOL    C99 7505   1.772   1.155   4.122 -0.0375 -0.2937 -0.0863
   24MOL   C100 7506   1.683   0.924   4.203  0.1780 -0.6653 -0.0979
   24MOL   C101 7507   1.564   0.948   4.297  0.1126  0.2796 -0.3270
   24MOL   C102 7508   1.568   1.079   4.372 -0.2919 -0.1073  0.1180
   24MOL   C103 7509   1.457   0.861   4.302 -0.2724  1.0762  0.4065
   24MOL   H104 7510   1.581   1.062   4.092 -1.2079 -2.8295  0.4090
   24MOL   H105 7511   1.774   1.171   4.230  0.0424 -1.9424  0.1713
   24MOL   H106 7512   1.729   1.244   4.076  0.6844  0.3527  0.4795
   24MOL   H107 7513   1.874   1.139   4.088 -0.3301 -0.7436 -0.7563
   24MOL   H108 7514   1.656   0.830   4.154 -0.1191 -1.0681  0.8307
   24MOL   H109 7515   1.524   1.168   4.327  0.2794  0.5300  0.7954
   24MOL   H110 7516   1.670   1.112   4.392  1.3697 -1.7960 -4.9298
   24MOL   H111 7517   1.522   1.073   4.471 -0.9841 -0.4697 -0.2254
   24MOL   H112 7518   1.446   0.778   4.234  1.2967 -0.2282  1.6911
   24MOL   H113 7519   1.381   0.875   4.378 -0.2820  0.9625  0.4174
   24MOL   C114 7520   1.820   0.894   4.276 -0.3462  0.4110  0.4062
   24MOL   C115 7521   1.923   0.848   4.174 -0.7422 -0.8111 -0.1391
   24MOL   C116 7522   1.811   0.799   4.401  0.2932 -0.3167  0.2134
   24MOL   C117 7523   1.910   0.860   4.503 -0.5510  0.0385  1.0992
   24MOL   C118 7524   1.847   0.952   4.604  0.6621 -0.4245 -0.6733
   24MOL   C119 7525   2.044   0.840   4.499  0.3334  0.8944 -0.3256
   24MOL   H120 7526   1.866   0.986   4.312  0.2665  0.9744 -1.7657
   24MOL   H121 7527   1.945   0.930   4.105  0.0742 -0.0094  1.0345
   24MOL   H122 7528   1.899   0.754   4.125 -1.5134 -0.6395 -0.0831
   24MOL   H123 7529   2.025   0.839   4.212  0.4049  1.3085 -2.5206
   24MOL   H124 7530   1.710   0.814   4.440  0.7214  0.5529  1.0292
   24MOL   H125 7531   1.808   1.041   4.555 -0.0400 -0.1586  0.3750
   24MOL   H126 7532   1.921   0.980   4.679 -0.7965 -0.7967  0.9104
   24MOL   H127 7533   1.763   0.907   4.657  0.7430  0.2327  0.0095
   24MOL   H128 7534   2.082   0.782   4.416  1.9246  2.0618 -0.4499
   24MOL   H129 7535   2.112   0.886   4.570  0.7192  0.8388 -0.6529
   24MOL   C130 7536   1.835   0.644   4.378 -0.0121 -0.4081  0.5187
   24MOL   C131 7537   1.720   0.585   4.284  0.3026  0.7363  0.0060
   24MOL   C132 7538   1.864   0.546   4.499 -0.2309 -0.1261 -0.8315
   24MOL   C133 7539   1.960   0.433   4.459 -0.0217  0.2636  0.0575
   24MOL   C134 7540   1.900   0.307   4.394 -0.3955  0.0992 -0.1443
   24MOL   C135 7541   2.089   0.435   4.484  0.0977  0.6061 -0.5078
   24MOL   H136 7542   1.924   0.644   4.315  0.2860 -1.0917  0.9286
   24MOL   H137 7543   1.736   0.617   4.181  0.2858  2.0126  0.4024
   24MOL   H138 7544   1.618   0.610   4.316  0.3526 -0.8045  1.4626
   24MOL   H139 7545   1.716   0.476   4.279 -1.8695  0.7970 -0.1724
   24MOL   H140 7546   1.931   0.610   4.555 -1.5933  1.3069 -0.7970
   24MOL   H141 7547   1.879   0.324   4.289  0.1618  2.1979  0.0518
   24MOL   H142 7548   1.810   0.272   4.444 -0.7662 -1.3774 -1.8176
   24MOL   H143 7549   1.973   0.227   4.407 -0.4861 -0.0345 -0.4840
   24MOL   H144 7550   2.132   0.523   4.531 -0.3639  0.3658  0.3633
   24MOL   H145 7551   2.154   0.351   4.465 -0.4469 -0.0585  0.5472
   24MOL   C146 7552   1.737   0.505   4.585 -0.2877 -0.0282 -0.5935
   24MOL   C147 7553   1.638   0.621   4.619 -0.3247  0.0183  0.2674
   24MOL   C148 7554   1.760   0.414   4.714 -0.1855 -0.6205  0.4806
   24MOL   C149 7555   1.635   0.323   4.733  0.0172  0.9943  0.2482
   24MOL   C150 7556   1.647   0.183   4.673 -0.2321  0.0700 -0.9149
   24MOL   C151 7557   1.531   0.359   4.810 -0.1651  0.3116 -0.4799
   24MOL   H152 7558   1.676   0.441   4.522  0.6844 -0.3029 -1.2523
   24MOL   H153 7559   1.675   0.702   4.682 -0.8414 -0.3542  1.0729
   24MOL   H154 7560   1.555   0.578   4.675 -0.3670  1.1160  1.0723
   24MOL   H155 7561   1.585   0.669   4.537 -0.6517 -0.5197  0.1617
   24MOL   H156 7562   1.837   0.340   4.691 -2.0133 -3.1824  2.3363
   24MOL   H157 7563   1.739   0.138   4.712 -1.6589  0.0006  2.5623
   24MOL   H158 7564   1.659   0.193   4.566  0.2399 -0.0050 -0.8718
   24MOL   H159 7565   1.564   0.119   4.703 -0.3220  1.2107  1.3934
   24MOL   H160 7566   1.514   0.452   4.862  1.7539  1.7206 -2.2690
   24MOL   H161 7567   1.444   0.295   4.815 -2.1398  3.1081  2.5351
   24MOL   C162 7568   1.799   0.491   4.843  0.1760 -0.7835 -0.3442
   24MOL   C163 7569   1.906   0.601   4.820 -0.3089  0.7586  0.2322
   24MOL   C164 7570   1.842   0.388   4.958 -0.1329 -0.5327  0.1831
   24MOL   C165 7571   1.797   0.449   5.087 -0.2831  0.4761  0.3473
   24MOL   C166 7572   1.648   0.417   5.122 -0.5804 -0.0819 -0.2695
   24MOL   C167 7573   1.873   0.525   5.170 -0.4866  0.1294  0.5783
   24MOL   H168 7574   1.710   0.536   4.885 -0.9728 -3.0426 -0.2556
   24MOL   H169 7575   1.939   0.644   4.914 -0.9608  3.0720 -0.5697
   24MOL   H170 7576   1.879   0.699   4.782  0.3176  0.7995 -0.1008
   24MOL   H171 7577   1.982   0.552   4.760 -1.2518 -0.4927  0.0202
   24MOL   H172 7578   1.792   0.291   4.950  2.1468 -1.5731 -2.3316
   24MOL   H173 7579   1.576   0.487   5.081 -0.3089  0.3361 -0.0386
   24MOL   H174 7580   1.623   0.410   5.228  1.1207  0.7417  0.2129
   24MOL   H175 7581   1.624   0.315   5.091  0.4403 -0.9888  1.7938
   24MOL   H176 7582   1.977   0.540   5.147 -0.9247  0.5364 -1.2363
   24MOL   H177 7583   1.838   0.574   5.259  0.4797  1.6420  0.1445
   24MOL   C178 7584   1.993   0.346   4.957  0.2126  0.2068 -0.2658
   24MOL   C179 7585   2.035   0.265   4.829  0.0341  0.1440  0.0180
   24MOL   C180 7586   2.045   0.263   5.083  0.2694 -0.7800  0.7227
   24MOL   C181 7587   2.191   0.305   5.099 -0.3181  0.0534  0.4368
   24MOL   C182 7588   2.221   0.437   5.175  0.2286  0.3102  0.6591
   24MOL   C183 7589   2.293   0.239   5.049 -0.3508 -0.2846 -0.1063
   24MOL   H184 7590   2.053   0.437   4.961  0.4519 -0.0175  1.5770
   24MOL   H185 7591   1.979   0.172   4.821  0.9592 -0.3469 -0.9405
   24MOL   H186 7592   2.139   0.234   4.831  0.0627  0.2718  0.6223
   24MOL   H187 7593   2.029   0.333   4.744  0.9742 -0.8686 -0.8820
   24MOL   H188 7594   1.989   0.291   5.172 -0.6117  1.4084 -0.4714
   24MOL   H189 7595   2.319   0.423   5.219 -0.0048 -0.0867  1.0569
   24MOL   H190 7596   2.148   0.449   5.255  0.0165 -0.2801  0.5588
   24MOL   H191 7597   2.204   0.524   5.111 -0.1416  0.6949  1.2756
   24MOL   H192 7598   2.279   0.145   4.998 -1.0494  0.0759 -0.5856
   24MOL   H193 7599   2.394   0.277   5.056 -0.2123 -0.8743  1.2712
   24MOL   C194 7600   2.019   0.114   5.090  0.5344 -0.0780  0.9440
   24MOL   C195 7601   1.870   0.073   5.054  0.2313 -0.2641 -0.5451
   24MOL   C196 7602   2.084   0.038   5.221 -0.3084  0.0727 -0.1534
   24MOL   C197 7603   2.137   7.789   5.178 -0.4864 -0.2416 -0.0967
   24MOL   C198 7604   2.037   7.694   5.106 -0.8103 -0.0290  0.1905
   24MOL   C199 7605   2.266   7.754   5.184 -0.1955  0.1548 -0.1591
   24MOL   H200 7606   2.079   0.062   5.016  0.8336 -0.7250  1.6347
   24MOL   H201 7607   1.848   7.859   5.061  1.3178 -0.4352  0.4596
   24MOL   H202 7608   1.832   0.087   4.953  0.6491 -0.0410 -0.6751
   24MOL   H203 7609   1.793   0.121   5.115  0.6668 -0.5111  0.1999
   24MOL   H204 7610   2.179   0.087   5.243 -0.2782 -1.3054  2.9226
   24MOL   H205 7611   2.009   7.728   5.006 -0.0294  1.4641  0.4669
   24MOL   H206 7612   1.947   7.693   5.168 -0.5595 -1.6870  0.5706
   24MOL   H207 7613   2.077   7.594   5.092 -0.8553  0.1051 -0.9257
   24MOL   H208 7614   2.349   7.816   5.214  0.2621 -1.3505  1.8116
   24MOL   H209 7615   2.299   7.661   5.139  4.1880  2.2520 -1.5729
   24MOL   C210 7616   2.000   0.049   5.355  0.2325 -0.1646  0.4075
   24MOL   C211 7617   1.934   0.190   5.380 -0.5906 -0.2532 -0.6877
   24MOL   C212 7618   2.070   0.012   5.486  0.2006 -0.2378  0.3326
   24MOL   C213 7619   2.173   0.114   5.529 -0.0841 -0.0904 -0.1732
   24MOL   C214 7620   2.307   0.103   5.469  0.2841  0.1311  0.2589
   24MOL   C215 7621   2.152   0.212   5.619 -0.4546 -0.0167  0.3379
   24MOL   H216 7622   1.913   7.877   5.349 -1.2245  1.6145  2.0145
   24MOL   H217 7623   1.883   0.202   5.475  2.1113  0.9026  0.6806
   24MOL   H218 7624   1.859   0.212   5.304 -1.1699  1.2249  0.2952
   24MOL   H219 7625   2.011   0.267   5.386 -0.0060 -0.8564 -0.4551
   24MOL   H220 7626   1.985   0.030   5.551  0.6392  1.1529  0.5329
   24MOL   H221 7627   2.319   7.891   5.442 -2.4100  0.6481 -3.3515
   24MOL   H222 7628   2.379   0.114   5.550  1.5203 -0.3208 -0.7733
   24MOL   H223 7629   2.330   0.172   5.388  1.8341 -1.1167 -0.3783
   24MOL   H224 7630   2.054   0.211   5.664 -1.2829 -0.0970 -1.4281
   24MOL   H225 7631   2.224   0.288   5.646  1.6994 -1.2463 -1.7265
   24MOL   C226 7632   2.106   7.759   5.511 -0.2575  0.7351 -0.1690
   24MOL   C227 7633   1.984   7.676   5.476  0.0991  0.2670 -0.3693
   24MOL   C228 7634   2.154   7.709   5.653 -0.4054  0.2232 -0.1103
   24MOL   C229 7635   2.159   7.811   5.767 -0.2780  0.4931  0.4757
   24MOL   C230 7636   2.033   7.858   5.844 -0.5973 -0.1126  0.3556
   24MOL   C231 7637   2.274   7.862   5.807 -0.3477 -0.5302  0.1503
   24MOL   H232 7638   2.178   7.732   5.433  0.1318 -0.0920  0.4704
   24MOL   H233 7639   1.964   7.663   5.370  0.5996 -0.8241 -0.3326
   24MOL   H234 7640   1.905   7.712   5.542 -0.7433 -0.4185 -0.9942
   24MOL   H235 7641   1.997   7.572   5.505 -1.4456  0.2270  0.2396
   24MOL   H236 7642   2.076   7.644   5.690  1.4544 -1.9538  0.0831
   24MOL   H237 7643   1.977   7.766   5.866 -1.1861  0.3911  0.9757
   24MOL   H238 7644   1.964   0.014   5.775  3.4272  2.4786 -2.0040
   24MOL   H239 7645   2.037   0.030   5.932  0.3034  0.9466 -0.4600
   24MOL   H240 7646   2.365   7.833   5.756 -0.9461  0.2241 -1.3766
   24MOL   H241 7647   2.283   0.035   5.892 -0.2927 -0.1024 -0.1882
   24MOL   C242 7648   2.279   7.611   5.650  0.6258  0.1993  0.6014
   24MOL   C243 7649   2.266   7.492   5.543 -0.1284  0.6830  1.0099
   24MOL   C244 7650   2.330   7.542   5.778 -0.6004  0.4019 -0.5152
   24MOL   C245 7651   2.477   7.540   5.778 -0.5778 -0.5758  0.5036
   24MOL   C246 7652   2.550   7.664   5.820  0.5382  1.1647  0.2147
   24MOL   C247 7653   2.554   7.443   5.718  0.4388  0.3035 -0.0823
   24MOL   H248 7654   2.367   7.659   5.607 -1.1759  1.3644 -1.8831
   24MOL   H249 7655   2.189   7.423   5.575  2.1313 -2.8573 -0.8466
   24MOL   H250 7656   2.362   7.440   5.537 -1.6579 -2.2911  1.3636
   24MOL   H251 7657   2.252   7.542   5.447 -3.0310  0.4984  1.3031
   24MOL   H252 7658   2.301   7.611   5.857 -0.4532  0.0484 -0.1532
   24MOL   H253 7659   2.646   7.624   5.853 -1.0902 -1.8488  1.4919
   24MOL   H254 7660   2.500   7.718   5.900 -1.5147  1.4268 -1.1894
   24MOL   H255 7661   2.583   7.733   5.742  1.4687 -1.3514 -1.6949
   24MOL   H256 7662   2.520   7.348   5.679  0.4929  1.0713 -2.0710
   24MOL   H257 7663   2.661   7.448   5.702  0.4428 -4.1280 -2.1381
   24MOL   C258 7664   2.270   7.411   5.830 -0.4016  0.0554  0.6895
   24MOL   C259 7665   2.117   7.429   5.855 -0.0094 -1.3157  0.0594
   24MOL   C260 7666   2.335   7.331   5.953 -0.4812  0.7614 -0.0577
   24MOL   C261 7667   2.291   7.180   5.949 -0.0604 -0.3665  0.3752
   24MOL   C262 7668   2.161   7.135   6.003 -0.1520  0.2554  0.5037
   24MOL   C263 7669   2.372   7.089   5.881 -0.0741  0.5269  0.6174
   24MOL   H264 7670   2.277   7.333   5.754 -2.7904 -0.3932  0.8568
   24MOL   H265 7671   2.061   7.414   5.763 -0.6336 -0.7388  0.3461
   24MOL   H266 7672   2.095   7.527   5.897  0.3975 -0.5858 -1.3874
   24MOL   H267 7673   2.077   7.355   5.925 -0.0143  1.1259  2.7308
   24MOL   H268 7674   2.441   7.326   5.928 -0.2257 -2.9994  1.4505
   24MOL   H269 7675   2.075   7.161   5.941 -0.5057  0.9114  1.2635
   24MOL   H270 7676   2.120   7.162   6.101 -0.8983  0.2664  0.1917
   24MOL   H271 7677   2.145   7.027   6.005 -1.0334  0.3720 -0.3383
   24MOL   H272 7678   2.463   7.121   5.832 -0.2109  0.6958  0.4766
   24MOL   H273 7679   2.349   6.983   5.879  2.8904 -0.1671  0.0835
   24MOL   C274 7680   2.334   7.384   6.107  0.0061  1.0061  0.1707
   24MOL   C275 7681   2.223   7.496   6.144  0.0514 -0.0031 -0.5681
   24MOL   C276 7682   2.481   7.419   6.162 -0.0792  0.2035  0.0113
   24MOL   C277 7683   2.598   7.329   6.123  0.2938  0.1361 -1.2836
   24MOL   C278 7684   2.577   7.185   6.165 -0.1491 -0.2437  0.5034
   24MOL   C279 7685   2.713   7.374   6.070  0.3508 -0.3554 -0.2914
   24MOL   H280 7686   2.300   7.300   6.168  0.7397 -0.5927 -1.5625
   24MOL   H281 7687   2.239   7.587   6.086  1.7362  0.7773  1.0381
   24MOL   H282 7688   2.231   7.523   6.249 -0.8138 -2.5421  0.1741
   24MOL   H283 7689   2.123   7.458   6.125 -0.5146  0.9138  0.5312
   24MOL   H284 7690   2.504   7.509   6.105  3.6710  0.0883  1.1425
   24MOL   H285 7691   2.475   7.149   6.147 -0.2870 -0.4458  1.6871
   24MOL   H286 7692   2.618   7.178   6.265  0.4232 -0.9818  0.2186
   24MOL   H287 7693   2.636   7.124   6.097 -2.9780  1.0651 -3.3441
   24MOL   H288 7694   2.728   7.476   6.036  0.5748 -0.6764 -1.1792
   24MOL   H289 7695   2.805   7.320   6.052 -0.6697 -2.2661  0.1896
   24MOL   C290 7696   2.501   7.459   6.320 -0.6870  0.5754  0.4473
   24MOL   C291 7697   2.407   7.371   6.416 -0.1298  0.2536  0.0324
   24MOL   C292 7698   2.507   7.613   6.338  0.0700  0.0452 -0.0583
   24MOL   C293 7699   2.619   7.682   6.266 -0.3355  0.1921  0.1386
   24MOL   C294 7700   2.759   7.644   6.306  0.9086 -0.7530  0.5046
   24MOL   C295 7701   2.596   7.771   6.162  0.2005 -0.3070  0.1653
   24MOL   H296 7702   2.598   7.434   6.363 -1.3859 -0.7747  1.2644
   24MOL   H297 7703   2.426   7.401   6.519  0.7274 -0.3799  0.0583
   24MOL   H298 7704   2.417   7.263   6.419 -0.9024  0.2121  1.6081
   24MOL   H299 7705   2.305   7.402   6.394 -0.4544  0.0502  1.2171
   24MOL   H300 7706   2.418   7.638   6.279 -0.7033 -1.8836  0.2538
   24MOL   H301 7707   2.786   7.542   6.281  1.9224 -0.1692 -0.8742
   24MOL   H302 7708   2.776   7.659   6.412 -0.5310  0.6247  0.5778
   24MOL   H303 7709   2.835   7.710   6.265  0.3863 -1.4688 -1.7128
   24MOL   H304 7710   2.495   7.789   6.128 -0.9288 -3.5681  1.6377
   24MOL   H305 7711   2.680   7.817   6.112  0.5320 -0.0877  0.9161
   24MOL   C306 7712   2.459   7.691   6.465  0.7056  0.2177 -0.3777
   24MOL   C307 7713   2.559   7.684   6.584 -0.2853  0.0498  0.0313
   24MOL   C308 7714   2.317   7.655   6.518  0.4647 -0.3894 -0.1328
   24MOL   C309 7715   2.252   7.771   6.601 -0.0736  0.0637  0.6383
   24MOL   C310 7716   2.217   7.889   6.511 -0.4602 -0.1812  0.3603
   24MOL   C311 7717   2.232   7.773   6.732  0.1911  0.1043 -0.5370
   24MOL   H312 7718   2.453   7.794   6.431  0.7751  0.2481 -0.2981
   24MOL   H313 7719   2.568   7.581   6.617 -1.2318  0.2593  0.9819
   24MOL   H314 7720   2.517   7.741   6.667 -1.2028 -0.4467 -0.0837
   24MOL   H315 7721   2.653   7.737   6.568  0.7594 -1.1989  1.8907
   24MOL   H316 7722   2.252   7.633   6.433 -0.7785  0.1521  0.6703
   24MOL   H317 7723   2.163   7.852   6.423  0.1330  1.5544 -0.7631
   24MOL   H318 7724   2.301   0.061   6.485 -0.3041 -0.9081 -1.0223
   24MOL   H319 7725   2.156   0.067   6.567  1.3822  0.5607  1.4774
   24MOL   H320 7726   2.258   7.686   6.791  0.4841  0.1499 -0.6028
   24MOL   H321 7727   2.187   7.857   6.783  1.2073  1.6127 -2.1099
   24MOL   H322 7728   2.298   7.560   6.568 -1.3542  1.5620  3.0140
   25MOL     C1 7729   5.064   1.325   3.768 -0.5818  0.5995  0.5466
   25MOL     C2 7730   5.162   1.206   3.739 -0.4053  0.0697 -0.2636
   25MOL     C3 7731   5.013   1.395   3.640 -0.2616  0.0961 -0.0367
   25MOL     C4 7732   5.121   1.466   3.555 -0.5038 -0.0372 -0.0428
   25MOL     C5 7733   5.076   1.502   3.418  0.0201 -0.2880  0.0867
   25MOL     C6 7734   5.238   1.513   3.604  0.5589  0.2775 -0.3288
   25MOL     H7 7735   4.973   1.276   3.800 -1.9955  2.3564 -0.6875
   25MOL     H8 7736   5.112   1.120   3.695 -1.0589  0.4506 -0.2676
   25MOL     H9 7737   5.213   1.178   3.832 -0.6141  0.6579  0.0292
   25MOL    H10 7738   5.237   1.239   3.668 -1.3866  2.2172 -0.3406
   25MOL    H11 7739   4.991   1.317   3.567 -0.9200 -0.8573  1.1550
   25MOL    H12 7740   5.035   1.603   3.422  0.4896 -0.0720 -0.5705
   25MOL    H13 7741   4.993   1.436   3.392  0.1896 -0.1172 -0.8909
   25MOL    H14 7742   5.152   1.494   3.340 -0.4956 -1.7118 -0.2826
   25MOL    H15 7743   5.266   1.491   3.706  0.9763  2.8944  0.1599
   25MOL    H16 7744   5.306   1.569   3.542  0.2701  0.1866 -0.7288
   25MOL    H17 7745   5.103   1.386   3.849 -1.6048  1.0600  0.6985
   25MOL    C18 7746   4.893   1.490   3.664  0.1695 -0.3835 -0.0796
   25MOL    C19 7747   4.923   1.604   3.764 -0.6366  0.4050 -0.1395
   25MOL    C20 7748   4.757   1.421   3.687  0.0698  0.0608 -0.1408
   25MOL    C21 7749   4.741   1.296   3.599 -0.0877  0.4174 -0.5207
   25MOL    C22 7750   4.716   1.167   3.677 -0.5810 -0.4490 -0.0811
   25MOL    C23 7751   4.751   1.302   3.462  0.6420  0.0047 -0.1273
   25MOL    H24 7752   4.892   1.532   3.564  1.3133 -0.7310 -0.2465
   25MOL    H25 7753   5.019   1.649   3.738 -0.2407 -0.1811  0.2756
   25MOL    H26 7754   4.909   1.564   3.865  1.5178 -0.6640 -0.2312
   25MOL    H27 7755   4.857   1.690   3.756 -1.4597 -0.2898 -0.9353
   25MOL    H28 7756   4.770   1.388   3.791 -0.8527 -0.7579 -0.2870
   25MOL    H29 7757   4.685   1.171   3.781  2.0744 -0.8467  0.7473
   25MOL    H30 7758   4.818   1.128   3.670 -0.8517 -0.9474 -1.5010
   25MOL    H31 7759   4.649   1.097   3.628 -0.4792 -0.3472 -0.3669
   25MOL    H32 7760   4.760   1.400   3.417  0.9543  0.6056  1.1907
   25MOL    H33 7761   4.753   1.211   3.405  2.2792 -0.3385  0.4493
   25MOL    C34 7762   4.625   1.512   3.694  0.0470  0.3228 -0.6996
   25MOL    C35 7763   4.636   1.611   3.580  0.0092 -0.2023 -0.2039
   25MOL    C36 7764   4.569   1.562   3.830 -0.1542 -0.2658  0.2664
   25MOL    C37 7765   4.584   1.454   3.942  0.3307 -0.0978 -0.0286
   25MOL    C38 7766   4.503   1.324   3.952 -0.3569 -0.9707  0.4447
   25MOL    C39 7767   4.670   1.478   4.037 -0.2139 -0.5560  0.0630
   25MOL    H40 7768   4.552   1.439   3.659  0.3100 -1.0199  1.5082
   25MOL    H41 7769   4.546   1.673   3.579 -1.3963 -2.2195 -1.0792
   25MOL    H42 7770   4.629   1.565   3.481 -1.2915 -0.0819 -0.1814
   25MOL    H43 7771   4.724   1.675   3.584 -0.2223  0.0239  1.3879
   25MOL    H44 7772   4.641   1.640   3.856 -0.7581  0.7615 -1.0299
   25MOL    H45 7773   4.528   1.259   4.036  0.6985 -0.9457  0.1517
   25MOL    H46 7774   4.524   1.271   3.859  1.2078 -2.9444  1.8803
   25MOL    H47 7775   4.395   1.336   3.947 -0.1654  0.5754 -0.2158
   25MOL    H48 7776   4.738   1.562   4.045 -1.4919  0.3942  1.1002
   25MOL    H49 7777   4.678   1.403   4.114 -0.5347 -1.3821 -0.6974
   25MOL    C50 7778   4.435   1.644   3.843 -0.0625 -0.3064  0.4902
   25MOL    C51 7779   4.319   1.591   3.754 -0.1451 -0.1268  0.1616
   25MOL    C52 7780   4.444   1.803   3.854 -0.1412 -0.2176  0.3046
   25MOL    C53 7781   4.516   1.859   3.736 -0.2344 -0.1403 -0.4549
   25MOL    C54 7782   4.424   1.883   3.613  0.1580  0.5185  0.5382
   25MOL    C55 7783   4.641   1.907   3.734 -0.5056  0.3330 -0.6618
   25MOL    H56 7784   4.389   1.605   3.934 -2.4290 -1.0703 -0.9984
   25MOL    H57 7785   4.223   1.641   3.772  0.1529  0.5702 -0.1685
   25MOL    H58 7786   4.317   1.482   3.756 -1.2908 -0.1054  1.0393
   25MOL    H59 7787   4.342   1.605   3.648 -1.9804 -0.5545 -0.3262
   25MOL    H60 7788   4.340   1.835   3.861 -0.5516 -1.5595  0.5142
   25MOL    H61 7789   4.487   1.902   3.527 -0.0036 -1.9271 -0.1737
   25MOL    H62 7790   4.357   1.966   3.634  0.2605  1.5008 -2.7216
   25MOL    H63 7791   4.355   1.803   3.585  0.4575 -0.0048  1.2727
   25MOL    H64 7792   4.710   1.904   3.817  0.3049 -0.2878 -1.3533
   25MOL    H65 7793   4.688   1.957   3.651 -0.9658  1.8115 -0.0498
   25MOL    C66 7794   4.492   1.860   3.999 -0.6008  0.2797  1.0120
   25MOL    C67 7795   4.437   1.790   4.120 -0.3438  0.1408  0.6338
   25MOL    C68 7796   4.496   2.016   4.005 -0.5187  0.1684 -0.1150
   25MOL    C69 7797   4.637   2.068   4.054  0.2132  0.5320  0.0307
   25MOL    C70 7798   4.677   2.058   4.201 -0.0167 -0.5238 -0.9032
   25MOL    C71 7799   4.709   2.142   3.970  0.2944  0.4936 -0.8136
   25MOL    H72 7800   4.596   1.828   3.997 -0.2169  1.5190 -0.3047
   25MOL    H73 7801   4.457   1.828   4.220  1.9696 -1.9816  1.0309
   25MOL    H74 7802   4.475   1.688   4.131  0.4068  0.3210 -0.2278
   25MOL    H75 7803   4.329   1.780   4.109 -0.3937 -1.3969  2.3949
   25MOL    H76 7804   4.489   2.045   3.901 -0.1536  0.8707  0.0548
   25MOL    H77 7805   4.783   2.080   4.216 -0.2041 -0.1136 -0.2088
   25MOL    H78 7806   4.674   1.956   4.240  1.3058 -0.3670 -0.3784
   25MOL    H79 7807   4.604   2.119   4.253  2.5544 -0.8130  3.2533
   25MOL    H80 7808   4.674   2.166   3.871 -0.4153 -0.2321 -0.7445
   25MOL    H81 7809   4.801   2.189   4.000  0.0747  1.4629 -1.6380
   25MOL    C82 7810   4.376   2.094   4.067  0.0290  0.1491 -0.2972
   25MOL    C83 7811   4.233   2.035   4.048 -0.1410  0.3116 -0.1266
   25MOL    C84 7812   4.389   2.252   4.058  0.3948  0.1948  0.1260
   25MOL    C85 7813   4.365   2.322   4.193 -0.7400 -0.0805  0.8465
   25MOL    C86 7814   4.220   2.326   4.245 -0.3390 -0.3513 -0.0502
   25MOL    C87 7815   4.460   2.382   4.267  0.4391  0.0667  0.3761
   25MOL    H88 7816   4.405   2.086   4.171  1.5923 -0.4920 -0.7588
   25MOL    H89 7817   4.207   1.961   4.123  0.3682 -0.9503 -1.1661
   25MOL    H90 7818   4.202   1.995   3.951 -1.0194 -0.8960  0.6315
   25MOL    H91 7819   4.161   2.112   4.075 -0.8014 -0.8819  1.5847
   25MOL    H92 7820   4.493   2.282   4.046  0.3112  0.1754 -0.6677
   25MOL    H93 7821   4.175   2.228   4.262 -4.0286  1.1114 -0.9352
   25MOL    H94 7822   4.160   2.370   4.165  1.6823 -2.0456 -2.5671
   25MOL    H95 7823   4.209   2.386   4.336  0.7596 -0.9790  0.5026
   25MOL    H96 7824   4.565   2.388   4.242  0.2288 -0.4041 -0.6233
   25MOL    H97 7825   4.433   2.432   4.360  0.6200  0.3860  0.2588
   25MOL    C98 7826   4.313   2.314   3.938 -0.5269  0.6293 -0.1308
   25MOL    C99 7827   4.339   2.254   3.799 -0.0223  0.3111  0.1513
   25MOL   C100 7828   4.324   2.476   3.931 -0.2899  1.0028  0.0771
   25MOL   C101 7829   4.186   2.530   3.903 -0.4439  0.3295  0.2638
   25MOL   C102 7830   4.106   2.487   3.777  0.8468  0.8758 -0.0083
   25MOL   C103 7831   4.128   2.607   3.993  0.0145 -0.4696  0.5069
   25MOL   H104 7832   4.211   2.301   3.972 -0.0555 -2.0177  0.3586
   25MOL   H105 7833   4.447   2.244   3.792 -0.1031 -0.9646  0.7574
   25MOL   H106 7834   4.315   2.317   3.713 -1.0413 -0.0287  0.1799
   25MOL   H107 7835   4.287   2.160   3.786  1.3622 -0.1969 -1.9679
   25MOL   H108 7836   4.348   2.516   4.030 -1.2763 -1.9218  1.5726
   25MOL   H109 7837   4.020   2.548   3.751 -0.1120 -0.9234 -1.1699
   25MOL   H110 7838   4.071   2.384   3.789 -1.6621  1.6226 -0.6917
   25MOL   H111 7839   4.175   2.493   3.693 -0.6477  0.4099 -1.3074
   25MOL   H112 7840   4.177   2.640   4.083 -1.2632 -2.2450  1.8882
   25MOL   H113 7841   4.026   2.633   3.967  0.1710 -0.7039 -0.3695
   25MOL   C114 7842   4.441   2.551   3.847  0.8107  0.4273  0.4599
   25MOL   C115 7843   4.579   2.484   3.887  0.1445  0.2639 -0.6431
   25MOL   C116 7844   4.433   2.710   3.858 -0.4168  0.0547 -0.0316
   25MOL   C117 7845   4.302   2.783   3.807  0.3219 -0.0878 -0.5784
   25MOL   C118 7846   4.252   2.908   3.887  0.8987  0.3306 -0.1296
   25MOL   C119 7847   4.249   2.760   3.683 -0.4162  0.0972  0.1695
   25MOL   H120 7848   4.441   2.527   3.741 -0.2894  1.9921  0.0859
   25MOL   H121 7849   4.660   2.535   3.834  1.9862 -2.1328 -0.2800
   25MOL   H122 7850   4.584   2.376   3.872  0.4730 -0.0659  1.6976
   25MOL   H123 7851   4.597   2.501   3.993  0.3932 -1.8649 -0.3177
   25MOL   H124 7852   4.425   2.731   3.965  1.2449  0.0286  0.1114
   25MOL   H125 7853   4.244   2.995   3.823 -0.0382  0.3107 -0.0377
   25MOL   H126 7854   4.324   2.927   3.967 -1.1145 -1.8745  2.2805
   25MOL   H127 7855   4.157   2.878   3.930  0.4418  1.0799 -0.6216
   25MOL   H128 7856   4.288   2.681   3.621  2.0178  0.3235  1.3487
   25MOL   H129 7857   4.168   2.814   3.636 -1.5360 -1.3278  0.4290
   25MOL   C130 7858   4.557   2.800   3.805  0.0373  0.4432  0.4340
   25MOL   C131 7859   4.595   2.747   3.665 -0.3980  0.4066  0.7252
   25MOL   C132 7860   4.667   2.838   3.912 -0.3811 -0.1018  0.1048
   25MOL   C133 7861   4.614   2.920   4.037 -0.4266  0.1592  0.5159
   25MOL   C134 7862   4.604   3.073   4.029 -0.0944  0.4958 -0.7610
   25MOL   C135 7863   4.591   2.861   4.156 -0.4534  0.1506  0.4537
   25MOL   H136 7864   4.512   2.898   3.787  0.7255  0.8751  1.0117
   25MOL   H137 7865   4.648   2.823   3.608  1.6013 -0.6475  1.1465
   25MOL   H138 7866   4.512   2.717   3.601  0.4913  0.2823 -0.3803
   25MOL   H139 7867   4.665   2.664   3.672  0.6678  1.1716 -0.6009
   25MOL   H140 7868   4.679   2.735   3.945 -1.4204  0.8309  3.5611
   25MOL   H141 7869   4.537   3.128   4.095 -1.3632 -1.4766 -0.3716
   25MOL   H142 7870   4.573   3.095   3.927 -0.3931  0.0586 -0.7692
   25MOL   H143 7871   4.700   3.118   4.054 -0.7259  2.5516 -1.9495
   25MOL   H144 7872   4.610   2.754   4.157  0.2211  0.2750  2.5532
   25MOL   H145 7873   4.554   2.915   4.241 -0.3683  1.5818 -0.4116
   25MOL   C146 7874   4.801   2.898   3.862  0.6761  0.8100 -0.0314
   25MOL   C147 7875   4.781   2.990   3.735  0.0329  0.1792  0.0615
   25MOL   C148 7876   4.919   2.790   3.837  0.2889  0.4928 -0.0712
   25MOL   C149 7877   4.943   2.692   3.953  0.2049 -0.7040  0.0970
   25MOL   C150 7878   4.990   2.547   3.929 -0.0022 -0.5575  0.6452
   25MOL   C151 7879   4.925   2.731   4.077 -0.0846  0.3772 -0.5373
   25MOL   H152 7880   4.837   2.969   3.936 -1.5646 -0.4368  2.3399
   25MOL   H153 7881   4.676   3.018   3.723  0.2563  0.3193 -1.8129
   25MOL   H154 7882   4.799   2.939   3.641  1.2669  0.9559 -0.1303
   25MOL   H155 7883   4.850   3.074   3.736 -0.4305  0.5711 -0.5835
   25MOL   H156 7884   4.885   2.725   3.757  0.6107 -1.3754  1.2644
   25MOL   H157 7885   4.922   2.505   3.854 -0.0093  0.3497  0.1335
   25MOL   H158 7886   4.992   2.486   4.019  0.4923 -1.1019  0.2703
   25MOL   H159 7887   5.092   2.545   3.891 -0.9369  1.7310 -2.1794
   25MOL   H160 7888   4.888   2.832   4.094 -0.4294  0.2557 -0.5649
   25MOL   H161 7889   4.941   2.665   4.161 -1.3275  0.2564 -0.3876
   25MOL   C162 7890   5.062   2.830   3.774 -0.0189  0.0583 -0.0046
   25MOL   C163 7891   5.111   2.961   3.847  0.8017 -0.1284  0.5051
   25MOL   C164 7892   5.072   2.839   3.609 -0.2622  0.4823 -0.2068
   25MOL   C165 7893   5.016   2.714   3.540  0.1580  0.6588 -0.2849
   25MOL   C166 7894   5.075   2.581   3.577 -0.4147 -0.2384  0.9416
   25MOL   C167 7895   4.908   2.725   3.461  0.2259  0.0005 -0.1860
   25MOL   H168 7896   5.134   2.755   3.805  1.3756  1.5251  0.3129
   25MOL   H169 7897   5.063   3.056   3.823 -2.0032 -1.2801  1.3794
   25MOL   H170 7898   5.218   2.976   3.832  0.7534  0.2526  0.5420
   25MOL   H171 7899   5.102   2.955   3.955 -2.0929 -1.1556  0.2319
   25MOL   H172 7900   5.006   2.919   3.577  0.5390  0.1474 -2.8052
   25MOL   H173 7901   5.039   2.508   3.505  1.1022  1.5440 -1.6884
   25MOL   H174 7902   5.049   2.547   3.677  0.0999  0.0820  1.1854
   25MOL   H175 7903   5.183   2.578   3.569 -0.5615 -0.0721 -1.5081
   25MOL   H176 7904   4.857   2.818   3.441  1.3492  0.7889  0.5950
   25MOL   H177 7905   4.877   2.635   3.410  0.9323  0.1820 -0.9445
   25MOL   C178 7906   5.213   2.878   3.546 -0.2086  0.7211 -0.8828
   25MOL   C179 7907   5.335   2.820   3.629 -0.4191 -0.8608  0.0097
   25MOL   C180 7908   5.223   3.030   3.517 -0.7527 -0.8837 -0.0528
   25MOL   C181 7909   5.102   3.087   3.439  0.4738  0.1787 -0.5436
   25MOL   C182 7910   5.075   3.047   3.296  0.4128 -0.3790  0.2771
   25MOL   C183 7911   5.016   3.168   3.504  0.2674 -0.2899  0.6061
   25MOL   H184 7912   5.220   2.827   3.450 -0.6396  0.5003 -0.7960
   25MOL   H185 7913   5.344   2.846   3.735  1.0627  1.9506 -0.7431
   25MOL   H186 7914   5.432   2.851   3.591 -0.7849 -0.2211 -0.4169
   25MOL   H187 7915   5.339   2.712   3.615  3.1863 -0.6150 -1.3765
   25MOL   H188 7916   5.218   3.066   3.620 -2.0512 -0.4005 -0.2671
   25MOL   H189 7917   4.971   3.033   3.268  0.3952  0.9175 -0.3527
   25MOL   H190 7918   5.120   2.950   3.274  0.3372 -0.1660 -0.8018
   25MOL   H191 7919   5.125   3.121   3.233 -0.2970 -0.7727 -0.7601
   25MOL   H192 7920   5.032   3.184   3.609  1.2148  1.4769  0.2093
   25MOL   H193 7921   4.933   3.208   3.448  0.6128 -0.5307 -0.0901
   25MOL   C194 7922   5.359   3.093   3.461 -0.0595 -0.2684 -0.4040
   25MOL   C195 7923   5.422   3.009   3.352 -0.7731  0.6389  0.4603
   25MOL   C196 7924   5.451   3.146   3.572 -0.0424 -0.2022 -0.2325
   25MOL   C197 7925   5.384   3.251   3.656  0.1758  0.5391 -0.1230
   25MOL   C198 7926   5.418   3.263   3.810  0.1412  0.2850 -0.5721
   25MOL   C199 7927   5.279   3.327   3.611  0.3665  0.1629 -0.3434
   25MOL   H200 7928   5.333   3.172   3.391  0.1074  0.5921  0.4800
   25MOL   H201 7929   5.360   2.993   3.263  0.3669 -1.2831 -0.0264
   25MOL   H202 7930   5.464   2.915   3.388  1.4497  0.9221 -1.3001
   25MOL   H203 7931   5.503   3.065   3.306 -0.2955 -0.8978 -0.6346
   25MOL   H204 7932   5.456   3.056   3.633 -0.7875 -1.0451 -1.3877
   25MOL   H205 7933   5.526   3.268   3.824 -0.1094  0.3053  1.4833
   25MOL   H206 7934   5.402   3.181   3.880  3.4007  0.3979  0.3962
   25MOL   H207 7935   5.361   3.347   3.849 -0.0040 -0.6190  1.1791
   25MOL   H208 7936   5.257   3.326   3.505  1.1939 -2.8157 -0.5453
   25MOL   H209 7937   5.218   3.386   3.677 -0.3539  0.1450 -0.9907
   25MOL   C210 7938   5.593   3.206   3.537 -0.7189 -0.3653  0.5836
   25MOL   C211 7939   5.572   3.317   3.430 -0.6711  0.0269 -0.6017
   25MOL   C212 7940   5.704   3.111   3.501  0.0542  0.5940  0.9823
   25MOL   C213 7941   5.713   2.990   3.599  0.3092  0.2821  0.8013
   25MOL   C214 7942   5.745   2.857   3.532 -0.2297  0.1236 -0.8047
   25MOL   C215 7943   5.701   2.992   3.732  0.3869 -0.1133 -0.1025
   25MOL   H216 7944   5.631   3.251   3.629  1.6776  0.3520 -0.7339
   25MOL   H217 7945   5.481   3.368   3.462 -0.2576 -0.6711  1.7947
   25MOL   H218 7946   5.581   3.295   3.324  0.5034 -2.0343 -0.0940
   25MOL   H219 7947   5.643   3.399   3.437 -0.8125  0.4165 -3.3565
   25MOL   H220 7948   5.675   3.059   3.410 -0.7461 -2.3488  2.8585
   25MOL   H221 7949   5.663   2.819   3.471  0.9735 -1.2450 -1.6215
   25MOL   H222 7950   5.783   2.783   3.602 -0.8335  0.9175  0.3604
   25MOL   H223 7951   5.829   2.871   3.463  0.3903 -2.5958 -0.6548
   25MOL   H224 7952   5.686   3.076   3.798  1.5148  1.1512 -1.4355
   25MOL   H225 7953   5.705   2.901   3.789  0.9148  0.5852  0.9803
   25MOL   C226 7954   5.843   3.175   3.468  0.1630 -0.3143 -0.3803
   25MOL   C227 7955   5.887   3.267   3.580 -1.0732 -0.2988 -0.2672
   25MOL   C228 7956   5.863   3.225   3.318  0.2833  0.4796  0.2497
   25MOL   C229 7957   5.821   3.119   3.212  0.3606  0.1163  0.2347
   25MOL   C230 7958   5.913   2.998   3.202  0.4099 -0.3841  0.3010
   25MOL   C231 7959   5.710   3.133   3.135 -0.6304 -0.8794  0.5137
   25MOL   H232 7960   5.916   3.095   3.471  1.9233  1.2679  0.0484
   25MOL   H233 7961   5.993   3.287   3.563 -1.0431 -0.1250  0.1243
   25MOL   H234 7962   5.880   3.218   3.677 -0.1580  2.0128  1.0118
   25MOL   H235 7963   5.842   3.367   3.576 -1.9938 -0.6346  1.2867
   25MOL   H236 7964   5.791   3.306   3.311 -1.9603 -1.2385  2.4432
   25MOL   H237 7965   5.855   2.917   3.157  1.8944 -1.4900  0.3233
   25MOL   H238 7966   5.937   2.963   3.303  0.7432  1.9179  1.0530
   25MOL   H239 7967   5.993   3.022   3.132 -0.5833 -4.4388 -2.4270
   25MOL   H240 7968   5.653   3.224   3.144 -0.2709 -0.5471 -0.5606
   25MOL   H241 7969   5.662   3.066   3.065 -0.0318 -0.7238 -0.0440
   25MOL   C242 7970   5.997   3.295   3.278 -0.4385 -0.4629  0.1109
   25MOL   C243 7971   6.123   3.219   3.321  0.2223  0.3555  0.6646
   25MOL   C244 7972   5.999   3.456   3.306 -0.0411  0.5273  0.1851
   25MOL   C245 7973   5.918   3.519   3.193 -0.3486 -0.0389 -0.1347
   25MOL   C246 7974   5.973   3.525   3.053 -0.2023  0.0117 -0.1133
   25MOL   C247 7975   5.794   3.566   3.207 -0.1588 -0.5505  0.1195
   25MOL   H248 7976   6.012   3.284   3.171  3.8965 -1.7444  0.7808
   25MOL   H249 7977   6.220   3.270   3.318  0.1229  0.5125  0.1905
   25MOL   H250 7978   6.138   3.128   3.262  1.1902  0.0475  1.3601
   25MOL   H251 7979   6.125   3.174   3.421  2.9498  0.6607  0.7844
   25MOL   H252 7980   5.933   3.461   3.393 -2.5638  1.0235 -1.6982
   25MOL   H253 7981   5.911   3.593   2.995  0.1876 -1.6656 -2.5318
   25MOL   H254 7982   5.978   3.429   3.001 -2.1844 -0.4720  0.5521
   25MOL   H255 7983   6.066   3.581   3.055 -0.1837 -0.0144 -0.2461
   25MOL   H256 7984   5.755   3.562   3.307 -0.0090  0.4509  0.2233
   25MOL   H257 7985   5.725   3.604   3.133 -1.7819  0.6883  2.2443
   25MOL   C258 7986   6.137   3.527   3.344  0.4950 -0.1197 -0.0066
   25MOL   C259 7987   6.182   3.502   3.494  0.1503 -0.0850 -0.2560
   25MOL   C260 7988   6.135   3.686   3.311  0.3943 -0.0598 -0.5801
   25MOL   C261 7989   6.281   3.727   3.278 -0.1037  0.2832 -0.1079
   25MOL   C262 7990   6.299   3.754   3.128  0.0155 -0.0354 -0.7401
   25MOL   C263 7991   6.381   3.748   3.363 -0.4150  0.4177 -0.2898
   25MOL   H264 7992   6.216   3.487   3.281  0.4773 -1.7780  0.9993
   25MOL   H265 7993   6.191   3.394   3.510 -0.4635 -0.0167  0.5587
   25MOL   H266 7994   6.109   3.529   3.571 -0.5617 -1.8541 -0.2743
   25MOL   H267 7995   6.280   3.543   3.518  0.0338  0.4682 -0.7115
   25MOL   H268 7996   6.075   3.711   3.224 -0.0604  1.3323  0.1321
   25MOL   H269 7997   6.248   3.847   3.102  0.4941  0.3821 -0.1951
   25MOL   H270 7998   6.263   3.679   3.057 -4.1242 -1.1890  2.3549
   25MOL   H271 7999   6.401   3.764   3.093 -0.3525  0.5270 -1.6670
   25MOL   H272 8000   6.374   3.741   3.471  1.6982 -0.4703 -0.1775
   25MOL   H273 8001   6.481   3.774   3.332  0.6584 -2.1907  0.8066
   25MOL   C274 8002   6.082   3.782   3.431 -0.1442 -0.3183 -0.9037
   25MOL   C275 8003   5.948   3.749   3.506  0.4163  0.1834 -0.0520
   25MOL   C276 8004   6.088   3.938   3.408  0.3184  0.0625  0.1666
   25MOL   C277 8005   6.147   4.015   3.529 -0.8061 -0.5484  0.0084
   25MOL   C278 8006   6.067   4.049   3.653 -0.1190 -0.4655 -0.5326
   25MOL   C279 8007   6.278   4.046   3.530  0.3976 -0.5684  0.1224
   25MOL   H280 8008   6.164   3.775   3.502 -2.1019 -1.4839  1.3107
   25MOL   H281 8009   5.933   3.642   3.522  0.5527 -0.0568 -1.4901
   25MOL   H282 8010   5.860   3.786   3.452 -0.4647 -0.0678  1.1729
   25MOL   H283 8011   5.956   3.788   3.608 -0.6640 -1.9005  0.8650
   25MOL   H284 8012   6.153   3.946   3.321 -1.0242 -1.5085 -1.0042
   25MOL   H285 8013   6.025   3.967   3.711 -0.7735  0.2245 -0.0201
   25MOL   H286 8014   5.984   4.106   3.610  0.9652  2.7643  1.5898
   25MOL   H287 8015   6.113   4.116   3.725 -2.0247  2.7727 -2.2193
   25MOL   H288 8016   6.338   4.027   3.441  1.9775 -0.4079  1.1301
   25MOL   H289 8017   6.333   4.094   3.609  0.6140  1.1268 -1.0350
   25MOL   C290 8018   5.953   3.997   3.346 -0.5153 -0.2783  0.7005
   25MOL   C291 8019   5.911   3.934   3.203 -0.9880 -0.6790  0.0067
   25MOL   C292 8020   5.955   4.150   3.324 -0.0174 -0.1807 -0.2701
   25MOL   C293 8021   5.818   4.225   3.359 -0.0931 -0.7540 -0.0096
   25MOL   C294 8022   5.831   4.366   3.420  0.9228 -0.2918  0.2874
   25MOL   C295 8023   5.700   4.178   3.326  0.1184 -0.7102  0.2404
   25MOL   H296 8024   5.871   3.992   3.418 -0.9439 -2.7701  0.0723
   25MOL   H297 8025   5.913   3.826   3.217 -3.3507 -0.5518  1.7225
   25MOL   H298 8026   5.985   3.961   3.127 -0.4849  1.4247  1.1930
   25MOL   H299 8027   5.807   3.955   3.178 -1.2515 -0.1765  1.4763
   25MOL   H300 8028   6.013   4.187   3.408  1.0453 -1.2726 -0.5110
   25MOL   H301 8029   5.741   4.425   3.436  1.4395  0.1259  1.6862
   25MOL   H302 8030   5.899   4.424   3.358  1.2793 -0.7507  0.2398
   25MOL   H303 8031   5.886   4.354   3.513  0.3345  0.4338  0.7312
   25MOL   H304 8032   5.674   4.082   3.282  1.5673 -1.1623  0.3280
   25MOL   H305 8033   5.611   4.237   3.338  0.1785 -0.8409  1.3279
   25MOL   C306 8034   6.030   4.206   3.197  0.0117 -0.3628 -0.5567
   25MOL   C307 8035   6.114   4.321   3.232 -0.1058  0.4071  0.1888
   25MOL   C308 8036   5.935   4.236   3.077 -0.2278 -0.7745  0.7562
   25MOL   C309 8037   6.014   4.269   2.959 -0.0253 -0.3748  0.4676
   25MOL   C310 8038   6.076   4.152   2.885 -1.1505 -0.1898 -0.0525
   25MOL   C311 8039   6.039   4.393   2.917  0.9160  0.4029 -0.6330
   25MOL   H312 8040   6.104   4.130   3.172  2.9547  1.9511  0.7888
   25MOL   H313 8041   6.053   4.410   3.217 -0.4824  0.0688 -0.3253
   25MOL   H314 8042   6.198   4.320   3.162 -0.4879  3.0364 -0.3612
   25MOL   H315 8043   6.148   4.323   3.336 -1.5242  1.7792  0.6391
   25MOL   H316 8044   5.861   4.158   3.057 -1.6479  0.5803  0.6316
   25MOL   H317 8045   6.152   4.108   2.950 -1.6273 -0.2117  0.5003
   25MOL   H318 8046   6.130   4.179   2.795 -1.0687 -1.4706 -0.3899
   25MOL   H319 8047   5.999   4.082   2.852 -1.3801 -1.1321  2.3733
   25MOL   H320 8048   5.983   4.469   2.971  0.6218  0.2512 -0.7226
   25MOL   H321 8049   6.113   4.415   2.841  0.2952  0.7841 -1.1323
   25MOL   H322 8050   5.878   4.325   3.102 -0.9318 -1.3306  1.1301
   26MOL     C1 8051   5.970   0.654   7.198 -0.7742  0.0512  0.1029
   26MOL     C2 8052   6.053   0.549   7.281 -0.0265  0.6440  0.2337
   26MOL     C3 8053   5.995   0.806   7.229  0.8154 -0.2130  0.0978
   26MOL     C4 8054   5.991   0.829   7.383  0.1288 -0.9845 -0.1846
   26MOL     C5 8055   5.869   0.791   7.454  0.0499  1.3950 -0.5208
   26MOL     C6 8056   6.110   0.864   7.440  0.1873 -0.3635 -0.4306
   26MOL     H7 8057   5.996   0.643   7.092  1.7461 -2.6435  0.9337
   26MOL     H8 8058   6.030   0.443   7.274  0.7320  0.4686  0.3362
   26MOL     H9 8059   6.036   0.553   7.388 -0.5477  3.0284  0.1029
   26MOL    H10 8060   6.156   0.560   7.247 -0.1578  1.7110  0.1626
   26MOL    H11 8061   6.094   0.826   7.189  0.2636 -0.2812 -1.3049
   26MOL    H12 8062   5.802   0.875   7.434 -0.6623  0.9491 -0.0136
   26MOL    H13 8063   5.879   0.773   7.561  0.9252  2.4504 -0.4135
   26MOL    H14 8064   5.825   0.702   7.409  1.8534 -0.1406  0.6780
   26MOL    H15 8065   6.197   0.875   7.377  0.1097  3.0068 -0.0581
   26MOL    H16 8066   6.119   0.887   7.545  0.1636  0.8638 -0.6787
   26MOL    H17 8067   5.866   0.622   7.190 -0.5095 -0.9331  0.5389
   26MOL    C18 8068   5.897   0.901   7.145  0.1350 -0.1035  0.6020
   26MOL    C19 8069   5.938   0.906   6.996 -0.1040  0.5391 -0.4295
   26MOL    C20 8070   5.858   1.046   7.199  0.3728  0.0688  0.1351
   26MOL    C21 8071   5.711   1.083   7.157 -0.1107 -0.3028  0.2971
   26MOL    C22 8072   5.610   1.054   7.259  0.0612  0.0785 -0.1517
   26MOL    C23 8073   5.683   1.123   7.031  0.6609 -0.5140  0.1102
   26MOL    H24 8074   5.803   0.845   7.149  1.1265 -1.9061 -0.3887
   26MOL    H25 8075   6.038   0.943   6.971  0.2958  0.2488  0.6993
   26MOL    H26 8076   5.865   0.961   6.936 -1.8643 -1.5982 -0.3279
   26MOL    H27 8077   5.939   0.807   6.951  1.2906  0.1191  0.4899
   26MOL    H28 8078   5.862   1.037   7.308 -1.0266  1.7641  0.3414
   26MOL    H29 8079   5.615   1.115   7.350 -1.1612  1.7217 -1.1487
   26MOL    H30 8080   5.619   0.953   7.300 -1.6413  0.2774  0.8002
   26MOL    H31 8081   5.504   1.072   7.237 -0.0208 -1.4393 -1.0355
   26MOL    H32 8082   5.748   1.158   6.953  0.4993  3.0161  1.4960
   26MOL    H33 8083   5.578   1.144   7.017  0.5823 -1.6637 -1.0912
   26MOL    C34 8084   5.963   1.157   7.182 -0.6613 -0.5059 -0.0547
   26MOL    C35 8085   6.107   1.125   7.218 -0.0693  0.0450 -0.0086
   26MOL    C36 8086   5.907   1.298   7.242  0.4003 -0.6411 -0.1318
   26MOL    C37 8087   5.916   1.405   7.135  0.3366  0.1357  0.6080
   26MOL    C38 8088   5.785   1.457   7.072  0.0944  0.4123  0.4752
   26MOL    C39 8089   6.036   1.452   7.091 -0.6578  0.4804  0.6690
   26MOL    H40 8090   5.964   1.159   7.073  0.7573  2.1004 -0.0381
   26MOL    H41 8091   6.177   1.199   7.178 -0.4037  0.1679 -0.3618
   26MOL    H42 8092   6.145   1.035   7.170  0.6500  0.2566  0.1506
   26MOL    H43 8093   6.135   1.118   7.323  2.6204  1.5617 -0.5676
   26MOL    H44 8094   5.799   1.288   7.243  0.1179  1.9838 -0.8058
   26MOL    H45 8095   5.700   1.446   7.140 -0.4522 -0.1689 -0.2871
   26MOL    H46 8096   5.763   1.392   6.987 -0.5771 -1.1196  1.8072
   26MOL    H47 8097   5.785   1.564   7.052  2.1512  1.1265  3.9143
   26MOL    H48 8098   6.128   1.413   7.131 -0.4713  1.0867  0.8383
   26MOL    H49 8099   6.034   1.535   7.021  2.2407 -0.1722 -0.2298
   26MOL    C50 8100   5.953   1.347   7.382 -0.3557 -0.7528 -0.2607
   26MOL    C51 8101   5.933   1.240   7.496 -0.3967  0.3669  0.6288
   26MOL    C52 8102   5.889   1.488   7.418 -0.7978 -0.3979 -0.4104
   26MOL    C53 8103   6.002   1.585   7.478  0.6927  0.0670  0.0708
   26MOL    C54 8104   6.058   1.554   7.614 -0.5668 -0.2928  0.2453
   26MOL    C55 8105   6.060   1.686   7.417 -0.4289  0.0568 -0.3972
   26MOL    H56 8106   6.061   1.365   7.380  0.0312 -2.8006  1.0271
   26MOL    H57 8107   5.960   1.285   7.591  0.6798 -0.4313  0.7075
   26MOL    H58 8108   5.981   1.145   7.472 -1.0744  0.2850 -0.4963
   26MOL    H59 8109   5.825   1.223   7.503 -0.4304  0.2978  0.0236
   26MOL    H60 8110   5.872   1.547   7.328  1.0518  0.5723 -0.1558
   26MOL    H61 8111   5.983   1.559   7.692 -1.1262 -0.2408 -0.2956
   26MOL    H62 8112   6.133   1.623   7.654  0.3137 -0.4465 -1.0982
   26MOL    H63 8113   6.100   1.454   7.611 -1.4056 -0.6980  1.6608
   26MOL    H64 8114   6.042   1.722   7.317  0.3986 -0.5425 -0.7705
   26MOL    H65 8115   6.144   1.735   7.464 -0.5527 -0.8362  0.7950
   26MOL    C66 8116   5.749   1.502   7.488  0.7885  0.6702  0.2078
   26MOL    C67 8117   5.632   1.428   7.421 -0.1588  0.4683 -0.0322
   26MOL    C68 8118   5.706   1.642   7.548 -0.0877  0.4827 -0.1924
   26MOL    C69 8119   5.625   1.623   7.675 -0.5032 -0.1362 -0.4014
   26MOL    C70 8120   5.698   1.599   7.806 -0.5655 -0.3794  0.1794
   26MOL    C71 8121   5.492   1.636   7.684 -0.5461 -0.1950  0.3958
   26MOL    H72 8122   5.771   1.446   7.579 -0.1210 -0.8018 -0.4659
   26MOL    H73 8123   5.555   1.406   7.495 -1.6349 -0.9948 -1.9583
   26MOL    H74 8124   5.658   1.326   7.392  0.1437  0.6297 -0.3300
   26MOL    H75 8125   5.592   1.477   7.333  2.9401  0.2329 -1.6301
   26MOL    H76 8126   5.793   1.698   7.581 -0.9451  0.6679  1.8290
   26MOL    H77 8127   5.768   1.680   7.827  0.4841 -1.0908 -0.5201
   26MOL    H78 8128   5.753   1.505   7.805 -0.8288 -0.5429  0.7499
   26MOL    H79 8129   5.632   1.583   7.891 -0.3754  0.4432  0.4861
   26MOL    H80 8130   5.433   1.662   7.597  0.9411  0.8091 -0.3218
   26MOL    H81 8131   5.442   1.626   7.779 -0.0902  0.5910  0.7218
   26MOL    C82 8132   5.636   1.745   7.443  0.4622  0.4836 -1.1545
   26MOL    C83 8133   5.704   1.766   7.309  0.0016 -0.2052  0.3846
   26MOL    C84 8134   5.599   1.884   7.504  0.2634  0.6212  0.1487
   26MOL    C85 8135   5.450   1.926   7.458  0.2673 -0.1759  0.0510
   26MOL    C86 8136   5.424   1.983   7.317 -0.9398  0.1174 -0.6159
   26MOL    C87 8137   5.344   1.920   7.543 -0.6644  0.2555 -0.6386
   26MOL    H88 8138   5.542   1.699   7.414  0.9125 -2.1640  1.3014
   26MOL    H89 8139   5.806   1.806   7.303 -0.0391  0.7605  4.4257
   26MOL    H90 8140   5.642   1.831   7.247 -1.7259 -0.8518  1.3929
   26MOL    H91 8141   5.709   1.669   7.260  0.8712  0.3502 -0.6386
   26MOL    H92 8142   5.593   1.873   7.613  1.0386  0.8128  0.2178
   26MOL    H93 8143   5.513   2.038   7.286  0.9142 -0.6538  3.0279
   26MOL    H94 8144   5.335   2.045   7.313 -0.7875  0.2328 -2.3305
   26MOL    H95 8145   5.416   1.900   7.247 -0.7842 -0.0363 -0.4532
   26MOL    H96 8146   5.363   1.883   7.643 -2.0397 -1.4611 -0.9786
   26MOL    H97 8147   5.249   1.962   7.513 -0.8129 -0.2114 -0.8220
   26MOL    C98 8148   5.705   2.000   7.492  0.2123  0.1938  0.7543
   26MOL    C99 8149   5.831   1.959   7.578  0.5671  0.3980 -0.0222
   26MOL   C100 8150   5.653   2.149   7.534  0.3059  0.1833 -0.3136
   26MOL   C101 8151   5.708   2.255   7.436  0.0362 -0.6146  0.5709
   26MOL   C102 8152   5.852   2.293   7.459 -0.0701  0.1544 -0.1389
   26MOL   C103 8153   5.634   2.307   7.339 -0.0572 -0.3883  0.4138
   26MOL   H104 8154   5.739   2.007   7.389 -0.7702  0.4543  0.4480
   26MOL   H105 8155   5.896   1.891   7.523 -0.8870 -1.2996  0.3040
   26MOL   H106 8156   5.802   1.911   7.671 -0.5889 -1.1148 -1.1285
   26MOL   H107 8157   5.891   2.048   7.595  1.3013  0.1116 -1.0515
   26MOL   H108 8158   5.548   2.157   7.506 -0.0261  0.5644  0.9805
   26MOL   H109 8159   5.904   2.199   7.441 -0.7039  0.0453 -1.5199
   26MOL   H110 8160   5.870   2.316   7.564 -0.4078  1.6698 -0.3985
   26MOL   H111 8161   5.882   2.372   7.390  0.9672  0.9947  1.2398
   26MOL   H112 8162   5.532   2.274   7.334  0.3564 -1.7135  0.5879
   26MOL   H113 8163   5.667   2.375   7.261  0.9110 -1.7196 -0.3572
   26MOL   C114 8164   5.654   2.188   7.688 -0.2360 -0.7427  0.3731
   26MOL   C115 8165   5.577   2.085   7.775 -0.2719 -0.8401 -0.1342
   26MOL   C116 8166   5.618   2.339   7.718 -0.0549 -0.2356 -0.4272
   26MOL   C117 8167   5.719   2.399   7.810 -0.4151  0.4316 -0.3248
   26MOL   C118 8168   5.717   2.345   0.062 -0.4445  1.3383  0.2874
   26MOL   C119 8169   5.804   2.494   7.772 -0.1549  1.1446  0.0705
   26MOL   H120 8170   5.753   2.170   7.730 -1.2406  0.2273  3.2378
   26MOL   H121 8171   5.475   2.060   7.743 -1.3786  2.0806  0.9235
   26MOL   H122 8172   5.556   2.122   7.875  0.6545 -2.5968  0.7271
   26MOL   H123 8173   5.633   1.992   7.786  2.2778  0.7270  0.4809
   26MOL   H124 8174   5.628   2.389   7.622  0.6198  1.2440  0.3956
   26MOL   H125 8175   5.709   2.237   0.049 -0.0919  1.3651 -0.1660
   26MOL   H126 8176   5.630   2.379   0.118 -0.3260  0.3923  1.0516
   26MOL   H127 8177   5.812   2.364   0.112  0.3944 -3.7525  0.8805
   26MOL   H128 8178   5.803   2.532   7.671 -1.1826 -0.0973 -0.4015
   26MOL   H129 8179   5.880   2.536   7.837  0.1218  0.5782  0.1068
   26MOL   C130 8180   5.467   2.376   7.744 -0.3461  0.0325 -0.2132
   26MOL   C131 8181   5.369   2.326   7.639  0.1668 -0.2613  0.1075
   26MOL   C132 8182   5.431   2.525   7.787 -0.1783 -1.1619  0.4234
   26MOL   C133 8183   5.332   2.526   0.013  0.7884 -0.3275 -0.1133
   26MOL   C134 8184   5.394   2.543   0.153 -0.0835 -0.0363 -0.2807
   26MOL   C135 8185   5.198   2.507   0.002  0.1212  0.0614  0.1247
   26MOL   H136 8186   5.443   2.321   7.835 -0.2714 -0.0698 -0.2562
   26MOL   H137 8187   5.352   2.219   7.655  0.2011  0.0480  2.3841
   26MOL   H138 8188   5.403   2.337   7.537  0.1088 -0.8942  0.0186
   26MOL   H139 8189   5.271   2.373   7.650  1.1561  2.2217 -1.4740
   26MOL   H140 8190   5.522   2.561   7.837  0.5463 -1.6026 -0.5676
   26MOL   H141 8191   5.426   2.442   0.179  0.8850  0.5619  0.9287
   26MOL   H142 8192   5.316   2.559   0.227  0.2685  1.4217 -0.1920
   26MOL   H143 8193   5.483   2.605   0.166  1.0634 -1.5206 -0.9016
   26MOL   H144 8194   5.152   2.496   7.797 -3.6547  1.8513  1.6193
   26MOL   H145 8195   5.135   2.498   0.088 -0.0646 -1.2487 -0.1406
   26MOL   C146 8196   5.402   2.620   7.668 -0.1032  0.0257  0.0739
   26MOL   C147 8197   5.519   2.625   7.562  0.0960 -0.0336  0.6280
   26MOL   C148 8198   5.344   2.761   7.704  0.8682  0.0538  0.8997
   26MOL   C149 8199   5.222   2.796   7.619 -0.1251 -0.3101 -0.3140
   26MOL   C150 8200   5.083   2.769   7.676  0.3658 -0.4431 -0.7986
   26MOL   C151 8201   5.232   2.824   7.485 -0.9025  0.5969  0.1400
   26MOL   H152 8202   5.319   2.576   7.611 -0.3598  2.9849 -1.9273
   26MOL   H153 8203   5.613   2.661   7.604 -1.1660  2.4921  1.4251
   26MOL   H154 8204   5.506   2.693   7.478 -2.4728 -0.5646  0.5721
   26MOL   H155 8205   5.535   2.531   7.508  2.1503  0.2549  0.7137
   26MOL   H156 8206   5.299   2.758   7.803 -0.3465 -0.8291  0.3335
   26MOL   H157 8207   5.072   2.826   7.768  1.1601 -2.6164  0.7021
   26MOL   H158 8208   5.071   2.662   7.695  1.7870 -0.6123 -0.8440
   26MOL   H159 8209   4.999   2.800   7.614  0.7750 -0.1916 -1.2299
   26MOL   H160 8210   5.327   2.822   7.434 -1.2998  0.4331 -0.5987
   26MOL   H161 8211   5.153   2.847   7.415 -1.2234  1.0018  0.6294
   26MOL   C162 8212   5.445   2.882   7.717  0.0117  0.3883 -0.5135
   26MOL   C163 8213   5.560   2.857   7.830  0.0722 -0.2265  0.4836
   26MOL   C164 8214   5.389   3.029   7.729  0.1365 -0.0163 -0.9628
   26MOL   C165 8215   5.472   3.120   7.637 -0.2611 -0.6500 -0.1147
   26MOL   C166 8216   5.604   3.166   7.695 -0.9039  0.8297 -0.3339
   26MOL   C167 8217   5.438   3.159   7.516 -1.1054  0.4994 -0.1274
   26MOL   H168 8218   5.509   2.886   7.629  3.4327  1.8820  1.9214
   26MOL   H169 8219   5.620   2.768   7.810  1.0458  0.1620  1.6048
   26MOL   H170 8220   5.524   2.854   0.041 -0.7825 -2.7410  0.1249
   26MOL   H171 8221   5.629   2.942   7.824 -0.4680  0.2773  1.1895
   26MOL   H172 8222   5.300   3.027   7.666  0.1166  3.3067 -1.0788
   26MOL   H173 8223   5.610   3.178   7.803 -2.4476  0.3067 -0.1896
   26MOL   H174 8224   5.624   3.265   7.655 -0.0830  1.7142  2.1516
   26MOL   H175 8225   5.683   3.093   7.674 -2.3659 -0.2743 -2.1185
   26MOL   H176 8226   5.352   3.121   7.464 -0.7242 -1.6626  0.7859
   26MOL   H177 8227   5.501   3.226   7.459  0.3201 -0.9696 -0.3040
   26MOL   C178 8228   5.354   3.083   7.871  0.5587  0.3543  0.6302
   26MOL   C179 8229   5.269   2.991   0.060  0.0416  0.2880 -0.7463
   26MOL   C180 8230   5.306   3.235   7.884 -0.6441  0.3761  0.5217
   26MOL   C181 8231   5.344   3.296   0.129  0.5205 -1.1066 -0.3628
   26MOL   C182 8232   5.489   3.348   0.158  0.3799  0.6910 -0.5707
   26MOL   C183 8233   5.252   3.317   0.226  0.4226 -0.8157 -0.2234
   26MOL   H184 8234   5.447   3.087   0.035  0.3051 -0.7536  1.1395
   26MOL   H185 8235   5.177   2.978   0.002  0.0897 -0.0215 -0.7519
   26MOL   H186 8236   5.237   3.022   0.160 -1.8509 -1.1447 -0.8826
   26MOL   H187 8237   5.319   2.895   0.068 -0.4302 -0.0406 -1.6590
   26MOL   H188 8238   5.374   3.290   7.819 -2.1344 -0.5614 -1.9078
   26MOL   H189 8239   5.551   3.260   0.174 -4.2264 -2.9595 -1.5796
   26MOL   H190 8240   5.498   3.395   0.256  0.6833  0.0131 -0.2704
   26MOL   H191 8241   5.530   3.410   0.078  1.4204  1.2116  0.3426
   26MOL   H192 8242   5.148   3.296   0.210 -0.3190  1.5151  1.2751
   26MOL   H193 8243   5.288   3.356   0.321 -1.4071  0.6476 -0.1154
   26MOL   C194 8244   5.161   3.262   7.842 -0.7582 -0.0474 -0.2109
   26MOL   C195 8245   5.130   3.203   7.699  0.3453  0.0640 -0.1662
   26MOL   C196 8246   5.110   3.414   7.853 -0.1139 -0.3029  0.0235
   26MOL   C197 8247   4.962   3.413   7.892 -0.3986 -0.4529  0.2718
   26MOL   C198 8248   4.860   3.340   7.806  0.8614  0.2943  0.1722
   26MOL   C199 8249   4.920   3.466   0.116 -0.2204  0.5831 -0.1756
   26MOL   H200 8250   5.101   3.211   0.024  0.5701 -3.0938 -1.1629
   26MOL   H201 8251   5.113   3.097   7.718 -1.5527  0.2548 -0.7688
   26MOL   H202 8252   5.217   3.215   7.635  1.6612 -0.0276  1.5419
   26MOL   H203 8253   5.039   3.254   7.667  2.3242  4.8260  1.2692
   26MOL   H204 8254   5.155   3.456   0.050  0.4462 -0.1204 -0.3455
   26MOL   H205 8255   4.758   3.369   7.831 -0.0161 -3.4481  1.1666
   26MOL   H206 8256   4.871   3.232   7.817  1.5060  0.2876 -0.5147
   26MOL   H207 8257   4.871   3.365   7.700  2.0524  1.0467  0.4566
   26MOL   H208 8258   4.989   3.530   0.169 -2.4329  2.1484  0.8876
   26MOL   H209 8259   4.820   3.454   0.156  0.0661 -0.2463  0.3192
   26MOL   C210 8260   5.143   3.509   7.723 -0.1351 -0.2230 -0.8470
   26MOL   C211 8261   5.292   3.507   7.681 -0.3441  0.2265 -0.3722
   26MOL   C212 8262   5.089   3.661   7.742 -0.0233 -0.1153 -0.5235
   26MOL   C213 8263   5.043   3.714   7.607 -0.3419  0.0794 -0.1011
   26MOL   C214 8264   4.900   3.674   7.569 -0.1079 -0.4233  0.6054
   26MOL   C215 8265   5.120   3.780   7.518 -0.4190  0.0226 -0.1183
   26MOL   H216 8266   5.085   3.468   7.641 -0.4112 -2.8743  0.6346
   26MOL   H217 8267   5.306   3.589   7.611  1.1416  0.6420  0.3816
   26MOL   H218 8268   5.325   3.417   7.629 -0.3922 -0.1921  0.3108
   26MOL   H219 8269   5.366   3.525   7.760 -1.8124 -1.5123  1.4557
   26MOL   H220 8270   4.997   3.660   7.800  0.9296  0.8790  1.0413
   26MOL   H221 8271   4.856   3.761   7.521  1.5263  0.0350 -0.0771
   26MOL   H222 8272   4.839   3.643   7.654 -0.6733 -0.6080  0.1316
   26MOL   H223 8273   4.905   3.593   7.496 -0.2993 -0.5314  0.7102
   26MOL   H224 8274   5.218   3.815   7.549 -0.6762  0.2236  0.4842
   26MOL   H225 8275   5.082   3.814   7.423 -1.1363 -0.5579 -0.0427
   26MOL   C226 8276   5.178   3.768   7.807 -0.1632  0.6788  0.2065
   26MOL   C227 8277   5.231   3.723   0.048  0.4294  0.4899 -0.0813
   26MOL   C228 8278   5.118   3.913   7.808 -0.1490  0.3311 -0.3566
   26MOL   C229 8279   5.236   4.013   7.787 -0.0020  0.4030 -0.2752
   26MOL   C230 8280   5.356   4.022   7.879  0.1648  0.3112  0.7431
   26MOL   C231 8281   5.241   4.088   7.675 -0.2252 -0.8665 -0.0562
   26MOL   H232 8282   5.268   3.771   7.746 -0.7663 -1.2900 -0.8368
   26MOL   H233 8283   5.279   3.625   0.045 -0.6311  0.0041 -1.9558
   26MOL   H234 8284   5.151   3.717   0.122 -0.0104 -1.8198 -0.6957
   26MOL   H235 8285   5.302   3.795   0.089 -0.2661  2.4604 -2.2467
   26MOL   H236 8286   5.052   3.928   7.723 -1.2187 -0.4253  0.3352
   26MOL   H237 8287   5.420   3.934   7.889  0.4085  0.4125  0.1254
   26MOL   H238 8288   5.315   4.056   0.081 -2.0379  0.6743 -0.3199
   26MOL   H239 8289   5.425   4.100   7.846 -1.2675  0.1203 -2.9486
   26MOL   H240 8290   5.160   4.070   7.606 -0.5035  0.1097  0.0007
   26MOL   H241 8291   5.311   4.166   7.652 -1.5224  0.8493  1.6117
   26MOL   C242 8292   5.032   3.950   0.043  0.4352 -0.2065 -0.9808
   26MOL   C243 8293   4.910   3.867   0.059  0.6082  0.1505  0.2998
   26MOL   C244 8294   4.994   4.104   0.064 -0.2917 -0.5504  0.1794
   26MOL   C245 8295   5.004   4.134   0.216  0.5316 -0.2419 -0.4578
   26MOL   C246 8296   5.137   4.192   0.259 -0.0611 -0.3958  0.2007
   26MOL   C247 8297   4.909   4.112   0.308 -0.2220  0.7247  0.7754
   26MOL   H248 8298   5.092   3.930   0.131  1.8502  3.1742 -1.1364
   26MOL   H249 8299   4.935   3.763   0.081  0.9585  0.1742  0.0202
   26MOL   H250 8300   4.836   3.876   7.872  1.3812 -0.7439 -0.5399
   26MOL   H251 8301   4.867   3.878   0.158  0.0639  2.9727 -0.2160
   26MOL   H252 8302   5.074   4.157   0.012 -1.3045  2.0144  1.1809
   26MOL   H253 8303   5.183   4.243   0.175 -1.2613 -0.4402 -0.4998
   26MOL   H254 8304   5.190   4.103   0.292 -0.9923 -1.4209 -1.0217
   26MOL   H255 8305   5.121   4.264   0.339  0.9142  1.2333 -1.0406
   26MOL   H256 8306   4.815   4.065   0.285 -0.1132 -0.0555  1.8670
   26MOL   H257 8307   4.920   4.127   0.414  2.0034  2.0218  0.4022
   26MOL   C258 8308   4.868   4.165   7.889  0.3827 -0.2422  0.3518
   26MOL   C259 8309   4.850   4.113   7.746 -0.1911  0.4537 -0.2254
   26MOL   C260 8310   4.855   4.317   0.015 -0.3945 -0.3573  0.2656
   26MOL   C261 8311   4.714   4.360   0.054  0.3616  0.1912 -0.1974
   26MOL   C262 8312   4.601   4.354   7.837  0.1663  0.6385 -0.5523
   26MOL   C263 8313   4.683   4.424   0.173 -0.2747 -0.4078 -0.5359
   26MOL   H264 8314   4.786   4.118   0.050  1.0671  0.3109  1.9025
   26MOL   H265 8315   4.751   4.130   7.705 -0.2958 -0.9312 -0.5786
   26MOL   H266 8316   4.862   4.006   7.729 -0.4843  0.1203  1.6047
   26MOL   H267 8317   4.920   4.148   7.671 -0.5437  0.7191 -0.4309
   26MOL   H268 8318   4.914   4.340   0.104 -0.7602  1.7275 -0.0008
   26MOL   H269 8319   4.637   4.411   7.750 -0.7959  2.8145  0.4286
   26MOL   H270 8320   4.516   4.407   7.880  0.0921 -1.7078  2.2978
   26MOL   H271 8321   4.563   4.253   7.822 -0.2507  0.3818  2.1080
   26MOL   H272 8322   4.759   4.447   0.246  0.0682 -1.4428 -0.5491
   26MOL   H273 8323   4.583   4.452   0.201 -0.6091 -1.4181 -0.6978
   26MOL   C274 8324   4.913   4.415   7.797  0.2754 -0.2798 -0.2358
   26MOL   C275 8325   5.064   4.392   7.776  0.5372  0.0030 -0.5263
   26MOL   C276 8326   4.872   4.568   7.813 -0.1972 -0.2042  0.5510
   26MOL   C277 8327   4.838   4.643   7.687 -0.2568  0.1388 -0.2651
   26MOL   C278 8328   4.939   4.630   7.573  0.4452  0.1534 -0.4803
   26MOL   C279 8329   4.731   4.717   7.667  0.5999  0.1798 -0.0525
   26MOL   H280 8330   4.856   4.386   7.709 -0.5566 -1.2987  0.6409
   26MOL   H281 8331   5.078   4.293   7.732  0.1725 -0.1516 -0.2969
   26MOL   H282 8332   5.111   4.386   7.874 -1.3135  0.8428  0.4382
   26MOL   H283 8333   5.113   4.458   7.704  0.8234 -0.1138 -0.4409
   26MOL   H284 8334   4.772   4.566   7.855 -0.4457  0.8118  0.0295
   26MOL   H285 8335   5.033   4.679   7.596  0.9853 -0.0833 -2.0686
   26MOL   H286 8336   4.915   4.672   7.475  0.0370 -1.0025 -0.8906
   26MOL   H287 8337   4.962   4.526   7.552 -0.2737  0.1519 -1.3305
   26MOL   H288 8338   4.660   4.721   7.749  1.1774 -2.5071  0.6352
   26MOL   H289 8339   4.709   4.776   7.580 -0.3323  0.9360  0.6841
   26MOL   C290 8340   4.946   4.644   0.041  0.1354  0.1832 -0.0621
   26MOL   C291 8341   4.848   4.721   0.128  1.0397 -0.1833  0.1368
   26MOL   C292 8342   5.078   4.730   0.009 -0.0946  0.2336 -0.0702
   26MOL   C293 8343   5.203   4.700   0.098 -0.2267  0.3824 -0.5381
   26MOL   C294 8344   5.342   4.708   0.045 -0.0530 -0.5085  0.4451
   26MOL   C295 8345   5.188   4.658   0.230  0.6726 -0.6128 -0.2737
   26MOL   H296 8346   4.987   4.561   0.098  0.4571 -0.0962 -0.6952
   26MOL   H297 8347   4.894   4.777   0.210  1.2357  0.0833 -0.1512
   26MOL   H298 8348   4.787   4.644   0.176  2.5717 -2.0754 -0.8785
   26MOL   H299 8349   4.785   4.793   0.077 -0.4352  0.0083  2.1552
   26MOL   H300 8350   5.102   4.696   7.801 -0.0476 -0.4831  0.1771
   26MOL   H301 8351   5.373   4.807   0.014 -2.1957  0.5197  1.4602
   26MOL   H302 8352   5.355   4.647   7.848  0.7313  1.1802 -0.6024
   26MOL   H303 8353   5.424   4.667   0.103  0.3739 -0.6054 -0.2233
   26MOL   H304 8354   5.092   4.641   0.275  0.9671  1.7268  1.3286
   26MOL   H305 8355   5.275   4.642   0.291  0.7078  1.8892  0.3960
   26MOL   C306 8356   5.054   4.880   7.882  0.3300  0.3209  0.0838
   26MOL   C307 8357   5.143   4.945   7.772 -0.2514  0.0543  0.0628
   26MOL   C308 8358   5.061   4.968   0.114  0.6266  0.2815  0.4614
   26MOL   C309 8359   4.978   5.096   0.098  0.2253  0.1861  0.3839
   26MOL   C310 8360   4.826   5.101   0.089  0.0730 -0.2292 -0.4597
   26MOL   C311 8361   5.041   5.214   0.100 -0.1372 -0.6081  0.2264
   26MOL   H312 8362   4.950   4.893   7.849  0.5219  2.6740  0.2970
   26MOL   H313 8363   5.146   4.875   7.689 -1.5236 -0.5071  0.4824
   26MOL   H314 8364   5.244   4.975   7.801 -1.1169  0.8913  2.3359
   26MOL   H315 8365   5.096   5.036   7.734  0.2979 -0.7468 -2.6264
   26MOL   H316 8366   5.017   4.921   0.201 -1.7903 -2.5882 -2.1974
   26MOL   H317 8367   4.779   5.036   0.015 -1.9374 -1.4356  1.8224
   26MOL   H318 8368   4.794   5.201   0.059  1.9573 -0.0802 -2.0217
   26MOL   H319 8369   4.795   5.076   0.190  1.2796 -1.1830 -0.3239
   26MOL   H320 8370   5.148   5.224   0.107 -0.3325  2.5424 -0.7049
   26MOL   H321 8371   4.989   5.308   0.093  2.6029  1.0683  1.6758
   26MOL   H322 8372   5.158   4.993   0.155  0.0778 -1.5590  2.9912
   27MOL     C1 8373   5.017   5.637   0.447  0.1188 -0.0534  0.0662
   27MOL     C2 8374   5.159   5.685   0.400 -0.0514  0.2155  0.3516
   27MOL     C3 8375   4.934   5.753   0.502  0.4075 -0.1060 -0.1383
   27MOL     C4 8376   4.911   5.861   0.393 -0.3523 -0.0131  0.1758
   27MOL     C5 8377   4.780   5.831   0.304 -0.4706 -0.0067  0.4271
   27MOL     C6 8378   4.975   5.979   0.390  0.1873  0.2891  0.4454
   27MOL     H7 8379   4.955   5.598   0.366  0.2108  3.0541 -1.5645
   27MOL     H8 8380   5.232   5.698   0.480  0.9711  3.0938 -0.9587
   27MOL     H9 8381   5.149   5.770   0.333 -2.5108 -1.3767 -1.3995
   27MOL    H10 8382   5.217   5.609   0.347 -0.2261 -0.2756  0.8571
   27MOL    H11 8383   4.840   5.700   0.518 -0.5354  1.5706 -0.0418
   27MOL    H12 8384   4.799   5.753   0.231  0.9780  0.6134  0.1321
   27MOL    H13 8385   4.757   5.920   0.246  0.7291 -1.9340 -3.1596
   27MOL    H14 8386   4.690   5.809   0.362 -0.9395 -2.0048 -1.0101
   27MOL    H15 8387   5.052   6.009   0.459 -0.4913 -0.0717  1.3646
   27MOL    H16 8388   4.955   6.051   0.312 -2.4348 -1.6826 -0.7783
   27MOL    H17 8389   5.015   5.555   0.519 -3.0810  0.6867  0.8596
   27MOL    C18 8390   4.986   5.810   0.639  0.2552  0.9520  0.0924
   27MOL    C19 8391   5.030   5.700   0.740 -0.2880  0.0510 -0.8568
   27MOL    C20 8392   4.903   5.927   0.706  0.2354 -0.5494  0.1090
   27MOL    C21 8393   4.996   6.037   0.762  1.1477  0.2794  0.1836
   27MOL    C22 8394   5.080   6.008   0.887 -0.0397 -0.0237 -0.2542
   27MOL    C23 8395   5.010   6.154   0.697 -0.3211 -0.0323 -0.0639
   27MOL    H24 8396   5.085   5.842   0.606  0.3250  1.6664  0.9910
   27MOL    H25 8397   5.065   5.744   0.833 -1.2316  0.7032 -0.8065
   27MOL    H26 8398   5.111   5.635   0.707  0.0833 -0.4141  0.9002
   27MOL    H27 8399   4.944   5.637   0.765  0.5317 -0.3638  1.0524
   27MOL    H28 8400   4.853   5.975   0.622 -3.2653 -0.6243  2.0359
   27MOL    H29 8401   5.027   5.997   0.981  1.4692 -0.7348  0.5334
   27MOL    H30 8402   5.129   6.105   0.898 -0.7318  0.4359 -1.1485
   27MOL    H31 8403   5.166   5.943   0.870 -0.1334 -0.1877 -0.0971
   27MOL    H32 8404   4.943   6.188   0.620 -0.4151  2.5603  1.1031
   27MOL    H33 8405   5.086   6.225   0.726 -0.5747  0.2505 -0.0906
   27MOL    C34 8406   4.781   5.888   0.792 -0.7929  0.1567  0.4834
   27MOL    C35 8407   4.686   5.776   0.730  0.4656 -0.0305  0.8815
   27MOL    C36 8408   4.701   6.004   0.863 -0.4231  0.7003  0.2670
   27MOL    C37 8409   4.671   5.975   1.013 -0.3902 -0.1313  0.3928
   27MOL    C38 8410   4.576   5.860   1.049  0.4889  0.1979  0.0928
   27MOL    C39 8411   4.731   6.030   1.122 -0.4366 -0.2879 -0.8575
   27MOL    H40 8412   4.830   5.842   0.878 -0.3068  1.6309  1.0008
   27MOL    H41 8413   4.592   5.768   0.786 -0.0768  0.2462  0.0104
   27MOL    H42 8414   4.728   5.676   0.738  1.6713  0.4023  0.0543
   27MOL    H43 8415   4.650   5.809   0.633 -2.6834 -0.1087  1.9490
   27MOL    H44 8416   4.770   6.088   0.863  1.1229 -0.4305  4.3619
   27MOL    H45 8417   4.489   5.849   0.984  0.0132 -1.0486  0.9177
   27MOL    H46 8418   4.527   5.882   1.144 -0.9816  0.6607 -0.7452
   27MOL    H47 8419   4.627   5.764   1.056 -2.7098 -1.5553  0.3409
   27MOL    H48 8420   4.809   6.105   1.118  1.1141 -1.8891 -0.8386
   27MOL    H49 8421   4.694   6.011   1.221 -1.7599 -0.8144 -1.4438
   27MOL    C50 8422   4.574   6.069   0.795  0.0639  0.2372  0.0433
   27MOL    C51 8423   4.601   6.101   0.644 -0.1260  0.6237  0.1642
   27MOL    C52 8424   4.501   6.184   0.874  0.3398  0.4893  0.9487
   27MOL    C53 8425   4.348   6.172   0.848 -0.3905  0.0357 -0.2761
   27MOL    C54 8426   4.276   6.118   0.967 -0.3714 -0.4107 -0.1895
   27MOL    C55 8427   4.286   6.215   0.739  0.2820 -0.3706  0.5216
   27MOL    H56 8428   4.498   5.991   0.802  1.7128 -1.5142 -1.1118
   27MOL    H57 8429   4.522   6.164   0.603  1.4369  0.7349 -2.7717
   27MOL    H58 8430   4.599   6.005   0.593 -0.7499  1.5401 -1.5663
   27MOL    H59 8431   4.695   6.150   0.621 -0.5816  1.0845 -0.7197
   27MOL    H60 8432   4.518   6.157   0.978 -3.6007  1.0784  1.8356
   27MOL    H61 8433   4.206   6.181   1.022  0.2401 -0.5037  0.7125
   27MOL    H62 8434   4.341   6.076   1.043  1.2481 -0.4922 -1.6015
   27MOL    H63 8435   4.208   6.037   0.939 -1.2036  0.2081 -0.0010
   27MOL    H64 8436   4.328   6.269   0.655 -2.4933  1.3825  0.1850
   27MOL    H65 8437   4.179   6.201   0.734  0.1423  0.6343  0.7037
   27MOL    C66 8438   4.558   6.335   0.845  0.0835  0.1253  0.0719
   27MOL    C67 8439   4.708   6.353   0.863  0.0041  0.0877  0.3132
   27MOL    C68 8440   4.494   6.454   0.931 -0.2481 -0.6887 -0.1128
   27MOL    C69 8441   4.487   6.581   0.845 -0.0627  0.7030 -0.0723
   27MOL    C70 8442   4.385   6.571   0.730 -0.0853  0.2906 -0.1516
   27MOL    C71 8443   4.572   6.689   0.853  0.7026  0.1364 -0.6303
   27MOL    H72 8444   4.534   6.354   0.741  1.9044  0.6952 -0.2470
   27MOL    H73 8445   4.752   6.300   0.778 -0.7853 -0.4819  0.2505
   27MOL    H74 8446   4.748   6.307   0.953  1.8979 -0.3721 -0.7430
   27MOL    H75 8447   4.742   6.455   0.852  1.7539 -0.6100 -1.0228
   27MOL    H76 8448   4.392   6.420   0.918 -0.9189  1.1982  0.0113
   27MOL    H77 8449   4.401   6.664   0.675 -2.4307  2.4608  2.6643
   27MOL    H78 8450   4.286   6.575   0.775 -0.9968 -1.9305 -1.8526
   27MOL    H79 8451   4.387   6.480   0.670  2.7321  0.1769  0.0735
   27MOL    H80 8452   4.647   6.685   0.931 -0.3464  0.1823  0.3979
   27MOL    H81 8453   4.553   6.776   0.792 -1.2754  0.7679  0.8419
   27MOL    C82 8454   4.540   6.474   1.083  0.1743 -0.0696  0.3561
   27MOL    C83 8455   4.536   6.350   1.162  0.4331  0.6279 -0.4027
   27MOL    C84 8456   4.463   6.590   1.157 -0.2359 -0.3449  0.1228
   27MOL    C85 8457   4.551   6.672   1.243 -0.6619  0.2381  0.4542
   27MOL    C86 8458   4.622   6.786   1.174 -0.4854  0.8274  0.1185
   27MOL    C87 8459   4.588   6.638   1.367  0.0634 -0.1412 -0.4304
   27MOL    H88 8460   4.643   6.509   1.078  0.7753 -1.8123  0.5092
   27MOL    H89 8461   4.443   6.294   1.152  1.2351 -0.8768  0.5688
   27MOL    H90 8462   4.535   6.368   1.270  0.3906  0.8627 -0.4408
   27MOL    H91 8463   4.614   6.275   1.151 -2.3881 -2.0405 -3.2516
   27MOL    H92 8464   4.430   6.663   1.084  1.6966  0.3025 -0.1443
   27MOL    H93 8465   4.653   6.863   1.244 -1.8339 -0.1826  1.8887
   27MOL    H94 8466   4.550   6.832   1.105  0.0235  2.6545  0.7829
   27MOL    H95 8467   4.713   6.749   1.127 -0.2321 -0.4207  1.5677
   27MOL    H96 8468   4.535   6.555   1.412 -2.0034  0.2309 -2.1114
   27MOL    H97 8469   4.657   6.697   1.426  0.8107  1.1145 -2.4979
   27MOL    C98 8470   4.316   6.552   1.222 -0.5366  0.6576 -0.0891
   27MOL    C99 8471   4.218   6.518   1.110 -0.5191 -0.1844 -0.9350
   27MOL   C100 8472   4.252   6.654   1.326 -0.4481 -0.1790 -0.0224
   27MOL   C101 8473   4.154   6.573   1.406 -0.1264  0.9958  0.3802
   27MOL   C102 8474   4.215   6.502   1.524  0.3145  0.2998  0.2702
   27MOL   C103 8475   4.020   6.562   1.384 -0.7080 -0.0548 -0.1134
   27MOL   H104 8476   4.318   6.457   1.276  1.0658 -0.8201 -2.6103
   27MOL   H105 8477   4.119   6.555   1.137  0.4004  0.9817  0.9560
   27MOL   H106 8478   4.223   6.414   1.077  1.0586 -0.3026 -0.3528
   27MOL   H107 8479   4.253   6.571   1.022  0.9315  2.0286  0.9099
   27MOL   H108 8480   4.332   6.677   1.396 -0.0349  0.9352 -0.8552
   27MOL   H109 8481   4.132   6.461   1.581 -1.5655  2.7592 -0.6235
   27MOL   H110 8482   4.270   6.572   1.588  0.5562  0.5238 -0.1769
   27MOL   H111 8483   4.292   6.430   1.496  0.5547  0.1958  1.1788
   27MOL   H112 8484   3.966   6.617   1.308 -1.8523 -0.1777  0.5905
   27MOL   H113 8485   3.959   6.498   1.446 -1.0631  1.9090  1.6420
   27MOL   C114 8486   4.201   6.791   1.281 -0.2652  0.3518  0.0569
   27MOL   C115 8487   4.276   6.875   1.174 -0.0608  0.4893 -0.4383
   27MOL   C116 8488   4.159   6.890   1.396  0.2179  0.2829  0.2561
   27MOL   C117 8489   4.018   6.951   1.371 -0.0675  0.1562  0.1964
   27MOL   C118 8490   4.004   7.060   1.265  0.4990  0.4193  0.4794
   27MOL   C119 8491   3.902   6.905   1.424  0.4257  0.5789 -0.3642
   27MOL   H120 8492   4.112   6.771   1.222  0.9427 -0.6018 -1.4701
   27MOL   H121 8493   4.278   6.812   1.085 -2.4379  0.3589 -0.4222
   27MOL   H122 8494   4.372   6.920   1.200  0.0682  0.8367 -1.4965
   27MOL   H123 8495   4.209   6.951   1.136 -2.0361 -0.6395  0.7371
   27MOL   H124 8496   4.141   6.820   1.477  0.7286  1.2151  1.1839
   27MOL   H125 8497   3.935   7.140   1.289  0.3182 -0.1759  1.9811
   27MOL   H126 8498   3.973   7.001   1.178  3.5603 -0.7089  0.0752
   27MOL   H127 8499   4.099   7.109   1.240  1.3044 -1.9566 -1.3508
   27MOL   H128 8500   3.904   6.824   1.495  0.3613  0.4934 -0.4603
   27MOL   H129 8501   3.801   6.933   1.397 -0.0369  1.9088  2.5355
   27MOL   C130 8502   4.268   6.985   1.466  0.4199  0.7131  0.3979
   27MOL   C131 8503   4.414   6.929   1.495 -0.1911 -0.0806  0.0312
   27MOL   C132 8504   4.218   7.065   1.591 -0.2365  1.3962 -0.5094
   27MOL   C133 8505   4.146   6.965   1.692 -1.1221  0.1852 -0.0181
   27MOL   C134 8506   4.234   6.867   1.753  0.1860  1.2386  0.0733
   27MOL   C135 8507   4.013   6.962   1.709  0.5939 -0.0719  0.0653
   27MOL   H136 8508   4.293   7.062   1.393 -1.3765  0.7963 -0.1552
   27MOL   H137 8509   4.410   6.841   1.558 -2.7693  1.2106  1.7679
   27MOL   H138 8510   4.472   7.006   1.546 -0.9760  0.1800  0.5429
   27MOL   H139 8511   4.466   6.895   1.406  0.1126 -3.2340  1.3759
   27MOL   H140 8512   4.310   7.097   1.640 -0.1451 -0.2763  0.4481
   27MOL   H141 8513   4.244   6.777   1.693  0.1490  1.5716 -0.4372
   27MOL   H142 8514   4.183   6.837   1.844  0.2637 -2.4825 -1.0610
   27MOL   H143 8515   4.329   6.912   1.781  0.1777 -0.0302  2.1773
   27MOL   H144 8516   3.946   7.028   1.656  0.3040 -0.3550  0.0751
   27MOL   H145 8517   3.956   6.897   1.773 -0.9298  1.1408 -0.0288
   27MOL   C146 8518   4.151   7.209   1.574 -0.4293  0.2958  0.0280
   27MOL   C147 8519   4.220   7.297   1.474 -0.6382 -0.1714  0.4216
   27MOL   C148 8520   4.133   7.291   1.715  0.2186 -0.4041  0.0738
   27MOL   C149 8521   4.239   7.264   1.822 -0.0164  0.0213  0.6137
   27MOL   C150 8522   4.372   7.338   1.806  0.1042 -0.2409 -0.5404
   27MOL   C151 8523   4.228   7.190   1.930  1.0499 -0.4017 -0.0579
   27MOL   H152 8524   4.049   7.197   1.538 -0.5388 -1.5488  0.8748
   27MOL   H153 8525   4.206   7.251   1.376 -1.7716  0.2822  0.3569
   27MOL   H154 8526   4.326   7.305   1.493 -0.8024  1.3204  0.7388
   27MOL   H155 8527   4.169   7.391   1.453 -1.5057 -0.9597 -1.1544
   27MOL   H156 8528   4.163   7.389   1.679  4.0515 -1.4950  0.0961
   27MOL   H157 8529   4.400   7.326   1.702 -0.6711  1.3981 -0.9535
   27MOL   H158 8530   4.455   7.299   1.864 -1.2762 -1.6599  0.5362
   27MOL   H159 8531   4.360   7.445   1.822  1.5697 -0.2669  0.8717
   27MOL   H160 8532   4.134   7.140   1.944 -0.0411  1.6381  0.2069
   27MOL   H161 8533   4.308   7.186   2.002  1.4215  0.0077 -0.4394
   27MOL   C162 8534   3.980   7.300   1.755 -0.4402  0.1991  0.8317
   27MOL   C163 8535   3.908   7.366   1.635  0.0001 -0.5762  0.1073
   27MOL   C164 8536   3.949   7.371   1.896  0.4483 -0.5900 -0.2810
   27MOL   C165 8537   3.831   7.298   1.967  0.0308  0.0454  0.0641
   27MOL   C166 8538   3.692   7.297   1.901 -0.2575 -0.2113  0.1049
   27MOL   C167 8539   3.846   7.228   2.085 -0.2108 -0.0398  0.6460
   27MOL   H168 8540   3.946   7.197   1.764  1.5786 -0.7916 -2.1231
   27MOL   H169 8541   3.818   7.417   1.671  0.1773 -0.0356 -0.2062
   27MOL   H170 8542   3.871   7.306   1.552  1.6493 -1.2012 -0.2017
   27MOL   H171 8543   3.968   7.446   1.591  0.3702 -1.6000 -1.2996
   27MOL   H172 8544   4.029   7.348   1.967  1.8344  1.0086 -1.2747
   27MOL   H173 8545   3.618   7.267   1.976  0.3078  0.6268  0.9956
   27MOL   H174 8546   3.701   7.224   1.820 -0.1832  3.0380 -2.8961
   27MOL   H175 8547   3.668   7.392   1.854  2.3136 -0.8003 -2.5520
   27MOL   H176 8548   3.946   7.225   2.126  0.3052 -2.2477 -0.6489
   27MOL   H177 8549   3.767   7.174   2.136 -1.5521 -1.9556 -3.2927
   27MOL   C178 8550   3.930   7.528   1.892  0.2022  0.4267 -0.0290
   27MOL   C179 8551   4.058   7.595   1.840  0.6768 -0.2843  0.6832
   27MOL   C180 8552   3.867   7.595   2.026 -0.1804 -0.0371  0.1336
   27MOL   C181 8553   3.756   7.694   1.979 -0.1375  0.3103  0.1507
   27MOL   C182 8554   3.805   7.822   1.905  0.0541  0.0177 -0.1146
   27MOL   C183 8555   3.624   7.690   2.013 -0.2743 -0.4200 -0.0629
   27MOL   H184 8556   3.850   7.546   1.820 -0.9673  1.8819  1.6064
   27MOL   H185 8557   4.069   7.699   1.871 -3.6833 -0.3262  2.7447
   27MOL   H186 8558   4.072   7.606   1.732 -2.7494  1.5458  0.3431
   27MOL   H187 8559   4.151   7.545   1.867  1.6288  0.5002 -1.0076
   27MOL   H188 8560   3.818   7.517   2.083 -0.0479 -1.3817 -1.5445
   27MOL   H189 8561   3.867   7.876   1.976 -1.3619  2.0611 -0.3978
   27MOL   H190 8562   3.732   7.889   1.860  0.6159  1.8200  1.6112
   27MOL   H191 8563   3.861   7.792   1.816  1.1073  3.1452 -0.5541
   27MOL   H192 8564   3.587   7.612   2.078  0.7888  1.7675  3.3437
   27MOL   H193 8565   3.557   7.767   1.978  1.5321  1.4869  0.5536
   27MOL   C194 8566   3.967   7.655   2.130  0.2461 -0.4745  0.5113
   27MOL   C195 8567   4.080   7.550   2.150  0.8935 -0.4781  0.3742
   27MOL   C196 8568   3.903   7.702   2.267  0.2004  0.2207 -0.5892
   27MOL   C197 8569   3.972   7.822   2.321 -0.2109 -0.1555 -0.1344
   27MOL   C198 8570   3.937   0.067   2.269  0.0649  0.0869  0.3454
   27MOL   C199 8571   4.079   7.819   2.403 -0.9501 -0.3012 -0.2710
   27MOL   H200 8572   4.013   7.743   2.086  2.0151 -2.4667 -1.7940
   27MOL   H201 8573   4.054   7.447   2.175  1.0439 -0.3977  0.8657
   27MOL   H202 8574   4.132   7.580   2.240 -0.7396  1.3355  0.7381
   27MOL   H203 8575   4.155   7.554   2.070 -0.8020 -0.4792 -1.2617
   27MOL   H204 8576   3.802   7.739   2.254 -0.7862 -1.0914  2.9001
   27MOL   H205 8577   3.881   0.134   2.334 -2.3228 -0.9449 -0.5650
   27MOL   H206 8578   3.875   0.064   2.179 -2.0076  1.8799  1.6686
   27MOL   H207 8579   4.021   0.125   2.231 -0.4789  1.8316  1.7324
   27MOL   H208 8580   4.133   7.729   2.431  0.3839  0.4227 -0.4952
   27MOL   H209 8581   4.099   0.021   2.451 -1.9099 -1.2949  2.1755
   27MOL   C210 8582   3.872   7.592   2.379  0.2315 -0.2898 -0.0014
   27MOL   C211 8583   3.796   7.469   2.335 -1.1565  0.0194 -0.7054
   27MOL   C212 8584   3.801   7.648   2.504  0.2423 -0.0690  0.4045
   27MOL   C213 8585   3.837   7.558   2.629  0.1661 -0.0830  0.4114
   27MOL   C214 8586   3.970   7.596   2.691 -0.1129  0.0698 -0.0332
   27MOL   C215 8587   3.753   7.469   2.683 -0.2790  0.4124  0.3886
   27MOL   H216 8588   3.972   7.556   2.404  0.3683  0.7322  0.9493
   27MOL   H217 8589   3.785   7.398   2.418 -0.4583  0.0947 -0.5529
   27MOL   H218 8590   3.847   7.413   2.257 -1.4444 -0.8396 -0.2885
   27MOL   H219 8591   3.697   7.501   2.302 -2.3898 -2.5520  0.2874
   27MOL   H220 8592   3.856   7.741   2.519  1.0265 -0.6360  1.1345
   27MOL   H221 8593   3.993   7.550   2.786  1.3140  1.3354  0.2446
   27MOL   H222 8594   3.986   7.703   2.707  0.0400 -0.3168  2.6340
   27MOL   H223 8595   4.047   7.581   2.615  0.1999  0.8514  0.1290
   27MOL   H224 8596   3.654   7.447   2.645 -0.9550  1.6142  1.4317
   27MOL   H225 8597   3.778   7.411   2.771 -2.4643  2.4358  2.3967
   27MOL   C226 8598   3.647   7.688   2.503 -0.1255  0.9542 -0.0251
   27MOL   C227 8599   3.582   7.763   2.382  0.0160  0.2124  0.5987
   27MOL   C228 8600   3.604   7.760   2.641  0.5709 -0.9381 -0.1362
   27MOL   C229 8601   3.466   7.711   2.686  0.0113 -0.1735 -0.6908
   27MOL   C230 8602   3.345   7.775   2.627 -0.3277  0.0696 -0.3756
   27MOL   C231 8603   3.445   7.610   2.771 -0.5307 -0.3755 -0.3952
   27MOL   H232 8604   3.591   7.595   2.499 -1.4292  1.6391  1.7258
   27MOL   H233 8605   3.475   7.783   2.388  0.1383  1.1495 -0.2531
   27MOL   H234 8606   3.598   7.694   2.299  4.0182  1.0593  0.5429
   27MOL   H235 8607   3.642   7.850   2.356 -0.9263  0.6307 -0.1883
   27MOL   H236 8608   3.676   7.722   2.714  1.6777  0.2105 -0.6028
   27MOL   H237 8609   3.259   7.768   2.694 -1.1819 -0.4710 -1.5061
   27MOL   H238 8610   3.314   7.729   2.534  0.4562 -2.8754  0.7600
   27MOL   H239 8611   3.365   7.879   2.601 -0.2892 -0.3197 -1.9238
   27MOL   H240 8612   3.528   7.565   2.825 -0.2061  0.7474  0.0689
   27MOL   H241 8613   3.342   7.580   2.784 -1.6081  3.9957  2.1764
   27MOL   C242 8614   3.627   0.028   2.646  0.7504 -0.0193 -0.0193
   27MOL   C243 8615   3.777   0.061   2.630  0.5656  0.4794  0.0984
   27MOL   C244 8616   3.569   0.085   2.783  0.2353 -0.5524  0.5737
   27MOL   C245 8617   3.524   0.229   2.749 -0.2764 -0.1598  0.2083
   27MOL   C246 8618   3.383   0.236   2.692 -0.1946 -0.1016  0.1074
   27MOL   C247 8619   3.606   0.337   2.764 -0.0233  0.6928  0.6694
   27MOL   H248 8620   3.570   0.068   2.562 -0.7143 -4.7498 -1.4132
   27MOL   H249 8621   3.812   0.062   2.527 -1.8682  0.9707 -0.7601
   27MOL   H250 8622   3.845   0.009   2.698  0.4950  0.0505 -0.1575
   27MOL   H251 8623   3.789   0.164   2.664  0.9852  0.0830  1.1895
   27MOL   H252 8624   3.476   0.032   2.803 -0.1772  0.8142  2.4563
   27MOL   H253 8625   3.378   0.233   2.583  0.8674 -2.3131  0.0854
   27MOL   H254 8626   3.358   0.339   2.719 -0.0540  0.1633 -0.7778
   27MOL   H255 8627   3.320   0.165   2.746 -0.5319  0.5754  0.6209
   27MOL   H256 8628   3.704   0.315   2.803  0.0693 -1.1654 -0.5777
   27MOL   H257 8629   3.569   0.431   2.726 -1.7390  0.0612  0.7471
   27MOL   C258 8630   3.660   0.070   2.913  0.2608 -0.2503 -0.1266
   27MOL   C259 8631   3.709   7.817   2.943  0.3442  0.6135 -0.0941
   27MOL   C260 8632   3.611   0.154   3.043 -0.4740 -0.3869  1.2019
   27MOL   C261 8633   3.733   0.215   3.117  0.4051  0.2518 -0.9450
   27MOL   C262 8634   3.846   0.120   3.150  1.1777 -0.3140  0.2212
   27MOL   C263 8635   3.729   0.343   3.157  0.4156  0.0471 -0.0015
   27MOL   H264 8636   3.755   0.117   2.889 -1.0530  2.2355 -0.5782
   27MOL   H265 8637   3.630   7.742   2.936  0.2389  0.7848 -0.8027
   27MOL   H266 8638   3.770   7.805   3.032  0.4958 -0.0282 -0.2818
   27MOL   H267 8639   3.782   7.794   2.865 -0.7153 -0.1573 -0.8813
   27MOL   H268 8640   3.574   0.243   2.993  3.7476  0.0893 -1.3293
   27MOL   H269 8641   3.911   0.178   3.215  0.4846  0.2399  0.4179
   27MOL   H270 8642   3.907   0.091   3.064  1.1626  0.1897  0.0417
   27MOL   H271 8643   3.805   0.032   3.200 -0.6386 -1.2627 -2.7483
   27MOL   H272 8644   3.645   0.410   3.143  0.1027 -0.5065 -0.7760
   27MOL   H273 8645   3.817   0.376   3.211 -0.0818 -1.1303  1.5724
   27MOL   C274 8646   3.514   0.080   3.137 -0.0544 -0.2108  0.1515
   27MOL   C275 8647   3.393   0.014   3.067  0.2660  0.1755 -0.0266
   27MOL   C276 8648   3.473   0.161   3.265  0.2684  0.4710 -0.2166
   27MOL   C277 8649   3.483   0.057   3.378 -0.8488 -0.0929  0.1556
   27MOL   C278 8650   3.625   0.031   3.436 -0.3846  0.2396 -0.2242
   27MOL   C279 8651   3.374   7.875   3.411  0.2001 -0.4275 -1.1246
   27MOL   H280 8652   3.577   7.888   3.165 -0.5358 -0.4717  0.4583
   27MOL   H281 8653   3.328   0.076   3.005 -0.4719 -0.0224  0.5372
   27MOL   H282 8654   3.328   7.846   3.130  0.4044 -2.1669 -2.0773
   27MOL   H283 8655   3.436   7.836   2.996  0.4724  0.7969 -0.5281
   27MOL   H284 8656   3.554   0.225   3.300 -1.3176  1.6308  1.4256
   27MOL   H285 8657   3.677   0.117   3.478 -2.1868  0.6276  1.2850
   27MOL   H286 8658   3.683   7.885   3.352 -1.5540 -0.0240 -0.9258
   27MOL   H287 8659   3.619   7.842   3.508 -0.2774  2.0566  1.8905
   27MOL   H288 8660   3.273   7.879   3.373 -0.3555  3.3545  0.5421
   27MOL   H289 8661   3.378   7.800   3.489 -0.4555  2.0687  1.4236
   27MOL   C290 8662   3.338   0.244   3.269 -0.3615  1.0575  0.0422
   27MOL   C291 8663   3.327   0.353   3.165 -0.4448 -0.4480  0.0299
   27MOL   C292 8664   3.287   0.308   3.404 -1.0256 -0.3209  0.1515
   27MOL   C293 8665   3.397   0.316   3.515  0.2654 -0.1159 -0.4891
   27MOL   C294 8666   3.498   0.428   3.512  0.1418  0.0817 -0.1487
   27MOL   C295 8667   3.407   0.226   3.615  0.2662 -0.9052 -0.3102
   27MOL   H296 8668   3.274   0.166   3.228  0.8265 -0.2634  0.6821
   27MOL   H297 8669   3.409   0.423   3.179 -0.4884 -0.2744 -0.5607
   27MOL   H298 8670   3.229   0.399   3.164 -0.2552  0.0515  2.3947
   27MOL   H299 8671   3.352   0.314   3.066 -3.2163 -2.2110 -0.0264
   27MOL   H300 8672   3.281   0.416   3.390  0.3023  0.0678  2.3131
   27MOL   H301 8673   3.555   0.437   3.604 -1.5641 -0.5262  0.9963
   27MOL   H302 8674   3.433   0.513   3.491 -0.6924 -0.3942  0.4455
   27MOL   H303 8675   3.566   0.423   3.427  0.7843  1.6769  0.2546
   27MOL   H304 8676   3.340   0.142   3.624 -1.2163  0.6441  4.8370
   27MOL   H305 8677   3.482   0.231   3.692 -0.3078 -1.9086  0.3239
   27MOL   C306 8678   3.150   0.251   3.463  0.1485  0.9287 -0.0928
   27MOL   C307 8679   3.051   0.229   3.345 -0.6071  0.8080  0.0749
   27MOL   C308 8680   3.104   0.354   3.573  0.2613  0.1522  0.3613
   27MOL   C309 8681   3.006   0.287   3.661  0.6332 -1.2865 -0.1035
   27MOL   C310 8682   3.069   0.186   3.758  1.2212  0.2732  0.7619
   27MOL   C311 8683   2.879   0.330   3.668 -0.1402  0.1244  0.1984
   27MOL   H312 8684   3.173   0.155   3.508 -2.9449  0.5595  0.8018
   27MOL   H313 8685   3.053   0.319   3.284 -0.1481  1.2241  0.7066
   27MOL   H314 8686   2.948   0.213   3.377 -0.3350  0.2920  0.7133
   27MOL   H315 8687   3.085   0.139   3.293 -2.0995 -0.2759  0.9267
   27MOL   H316 8688   3.188   0.405   3.619  0.0531 -1.5528  2.6828
   27MOL   H317 8689   3.008   0.159   3.844  1.4356 -2.5127  0.1051
   27MOL   H318 8690   3.168   0.221   3.787  1.6492  1.2391 -1.7634
   27MOL   H319 8691   3.097   0.091   3.712  2.7213  0.8897  0.3713
   27MOL   H320 8692   2.842   0.413   3.610 -0.8432 -0.1278  0.2820
   27MOL   H321 8693   2.804   0.284   3.731  1.1835 -2.2619  0.1191
   27MOL   H322 8694   3.052   0.443   3.537 -2.2147 -1.4191 -0.1046
   28MOL     C1 8695   1.244   0.417   4.479  0.4320 -0.4644 -0.0262
   28MOL     C2 8696   1.328   0.294   4.520 -0.2135  0.0455 -0.1147
   28MOL     C3 8697   1.109   0.437   4.549 -0.3609  0.2134  0.2706
   28MOL     C4 8698   1.127   0.496   4.697 -0.7351 -0.3618 -0.0359
   28MOL     C5 8699   1.182   0.636   4.695  0.3820  0.1542 -0.6741
   28MOL     C6 8700   1.124   0.424   4.818 -0.1971 -0.0172  0.4305
   28MOL     H7 8701   1.309   0.500   4.508 -2.6412  2.8457 -2.1156
   28MOL     H8 8702   1.316   0.287   4.628 -1.0727 -0.8301 -0.2620
   28MOL     H9 8703   1.427   0.323   4.484 -0.8063  1.0159 -0.9984
   28MOL    H10 8704   1.297   0.203   4.469  0.7390 -0.0606 -0.5093
   28MOL    H11 8705   1.062   0.515   4.490 -1.3409 -1.3956 -1.1101
   28MOL    H12 8706   1.150   0.693   4.607 -1.1856  1.2248  0.5727
   28MOL    H13 8707   1.288   0.655   4.711  0.6861 -2.2390  0.2592
   28MOL    H14 8708   1.127   0.688   4.773 -1.4878 -1.2008 -1.0560
   28MOL    H15 8709   1.095   0.322   4.834 -1.4232  0.1906 -0.4592
   28MOL    H16 8710   1.158   0.472   4.909 -0.4086  1.2821 -0.1689
   28MOL    H17 8711   1.238   0.430   4.371 -0.3997  0.9084  0.1760
   28MOL    C18 8712   1.012   0.313   4.554 -0.8083  0.5331 -0.1497
   28MOL    C19 8713   0.980   0.262   4.411 -0.4731  0.8225 -0.3709
   28MOL    C20 8714   0.872   0.340   4.631  0.4541 -0.0937 -0.7380
   28MOL    C21 8715   0.816   0.198   4.655 -1.0902  0.0797  0.1920
   28MOL    C22 8716   0.870   0.120   4.776  0.0799 -0.5440  0.1860
   28MOL    C23 8717   0.716   0.144   4.588  1.0718 -0.3407 -0.1815
   28MOL    H24 8718   1.063   0.228   4.599 -1.5876 -0.2012 -0.6378
   28MOL    H25 8719   1.070   0.247   4.351  0.1658 -1.2521  1.0618
   28MOL    H26 8720   0.919   0.335   4.358 -0.0527 -0.2726 -2.4504
   28MOL    H27 8721   0.918   0.172   4.409 -1.7567  1.6965  0.2428
   28MOL    H28 8722   0.892   0.377   4.732 -1.7087  2.6724 -1.2441
   28MOL    H29 8723   0.803   0.036   4.789 -0.3228 -0.3071 -0.3637
   28MOL    H30 8724   0.881   0.174   4.870  0.6422 -1.1078  0.4490
   28MOL    H31 8725   0.964   0.070   4.753 -0.0443  0.0788 -1.7094
   28MOL    H32 8726   0.668   0.194   4.505  1.0394  2.7199  1.6341
   28MOL    H33 8727   0.662   0.054   4.615  0.0445 -0.3983 -2.3002
   28MOL    C34 8728   0.759   0.436   4.582  0.1764  0.4879 -0.4468
   28MOL    C35 8729   0.817   0.557   4.511  0.2961 -1.2491 -0.2669
   28MOL    C36 8730   0.637   0.475   4.684  0.1751  0.1879  0.3751
   28MOL    C37 8731   0.515   0.471   4.604 -1.0191  0.2899  0.1031
   28MOL    C38 8732   0.480   0.585   4.504 -0.6511  0.1204  1.4031
   28MOL    C39 8733   0.444   0.365   4.594 -0.4609  0.4421  0.3723
   28MOL    H40 8734   0.712   0.390   4.495  0.7381 -3.2555  1.1363
   28MOL    H41 8735   0.866   0.625   4.580  0.2472  2.0263 -3.2767
   28MOL    H42 8736   0.749   0.621   4.454  1.1698 -0.4987 -0.4684
   28MOL    H43 8737   0.874   0.533   4.421  0.5531 -0.3149 -0.3574
   28MOL    H44 8738   0.622   0.391   4.751  1.1595 -1.5951 -1.6005
   28MOL    H45 8739   0.523   0.681   4.536  1.7523  0.0403 -1.4087
   28MOL    H46 8740   0.373   0.600   4.499 -0.8108 -1.3192  0.3738
   28MOL    H47 8741   0.521   0.576   4.403 -1.0196  0.4928  1.2192
   28MOL    H48 8742   0.461   0.274   4.650 -0.1158  0.3240  0.0777
   28MOL    H49 8743   0.354   0.356   4.534 -2.0910 -2.5412  3.0666
   28MOL    C50 8744   0.660   0.606   4.778  0.1051  0.3031  0.6117
   28MOL    C51 8745   0.793   0.596   4.856 -0.0778  0.3399  0.1965
   28MOL    C52 8746   0.523   0.650   4.857 -0.1174  0.5917  0.2347
   28MOL    C53 8747   0.514   0.805   4.863 -0.6202  0.3825  0.5553
   28MOL    C54 8748   0.587   0.887   4.972  0.2970 -0.9705  0.1950
   28MOL    C55 8749   0.437   0.877   4.775  0.2614 -0.2311 -0.3147
   28MOL    H56 8750   0.681   0.687   4.708  2.2264 -0.2937  0.5089
   28MOL    H57 8751   0.868   0.619   4.780 -0.8647  0.9617 -0.4039
   28MOL    H58 8752   0.809   0.493   4.889 -1.7667 -0.0591 -0.2246
   28MOL    H59 8753   0.804   0.668   4.938 -0.2506  0.5553  0.0290
   28MOL    H60 8754   0.447   0.632   4.781 -2.7874  0.1203  2.9124
   28MOL    H61 8755   0.516   0.930   5.043 -0.8230 -2.1294 -0.1961
   28MOL    H62 8756   0.633   0.970   4.918  1.1122 -1.3642  0.2840
   28MOL    H63 8757   0.670   0.823   5.002  1.9043  0.2215 -1.5681
   28MOL    H64 8758   0.376   0.830   4.699 -0.8439  3.2086 -1.6659
   28MOL    H65 8759   0.434   0.985   4.779  0.1597 -0.2913  1.2163
   28MOL    C66 8760   0.482   0.580   4.990 -0.4013 -0.0917 -1.0538
   28MOL    C67 8761   0.601   0.513   5.073 -0.0184 -0.1665  0.1063
   28MOL    C68 8762   0.361   0.477   4.970  0.8586 -0.8784  0.2344
   28MOL    C69 8763   0.237   0.537   4.903 -0.0183 -0.0330 -0.1166
   28MOL    C70 8764   0.171   0.651   4.976 -0.4255 -0.4458  0.3516
   28MOL    C71 8765   0.191   0.507   4.783  0.2016  0.4876  0.4638
   28MOL    H72 8766   0.457   0.658   5.061  1.5536 -0.2658 -0.1416
   28MOL    H73 8767   0.630   0.431   5.008 -2.0940  0.8246 -2.1318
   28MOL    H74 8768   0.581   0.477   5.174  1.4765 -1.5784 -0.0772
   28MOL    H75 8769   0.681   0.582   5.100  1.2064 -2.4673  2.6899
   28MOL    H76 8770   0.402   0.417   4.889  0.2138  0.3853 -1.0460
   28MOL    H77 8771   0.175   0.642   5.085 -1.4786  0.7224  0.4964
   28MOL    H78 8772   0.063   0.663   4.967 -0.8775 -2.3482  2.6602
   28MOL    H79 8773   0.225   0.745   4.966 -1.8338  0.1355 -2.1400
   28MOL    H80 8774   0.227   0.426   4.722 -0.3873  0.1145  0.6028
   28MOL    H81 8775   0.115   0.574   4.744 -0.0114 -0.1833 -0.2956
   28MOL    C82 8776   0.314   0.384   5.092 -0.1112 -0.5033 -0.8329
   28MOL    C83 8777   0.313   0.468   5.232 -0.2180 -0.2276  0.0652
   28MOL    C84 8778   0.381   0.248   5.101 -0.7587  0.6123  0.1322
   28MOL    C85 8779   0.403   0.181   4.968  0.3876  0.4146  0.4167
   28MOL    C86 8780   0.275   0.151   4.887 -0.2234  0.7654 -0.5348
   28MOL    C87 8781   0.529   0.158   4.928  0.6996  0.1792 -0.1006
   28MOL    H88 8782   0.208   0.368   5.075  0.1744 -0.8385 -2.3830
   28MOL    H89 8783   0.381   0.432   5.309 -0.0171  2.2453  1.1270
   28MOL    H90 8784   0.219   0.457   5.286 -0.5433 -2.0737 -0.8503
   28MOL    H91 8785   0.340   0.574   5.228 -1.2943  0.0764  0.6978
   28MOL    H92 8786   0.482   0.273   5.136 -1.0459  1.8502  0.0987
   28MOL    H93 8787   0.204   0.234   4.891 -0.7346  0.3762 -1.5526
   28MOL    H94 8788   0.234   0.062   4.935  0.8184 -0.1848 -1.3706
   28MOL    H95 8789   0.289   0.127   4.782  0.9187  0.4857 -0.3276
   28MOL    H96 8790   0.612   0.200   4.982  1.0068  1.3531 -1.4496
   28MOL    H97 8791   0.550   0.108   4.835 -1.7555 -1.4041  0.1576
   28MOL    C98 8792   0.317   0.149   5.207 -0.6979  0.7464 -0.2573
   28MOL    C99 8793   0.163   0.155   5.202  0.4173 -0.3721  1.0305
   28MOL   C100 8794   0.380   0.155   5.354 -0.6266 -1.1423  0.2864
   28MOL   C101 8795   0.535   0.167   5.353  0.5025 -0.2531 -0.2795
   28MOL   C102 8796   0.616   0.053   5.299  0.5371  0.1133  0.0255
   28MOL   C103 8797   0.598   0.280   5.393  0.8663  0.5904 -0.3072
   28MOL   H104 8798   0.344   0.050   5.172 -0.5908  0.8175 -0.3731
   28MOL   H105 8799   0.125   0.227   5.275  1.8219 -0.4412  1.8559
   28MOL   H106 8800   0.123   0.055   5.221 -1.0157  0.0334  0.2373
   28MOL   H107 8801   0.120   0.182   5.106 -0.4745 -1.1176  1.2210
   28MOL   H108 8802   0.344   0.246   5.400  1.4602  0.1048 -0.4718
   28MOL   H109 8803   0.577   0.030   5.200 -2.5407  0.6511  1.0688
   28MOL   H110 8804   0.625   7.854   5.358 -0.1937  0.5738  0.8623
   28MOL   H111 8805   0.719   0.076   5.272  0.1831  0.5521 -0.9798
   28MOL   H112 8806   0.544   0.368   5.425 -0.3335 -0.3557  0.3246
   28MOL   H113 8807   0.706   0.284   5.389  0.7990  1.1977 -1.6731
   28MOL   C114 8808   0.345   0.051   5.459  0.0323 -1.4045 -0.3683
   28MOL   C115 8809   0.199   0.022   5.477  0.3925 -0.9158 -0.6303
   28MOL   C116 8810   0.409   0.060   5.603  0.5849 -0.3962 -0.2513
   28MOL   C117 8811   0.437   7.816   5.666  0.2353 -0.0865  0.3071
   28MOL   C118 8812   0.558   7.738   5.615 -0.6901 -0.3553 -0.3434
   28MOL   C119 8813   0.350   7.758   5.762 -0.1923  0.2490 -0.2660
   28MOL   H120 8814   0.382   7.852   5.411 -1.7177  0.4000 -5.4799
   28MOL   H121 8815   0.163   7.834   5.413 -0.0877 -0.7923 -0.5154
   28MOL   H122 8816   0.155   0.119   5.454  3.7583  0.8535  0.0998
   28MOL   H123 8817   0.167   7.885   5.577  0.9001 -1.6738 -0.6891
   28MOL   H124 8818   0.510   0.100   5.597  0.3112  0.2782 -0.3697
   28MOL   H125 8819   0.557   7.730   5.506  0.9055 -0.9145 -0.3322
   28MOL   H126 8820   0.556   7.639   5.661 -0.7011 -0.0374  0.3427
   28MOL   H127 8821   0.656   7.780   5.640 -0.6361 -1.4102  1.2628
   28MOL   H128 8822   0.259   7.811   5.783 -0.5401 -0.6444  0.5063
   28MOL   H129 8823   0.371   7.662   5.809 -0.3502  0.5816  0.4968
   28MOL   C130 8824   0.347   0.161   5.702 -0.0185  0.2778 -0.3891
   28MOL   C131 8825   0.299   0.305   5.654 -0.1232  0.1265 -0.3102
   28MOL   C132 8826   0.407   0.179   5.849  0.4419 -0.6215 -0.3092
   28MOL   C133 8827   0.285   0.151   5.946 -0.2400 -0.7017 -0.1181
   28MOL   C134 8828   0.182   0.263   5.939  0.2712  0.0604 -0.0929
   28MOL   C135 8829   0.265   0.045   6.021  0.2235  1.1378 -0.3313
   28MOL   H136 8830   0.251   0.112   5.713  0.2468  0.1663  1.5100
   28MOL   H137 8831   0.215   0.302   5.584  0.2741  0.4685 -0.8033
   28MOL   H138 8832   0.381   0.351   5.599 -1.0324 -0.0577 -1.8587
   28MOL   H139 8833   0.275   0.383   5.726 -0.5773  0.5078 -0.8632
   28MOL   H140 8834   0.476   0.095   5.862  0.8953 -0.4301 -1.4670
   28MOL   H141 8835   0.119   0.263   6.028 -1.3849 -1.0036 -1.2279
   28MOL   H142 8836   0.100   0.246   5.869  0.1544 -1.6200  0.4489
   28MOL   H143 8837   0.223   0.364   5.935 -2.7975  1.3374 -0.6000
   28MOL   H144 8838   0.328   7.850   6.029 -2.3739 -1.0673 -3.2106
   28MOL   H145 8839   0.181   0.034   6.088  0.1888 -1.1248 -0.7054
   28MOL   C146 8840   0.498   0.299   5.886 -0.1812  0.4543 -0.1404
   28MOL   C147 8841   0.607   0.306   5.775 -0.1422  0.2602 -0.1362
   28MOL   C148 8842   0.567   0.288   6.030  0.5642 -0.1779  0.0848
   28MOL   C149 8843   0.634   0.151   6.067 -0.3183 -0.5546 -0.5241
   28MOL   C150 8844   0.778   0.133   6.024 -0.2225 -0.2312  0.5631
   28MOL   C151 8845   0.572   0.046   6.129 -0.5473 -0.1795  0.5336
   28MOL   H152 8846   0.437   0.389   5.876 -3.7355 -1.6160  2.0971
   28MOL   H153 8847   0.664   0.214   5.788 -0.2189  0.3582  0.9301
   28MOL   H154 8848   0.665   0.397   5.789 -2.7463  1.8087  0.9465
   28MOL   H155 8849   0.564   0.311   5.675 -0.8858  2.3302  0.2669
   28MOL   H156 8850   0.642   0.364   6.009 -0.7823  0.7825 -1.3245
   28MOL   H157 8851   0.776   0.084   5.927 -2.0926 -0.4025  0.6618
   28MOL   H158 8852   0.843   0.082   6.095 -0.3595 -2.7876 -1.0709
   28MOL   H159 8853   0.830   0.226   6.002  0.0726 -1.0107 -2.1527
   28MOL   H160 8854   0.471   0.067   6.161 -0.4166  3.1730 -1.0514
   28MOL   H161 8855   0.619   7.843   6.145 -1.3142 -0.3751  1.7202
   28MOL   C162 8856   0.497   0.365   6.146 -0.3779  0.1760 -0.1356
   28MOL   C163 8857   0.503   0.524   6.116 -0.7642 -0.0966 -0.2908
   28MOL   C164 8858   0.533   0.342   6.298 -0.3422 -0.1307  0.2543
   28MOL   C165 8859   0.402   0.390   6.368 -0.6851  0.8451 -0.3927
   28MOL   C166 8860   0.288   0.292   6.345  0.6493  0.1837  0.0227
   28MOL   C167 8861   0.388   0.500   6.439 -0.5787 -0.5569 -0.3516
   28MOL   H168 8862   0.393   0.334   6.132  0.3120 -3.2677  1.7699
   28MOL   H169 8863   0.597   0.565   6.153 -0.8124  0.0428 -0.3242
   28MOL   H170 8864   0.419   0.571   6.167 -0.1621 -0.1137  0.7366
   28MOL   H171 8865   0.487   0.549   6.011  1.5359  0.9492 -0.4121
   28MOL   H172 8866   0.538   0.235   6.314  2.3621 -0.1899 -0.7468
   28MOL   H173 8867   0.235   0.324   6.256  1.2836  0.3664 -0.2934
   28MOL   H174 8868   0.211   0.295   6.422 -0.6262  1.5799 -1.2855
   28MOL   H175 8869   0.316   0.187   6.337  3.9212  1.0508 -0.6410
   28MOL   H176 8870   0.474   0.566   6.438  1.0945 -2.6725 -0.8660
   28MOL   H177 8871   0.293   0.525   6.483  0.6119  0.1892  1.8752
   28MOL   C178 8872   0.657   0.411   6.354 -0.3804 -0.1939  0.0455
   28MOL   C179 8873   0.780   0.386   6.274  0.0048 -0.0402  0.3452
   28MOL   C180 8874   0.681   0.370   6.513 -0.1981  0.3244 -0.7808
   28MOL   C181 8875   0.731   0.495   6.589 -0.0301  0.8072  0.1234
   28MOL   C182 8876   0.850   0.565   6.533 -0.1848 -0.2419  0.1756
   28MOL   C183 8877   0.657   0.547   6.692 -0.0754 -0.6396 -0.3391
   28MOL   H184 8878   0.634   0.516   6.340 -0.2695  0.1512  2.2684
   28MOL   H185 8879   0.779   0.284   6.235 -0.7220 -0.6864  2.0130
   28MOL   H186 8880   0.880   0.392   6.317  1.2266 -1.4050 -2.2138
   28MOL   H187 8881   0.767   0.442   6.181  0.7963  0.1273  0.3313
   28MOL   H188 8882   0.583   0.345   6.553 -0.4390  0.7977 -1.0653
   28MOL   H189 8883   0.801   0.635   6.466  0.1245 -0.1386  0.0558
   28MOL   H190 8884   0.927   0.500   6.491 -1.1478 -0.5708 -1.1086
   28MOL   H191 8885   0.898   0.624   6.611 -0.5563  0.6731 -0.2818
   28MOL   H192 8886   0.570   0.499   6.733 -1.0034 -0.1678 -1.7518
   28MOL   H193 8887   0.686   0.632   6.752 -1.0320 -1.0828  0.7643
   28MOL   C194 8888   0.771   0.240   6.530 -0.9108  0.6817  0.8664
   28MOL   C195 8889   0.724   0.117   6.450 -0.4234  0.3250  0.5463
   28MOL   C196 8890   0.801   0.208   6.682 -1.0770 -0.1316  0.3296
   28MOL   C197 8891   0.943   0.159   6.691  0.3766 -0.6108 -0.3073
   28MOL   C198 8892   1.048   0.265   6.724  0.2474  0.2533  0.1329
   28MOL   C199 8893   0.980   0.030   6.666 -0.6300 -0.7175  0.3271
   28MOL   H200 8894   0.863   0.269   6.479 -1.3711 -0.6300 -0.7653
   28MOL   H201 8895   0.624   0.087   6.481 -0.3522  0.1925  0.6556
   28MOL   H202 8896   0.773   0.022   6.472  1.4025  1.9891  4.1021
   28MOL   H203 8897   0.715   0.131   6.343  0.1993  1.9519  0.6963
   28MOL   H204 8898   0.807   0.297   6.746 -1.2492  0.6157 -0.6887
   28MOL   H205 8899   1.149   0.225   6.732  0.6715  1.3090  0.1741
   28MOL   H206 8900   1.031   0.298   6.826 -0.2578  2.3793 -0.6165
   28MOL   H207 8901   1.051   0.349   6.655  2.1897 -0.4713 -0.7035
   28MOL   H208 8902   0.900   7.856   6.638 -0.2848 -0.6050 -0.9514
   28MOL   H209 8903   1.079   7.878   6.670 -0.6928 -0.7159  2.6657
   28MOL   C210 8904   0.695   0.115   6.760  0.0216  0.2496 -0.4255
   28MOL   C211 8905   0.557   0.180   6.741  0.2575  0.4925 -0.3700
   28MOL   C212 8906   0.726   0.081   6.913 -0.2178 -0.5242  0.1834
   28MOL   C213 8907   0.683   7.830   6.943 -0.4139 -0.0366  0.0069
   28MOL   C214 8908   0.531   7.808   6.975  0.6577  0.3701  0.1003
   28MOL   C215 8909   0.765   7.727   6.931  0.4697  0.2584 -0.1008
   28MOL   H216 8910   0.692   0.015   6.718  1.2027 -0.7774  1.8620
   28MOL   H217 8911   0.479   0.145   6.808 -1.3026  1.6209 -1.5530
   28MOL   H218 8912   0.506   0.162   6.646  1.0846 -0.7421 -0.5876
   28MOL   H219 8913   0.575   0.281   6.777 -0.2146  0.7241 -0.7709
   28MOL   H220 8914   0.835   0.079   6.926  0.0379  1.0443 -1.5291
   28MOL   H221 8915   0.485   7.789   6.879 -0.0946 -0.3609  0.6047
   28MOL   H222 8916   0.482   7.886   7.034  1.5046  2.1325 -1.4707
   28MOL   H223 8917   0.524   7.729   7.050 -3.2218  0.5098 -0.0206
   28MOL   H224 8918   0.866   7.746   6.898  1.2581 -2.8714  0.3592
   28MOL   H225 8919   0.741   7.623   6.949 -1.4220  0.7050  0.1119
   28MOL   C226 8920   0.682   0.181   7.031 -0.3812  0.5359 -0.0304
   28MOL   C227 8921   0.749   0.325   7.020  0.0400  0.2023 -0.0334
   28MOL   C228 8922   0.696   0.129   7.178 -0.2849  0.5731  0.0180
   28MOL   C229 8923   0.587   0.195   7.269 -0.0932  0.1794  0.4365
   28MOL   C230 8924   0.599   0.334   7.335 -0.0554 -0.7014 -0.1612
   28MOL   C231 8925   0.481   0.118   7.288  0.3805 -0.2834 -0.5258
   28MOL   H232 8926   0.577   0.201   7.011 -0.5526 -0.0021  0.3228
   28MOL   H233 8927   0.857   0.318   7.036 -0.2802 -3.6429  1.1036
   28MOL   H234 8928   0.705   0.396   7.091 -1.5565 -2.3995  1.7050
   28MOL   H235 8929   0.722   0.374   6.927 -0.7552  0.8551  0.5257
   28MOL   H236 8930   0.682   0.021   7.184  0.3143  0.4069 -1.4413
   28MOL   H237 8931   0.662   0.322   7.423 -0.3650  1.9487  0.4644
   28MOL   H238 8932   0.505   0.369   7.378  0.9203 -0.9493  2.2074
   28MOL   H239 8933   0.656   0.406   7.275  0.7228 -1.2658 -0.1064
   28MOL   H240 8934   0.465   0.021   7.242  0.8204 -0.5662 -0.0859
   28MOL   H241 8935   0.408   0.159   7.356 -1.2470 -0.8823 -1.8691
   28MOL   C242 8936   0.838   0.132   7.256  1.2486  0.0943  0.2258
   28MOL   C243 8937   0.957   0.090   7.158 -0.4672 -0.3417 -0.4874
   28MOL   C244 8938   0.850   0.081   7.405  0.6661 -0.0537 -0.0106
   28MOL   C245 8939   0.958   0.168   7.478  0.1506  0.1066 -0.1540
   28MOL   C246 8940   0.917   0.308   7.522 -0.8761 -0.0767 -0.0426
   28MOL   C247 8941   1.084   0.126   7.486 -0.3228  0.3567  0.4875
   28MOL   H248 8942   0.854   0.240   7.251  0.3737  0.2735  1.0922
   28MOL   H249 8943   0.976   0.160   7.076 -1.7381 -0.8555 -1.2231
   28MOL   H250 8944   0.940   7.880   7.126  0.3932 -1.1077  1.3849
   28MOL   H251 8945   1.057   0.094   7.202 -0.0335  2.6037 -1.6081
   28MOL   H252 8946   0.756   0.116   7.447  0.4685  0.1606 -0.6258
   28MOL   H253 8947   0.836   0.298   7.594 -1.4297  1.4155 -0.4530
   28MOL   H254 8948   0.887   0.368   7.437 -0.6925 -0.3983 -0.3360
   28MOL   H255 8949   0.998   0.356   7.578 -0.2288 -2.0957  0.8225
   28MOL   H256 8950   1.112   0.033   7.440  1.6499  0.7639  0.8246
   28MOL   H257 8951   1.160   0.191   7.527 -2.0276  2.2492  0.7498
   28MOL   C258 8952   0.863   7.820   7.431 -0.1771 -0.4951  0.2259
   28MOL   C259 8953   0.765   7.733   7.351 -0.0772 -0.7370  0.3770
   28MOL   C260 8954   0.866   7.766   7.584  0.8885  0.3940 -0.6695
   28MOL   C261 8955   0.958   7.637   7.587 -0.6363 -0.0434 -0.0873
   28MOL   C262 8956   1.106   7.662   7.579  0.2986 -0.1390 -0.3913
   28MOL   C263 8957   0.916   7.507   7.584 -0.0704 -0.2851 -0.5304
   28MOL   H264 8958   0.952   7.791   7.374 -0.8161 -2.3485  0.1189
   28MOL   H265 8959   0.790   7.722   7.246 -0.8134  1.4592 -0.0680
   28MOL   H266 8960   0.660   7.762   7.357 -0.4332 -1.2509 -2.5403
   28MOL   H267 8961   0.764   7.631   7.388 -1.1376 -0.2326  1.7969
   28MOL   H268 8962   0.930   7.835   7.639  1.3345 -0.5786  0.0345
   28MOL   H269 8963   1.147   7.682   7.481 -0.0887  2.6962 -0.0055
   28MOL   H270 8964   1.154   7.571   7.616  0.1005  0.3047  0.9907
   28MOL   H271 8965   1.136   7.747   7.640  0.6616 -0.5705  0.0353
   28MOL   H272 8966   0.814   7.474   7.580 -0.3134  0.5092 -0.8086
   28MOL   H273 8967   0.983   7.421   7.586 -0.3177 -0.4580  0.7274
   28MOL   C274 8968   0.729   7.732   7.661 -0.4378 -0.3168 -0.2869
   28MOL   C275 8969   0.626   7.845   7.659  0.0966  0.3083 -0.4465
   28MOL   C276 8970   0.743   7.677   7.808 -0.5244 -0.1506 -0.0177
   28MOL   C277 8971   0.627   7.580   7.843  0.6808  0.4441  0.0865
   28MOL   C278 8972   0.642   7.435   7.804  0.0023  0.3472  0.2201
   28MOL   C279 8973   0.509   7.618   0.011 -0.8785  0.2257 -0.2183
   28MOL   H280 8974   0.685   7.642   7.616  0.3359 -0.1294 -1.4318
   28MOL   H281 8975   0.649   0.042   7.718 -2.5324  0.2216  0.7671
   28MOL   H282 8976   0.547   7.796   7.715  1.7086 -0.4755  1.1907
   28MOL   H283 8977   0.592   7.880   7.562 -3.7880 -1.3977  0.2101
   28MOL   H284 8978   0.831   7.613   7.799  0.3526  1.2840 -2.1004
   28MOL   H285 8979   0.573   7.375   7.863 -1.0332  1.0180 -0.3008
   28MOL   H286 8980   0.747   7.409   7.813  0.3575  1.7733  0.4152
   28MOL   H287 8981   0.619   7.422   7.699 -0.0571  0.9601  0.1521
   28MOL   H288 8982   0.483   7.716   0.047 -1.1046 -0.3801  1.2990
   28MOL   H289 8983   0.433   7.542   0.029 -1.8009  1.1266 -0.2634
   28MOL   C290 8984   0.767   7.782   0.028 -0.1201 -0.4310  0.3502
   28MOL   C291 8985   0.871   7.888   7.885 -0.3763  0.4800  0.1886
   28MOL   C292 8986   0.784   7.718   0.172 -0.0781  0.1901  0.4065
   28MOL   C293 8987   0.726   7.810   0.282 -0.3783 -0.2987 -0.0089
   28MOL   C294 8988   0.583   7.774   0.322 -0.0934 -0.1444  0.3332
   28MOL   C295 8989   0.795   0.017   0.340  0.0860  0.3424  0.7486
   28MOL   H296 8990   0.674   7.839   0.037  1.1407  1.9835 -1.2320
   28MOL   H297 8991   0.875   0.066   0.075  0.1098 -0.3146  0.8524
   28MOL   H298 8992   0.852   0.051   7.793 -1.1692 -1.0254 -0.5853
   28MOL   H299 8993   0.965   7.835   7.865  0.1695  2.0637 -1.5686
   28MOL   H300 8994   0.726   7.626   0.172 -0.3442  0.3362 -1.9696
   28MOL   H301 8995   0.597   7.690   0.390 -1.0829 -0.7596 -0.2242
   28MOL   H302 8996   0.511   7.749   0.244 -0.5126  2.2771 -0.1058
   28MOL   H303 8997   0.530   7.854   0.375  0.4800  0.5894 -0.1870
   28MOL   H304 8998   0.894   0.038   0.302 -0.3713 -0.7920 -1.1174
   28MOL   H305 8999   0.752   0.073   0.422 -1.0331  0.1763  0.2826
   28MOL   C306 9000   0.930   7.689   0.206 -0.6970 -0.2064  0.0930
   28MOL   C307 9001   0.995   7.586   0.106 -0.2168 -0.2013  0.3000
   28MOL   C308 9002   0.940   7.629   0.348  0.8365 -0.2716  0.6313
   28MOL   C309 9003   1.074   7.635   0.415 -0.6649  0.2407  0.2313
   28MOL   C310 9004   1.109   7.771   0.463  0.1659 -0.3452  0.9277
   28MOL   C311 9005   1.157   7.524   0.430  0.3640 -0.8785  0.7362
   28MOL   H312 9006   0.992   7.778   0.205 -0.4004 -0.4053  0.4452
   28MOL   H313 9007   0.934   7.499   0.079  0.4856 -0.3814 -0.7167
   28MOL   H314 9008   1.091   7.552   0.145  0.1365  1.2488  0.7039
   28MOL   H315 9009   1.021   7.640   0.015 -2.7815 -1.2551 -1.1177
   28MOL   H316 9010   0.876   7.681   0.420  2.3529  0.9558  1.1067
   28MOL   H317 9011   1.207   7.760   0.509  0.4826 -2.7098 -0.2714
   28MOL   H318 9012   1.038   7.815   0.534 -0.0730 -0.8326  0.9895
   28MOL   H319 9013   1.123   7.830   0.372  3.1350 -1.6076  0.5072
   28MOL   H320 9014   1.121   7.429   0.393 -0.1309  0.0717 -1.2921
   28MOL   H321 9015   1.247   7.540   0.487 -0.8338 -1.6460  2.9204
   28MOL   H322 9016   0.905   7.526   0.340 -0.4350  0.1092  1.1709
   29MOL     C1 9017   2.379   7.000   7.592  0.1859  0.4081 -0.4480
   29MOL     C2 9018   2.293   7.129   7.617 -0.9510 -0.2141  0.0538
   29MOL     C3 9019   2.393   6.909   7.724 -0.4825  0.2815 -0.5473
   29MOL     C4 9020   2.448   6.990   7.844 -0.4752  0.0525  0.1983
   29MOL     C5 9021   2.420   6.932   0.088 -0.4069 -0.4252  0.5427
   29MOL     C6 9022   2.525   7.095   7.825 -0.2362 -0.2485  0.4201
   29MOL     H7 9023   2.342   6.946   7.504 -1.1211  2.1389 -0.9788
   29MOL     H8 9024   2.187   7.104   7.616 -0.6569 -1.4796 -1.9535
   29MOL     H9 9025   2.314   7.198   7.536 -0.4544  0.8036  1.0343
   29MOL    H10 9026   2.301   7.182   7.712 -3.9026  0.6616 -0.1131
   29MOL    H11 9027   2.290   6.888   7.752  0.6346 -1.6262  2.2705
   29MOL    H12 9028   2.313   6.935   0.110 -0.0522  1.2425  2.1873
   29MOL    H13 9029   2.456   6.998   0.167 -1.7735  1.2326 -0.1738
   29MOL    H14 9030   2.465   6.834   0.096 -0.3419 -0.4317  0.1180
   29MOL    H15 9031   2.543   7.138   7.727  1.2870 -1.2819  0.2331
   29MOL    H16 9032   2.588   7.147   0.003  0.4142 -0.8936  0.3086
   29MOL    H17 9033   2.471   7.035   7.546 -0.1554  0.2601 -1.2480
   29MOL    C18 9034   2.478   6.783   7.688 -0.6686  0.4555 -0.1368
   29MOL    C19 9035   2.622   6.821   7.653  0.6735 -0.1806 -0.7337
   29MOL    C20 9036   2.395   6.683   7.589 -0.5250  0.2401  0.2835
   29MOL    C21 9037   2.245   6.672   7.623  0.0971 -0.0274  0.5882
   29MOL    C22 9038   2.204   6.585   7.740  0.3158 -0.3341  0.2916
   29MOL    C23 9039   2.151   6.732   7.544 -0.2754  0.0347 -0.5006
   29MOL    H24 9040   2.485   6.731   7.784 -1.4494  2.4496  1.0276
   29MOL    H25 9041   2.680   6.729   7.656 -0.4409 -0.8554  0.7592
   29MOL    H26 9042   2.661   6.903   7.714 -0.4897  1.0003 -1.5517
   29MOL    H27 9043   2.622   6.862   7.552  1.9279  0.7949 -0.3599
   29MOL    H28 9044   2.391   6.732   7.491 -1.7155 -0.3525  0.0287
   29MOL    H29 9045   2.240   6.485   7.716  0.0302 -0.6966  1.3705
   29MOL    H30 9046   2.096   6.571   7.746  0.5415 -1.1864  2.9398
   29MOL    H31 9047   2.242   6.634   7.830 -0.0479 -1.2183  0.9357
   29MOL    H32 9048   2.176   6.790   7.457 -0.0860  2.3948  1.0713
   29MOL    H33 9049   2.045   6.737   7.569 -0.5354  0.7927 -1.7293
   29MOL    C34 9050   2.466   6.540   7.565  0.3918  0.2518 -0.4402
   29MOL    C35 9051   2.520   6.462   7.689 -0.6280 -0.3300 -0.5623
   29MOL    C36 9052   2.579   6.551   7.444  0.3458 -0.2755 -0.0914
   29MOL    C37 9053   2.507   6.588   7.310 -0.0792 -0.1023  0.6236
   29MOL    C38 9054   2.403   6.503   7.250  0.5177 -0.0732  0.0696
   29MOL    C39 9055   2.544   6.705   7.247  0.7258 -0.2505 -0.5111
   29MOL    H40 9056   2.389   6.468   7.536 -0.4266  1.8279 -2.2846
   29MOL    H41 9057   2.456   6.476   7.776 -0.0834  1.2377 -0.3887
   29MOL    H42 9058   2.621   6.491   7.717  0.0873 -1.6675 -1.7363
   29MOL    H43 9059   2.537   6.355   7.677  3.7349  0.1327  0.8950
   29MOL    H44 9060   2.641   6.633   7.481 -0.3197 -0.5079  1.5638
   29MOL    H45 9061   2.463   6.427   7.200  1.5301  2.4598 -2.7298
   29MOL    H46 9062   2.342   6.561   7.180  3.2778  1.3461 -1.2374
   29MOL    H47 9063   2.346   6.459   7.332  1.0172 -2.0878 -0.6357
   29MOL    H48 9064   2.622   6.767   7.290  0.0171  0.5561 -0.3709
   29MOL    H49 9065   2.489   6.733   7.158 -0.3866  1.9438  0.8129
   29MOL    C50 9066   2.679   6.433   7.419 -0.3529  0.3538 -0.4915
   29MOL    C51 9067   2.620   6.293   7.412 -0.7071 -0.3216 -0.2114
   29MOL    C52 9068   2.820   6.435   7.504  0.0594  0.4957 -0.1951
   29MOL    C53 9069   2.888   6.572   7.504  0.3091  0.4669 -0.0198
   29MOL    C54 9070   2.968   6.602   7.627 -0.1931  0.6375 -0.3823
   29MOL    C55 9071   2.880   6.662   7.410  0.4462 -0.0624 -0.0435
   29MOL    H56 9072   2.710   6.453   7.317 -3.4136 -2.0015 -1.9764
   29MOL    H57 9073   2.660   6.226   7.336 -0.7833 -2.5651  1.6884
   29MOL    H58 9074   2.512   6.289   7.399 -0.6874 -0.0910 -0.4710
   29MOL    H59 9075   2.645   6.254   7.510 -0.4258  2.5291  0.8988
   29MOL    H60 9076   2.796   6.405   7.606  0.6628 -2.7892 -0.9768
   29MOL    H61 9077   2.950   6.539   7.714  1.5194  0.3060 -0.2333
   29MOL    H62 9078   2.975   6.706   7.660  0.8737 -0.3078  2.6391
   29MOL    H63 9079   3.070   6.582   7.595 -0.5728 -0.4618 -0.9157
   29MOL    H64 9080   2.824   6.647   7.319 -0.5696 -1.3778  0.7869
   29MOL    H65 9081   2.924   6.760   7.424 -2.1768  1.1397  0.2340
   29MOL    C66 9082   2.929   6.329   7.452 -0.7396  0.4963 -0.6183
   29MOL    C67 9083   2.932   6.330   7.293 -0.5140 -1.0681 -0.5265
   29MOL    C68 9084   2.928   6.181   7.511  0.1544  0.2397 -0.5039
   29MOL    C69 9085   2.883   6.171   7.659  0.1125  0.8765 -0.2927
   29MOL    C70 9086   2.792   6.053   7.691  0.3131  0.1495  0.4165
   29MOL    C71 9087   2.919   6.259   7.758 -0.3360  0.3199  0.4596
   29MOL    H72 9088   3.024   6.376   7.479 -1.1045  0.5526  0.5672
   29MOL    H73 9089   3.032   6.294   7.267  2.0165  3.5683  2.1824
   29MOL    H74 9090   2.927   6.433   7.257 -3.0676 -0.9210  0.2077
   29MOL    H75 9091   2.860   6.262   7.247 -1.1945 -0.0284 -1.0099
   29MOL    H76 9092   2.854   6.126   7.454 -0.2592 -1.5168  1.6592
   29MOL    H77 9093   2.685   6.063   7.705  0.1934 -0.0546 -0.3603
   29MOL    H78 9094   2.832   5.997   7.776  0.4536  0.4611  0.5580
   29MOL    H79 9095   2.787   5.984   7.607 -0.2357  0.5656  0.1069
   29MOL    H80 9096   2.989   6.339   7.740  4.0342 -3.3708  0.1245
   29MOL    H81 9097   2.873   6.252   7.856 -3.2825 -0.0575 -0.8884
   29MOL    C82 9098   3.061   6.094   7.489  0.0370  0.9436  0.0701
   29MOL    C83 9099   3.193   6.174   7.516  0.2008  0.0892  0.3294
   29MOL    C84 9100   3.059   6.000   7.360  0.0965  0.6567 -0.7440
   29MOL    C85 9101   2.938   5.905   7.363  0.5585  0.7572  0.7712
   29MOL    C86 9102   2.833   5.919   7.253  0.0304 -0.0607 -0.5393
   29MOL    C87 9103   2.927   5.811   7.460  0.6395 -0.0303 -1.4489
   29MOL    H88 9104   3.077   6.025   7.572  1.9466  1.2963  0.0327
   29MOL    H89 9105   3.203   6.257   7.446  2.6145 -0.7893 -0.4011
   29MOL    H90 9106   3.287   6.121   7.501 -0.2460 -0.4460 -0.6322
   29MOL    H91 9107   3.183   6.204   7.620 -0.0088  1.5310 -0.0917
   29MOL    H92 9108   3.029   6.076   7.288 -1.0894  0.6441 -0.2754
   29MOL    H93 9109   2.892   5.948   7.166 -0.5341 -0.7532 -1.1542
   29MOL    H94 9110   2.757   5.993   7.279 -0.0613  0.0511 -1.0995
   29MOL    H95 9111   2.792   5.819   7.242  2.7058 -1.2269 -0.1569
   29MOL    H96 9112   2.998   5.798   7.540 -0.7035  1.0539 -0.0590
   29MOL    H97 9113   2.849   5.737   7.464 -1.6380  2.4007  1.7408
   29MOL    C98 9114   3.182   5.933   7.301 -0.3662  0.0920  0.2417
   29MOL    C99 9115   3.273   5.867   7.405 -0.1545 -0.4787  0.4641
   29MOL   C100 9116   3.269   6.035   7.214  0.5711 -0.2805 -1.1256
   29MOL   C101 9117   3.191   6.104   7.103  0.2134 -0.6384  0.1976
   29MOL   C102 9118   3.218   6.250   7.076 -0.1169  0.8729 -0.0937
   29MOL   C103 9119   3.102   6.041   7.028  0.7184 -0.4690 -0.8157
   29MOL   H104 9120   3.135   5.861   7.234  2.5422 -0.8872 -0.8044
   29MOL   H105 9121   3.215   5.801   7.470  1.9396  0.8344  3.7990
   29MOL   H106 9122   3.317   5.940   7.474 -0.1302  0.4557 -0.5278
   29MOL   H107 9123   3.351   5.804   7.363 -0.8863 -0.5856 -0.7652
   29MOL   H108 9124   3.299   6.111   7.286 -0.3218 -1.1230  0.1719
   29MOL   H109 9125   3.224   6.306   7.169  1.5423  3.1209 -1.4761
   29MOL   H110 9126   3.143   6.283   7.005  0.8678  0.1760 -1.5002
   29MOL   H111 9127   3.318   6.242   7.032  0.3396 -0.0635  1.1098
   29MOL   H112 9128   3.073   5.939   7.047  0.8738 -0.0974  1.5400
   29MOL   H113 9129   3.051   6.100   6.953  0.5066 -0.6511 -0.8169
   29MOL   C114 9130   3.406   5.979   7.157 -0.0405 -0.0414 -0.2605
   29MOL   C115 9131   3.380   5.848   7.087 -0.2437 -0.2221  0.1992
   29MOL   C116 9132   3.542   5.986   7.237 -0.8988 -0.0344 -0.2847
   29MOL   C117 9133   3.555   6.117   7.326 -0.1702  0.0042  0.2559
   29MOL   C118 9134   3.584   6.094   7.476 -0.3301 -0.4028  0.1257
   29MOL   C119 9135   3.536   6.240   7.288 -0.6743 -1.0621 -0.1735
   29MOL   H120 9136   3.431   6.046   7.074 -3.1075 -3.1453 -3.9193
   29MOL   H121 9137   3.461   5.813   7.023 -0.6519  1.4716 -1.3008
   29MOL   H122 9138   3.293   5.849   7.022 -0.3451 -2.2538  0.2857
   29MOL   H123 9139   3.369   5.761   7.151 -1.5035 -0.2251 -0.0147
   29MOL   H124 9140   3.538   5.895   7.298  0.1856 -2.9297 -4.2733
   29MOL   H125 9141   3.546   6.178   7.535  0.6722  0.6716 -0.7478
   29MOL   H126 9142   3.693   6.093   7.481 -0.2821  1.7930 -0.3622
   29MOL   H127 9143   3.533   6.009   7.522 -0.9849  0.9634  1.9958
   29MOL   H128 9144   3.509   6.261   7.186  0.2800  2.5635  0.2527
   29MOL   H129 9145   3.545   6.319   7.362 -0.7158 -0.6958 -0.5546
   29MOL   C130 9146   3.668   5.959   7.154  0.9467 -0.0504  0.3691
   29MOL   C131 9147   3.773   5.907   7.257 -0.4968  0.7744  0.3758
   29MOL   C132 9148   3.718   6.059   7.040  0.6238 -0.2868 -0.3633
   29MOL   C133 9149   3.740   5.968   6.916 -0.1831  0.2622 -0.0845
   29MOL   C134 9150   3.629   5.977   6.814  1.2033  0.3714  0.2724
   29MOL   C135 9151   3.853   5.894   6.888  0.6531 -0.1558  1.1100
   29MOL   H136 9152   3.638   5.868   7.103  1.6577 -0.7949  1.2473
   29MOL   H137 9153   3.817   5.986   7.318  0.8375 -2.3954  3.7266
   29MOL   H138 9154   3.841   5.855   7.190 -2.3075 -0.1385 -0.7756
   29MOL   H139 9155   3.744   5.823   7.320 -1.8772  0.5500 -0.5486
   29MOL   H140 9156   3.639   6.130   7.015  0.6395  0.3783  1.4252
   29MOL   H141 9157   3.530   5.950   6.852  1.3794 -0.6645 -0.0196
   29MOL   H142 9158   3.636   5.910   6.728  1.8290  1.0868 -0.2466
   29MOL   H143 9159   3.617   6.077   6.772  0.1481  1.7808  3.6912
   29MOL   H144 9160   3.941   5.894   6.951  1.1962 -2.1732  0.3993
   29MOL   H145 9161   3.868   5.831   6.801  1.3641 -0.5581  1.5159
   29MOL   C146 9162   3.857   6.149   7.062 -0.4040  0.5366  0.4317
   29MOL   C147 9163   3.862   6.240   7.185 -0.0206 -0.3337  0.3046
   29MOL   C148 9164   3.890   6.244   6.936 -0.6014  0.0386  0.4836
   29MOL   C149 9165   4.045   6.239   6.914  0.0364 -0.3631  0.2345
   29MOL   C150 9166   4.103   6.109   6.856 -0.1277 -0.0434 -0.1346
   29MOL   C151 9167   4.130   6.339   6.952  0.5074  0.4780  0.4981
   29MOL   H152 9168   3.937   6.075   7.072  1.0413  1.7716 -1.7866
   29MOL   H153 9169   3.953   6.298   7.204 -0.5471  0.3235  0.8323
   29MOL   H154 9170   3.830   6.184   7.273 -3.6729  0.3369 -0.5316
   29MOL   H155 9171   3.789   6.319   7.169 -0.8790 -1.0637  0.5783
   29MOL   H156 9172   3.860   6.182   6.852 -0.2702  2.0221 -1.1553
   29MOL   H157 9173   4.192   6.125   6.796 -2.0708  1.1192 -2.8385
   29MOL   H158 9174   4.037   6.065   6.781 -0.7107 -0.0765  0.3870
   29MOL   H159 9175   4.125   6.036   6.934 -2.5554 -1.1911 -0.4620
   29MOL   H160 9176   4.100   6.431   7.000 -1.7600  0.3730 -0.6198
   29MOL   H161 9177   4.233   6.321   6.929  0.6266 -0.2554  1.5764
   29MOL   C162 9178   3.824   6.388   6.922 -0.4741  0.3140  0.6318
   29MOL   C163 9179   3.670   6.378   6.934 -0.0816 -0.7026  0.0376
   29MOL   C164 9180   3.874   6.481   6.799  0.1882 -0.6744 -0.2773
   29MOL   C165 9181   3.871   6.631   6.839  0.2235 -0.5308 -0.3570
   29MOL   C166 9182   3.987   6.687   6.909 -0.8227  0.3403  0.1254
   29MOL   C167 9183   3.767   6.716   6.806 -0.7425  0.1371 -0.0894
   29MOL   H168 9184   3.856   6.450   7.005 -0.1416  1.4123 -0.2950
   29MOL   H169 9185   3.620   6.327   6.852 -0.3999 -0.6466  0.1930
   29MOL   H170 9186   3.634   6.481   6.938  3.0344  0.4632 -0.6422
   29MOL   H171 9187   3.649   6.340   7.035  0.8491 -1.6393 -0.1191
   29MOL   H172 9188   3.982   6.474   6.791  0.4467  3.2868 -1.0049
   29MOL   H173 9189   3.984   6.792   6.936  1.0087  1.1063 -2.5077
   29MOL   H174 9190   4.088   6.663   6.877 -0.5772  0.6470  0.6719
   29MOL   H175 9191   3.997   6.632   7.003 -2.9841 -1.6629 -0.7417
   29MOL   H176 9192   3.676   6.684   6.757 -0.5051 -1.0602  0.2301
   29MOL   H177 9193   3.774   6.820   6.835  1.5099  0.3879 -1.4424
   29MOL   C178 9194   3.812   6.451   6.662  0.3485 -0.5698 -0.2751
   29MOL   C179 9195   3.799   6.306   6.625 -0.0277 -0.6631 -0.5649
   29MOL   C180 9196   3.868   6.536   6.537  0.5351 -0.5129  0.5439
   29MOL   C181 9197   3.761   6.559   6.426  0.6594  0.0032 -0.7053
   29MOL   C182 9198   3.689   6.697   6.436 -0.2447  0.1293  0.4462
   29MOL   C183 9199   3.721   6.472   6.333  0.3003  0.6518  0.5919
   29MOL   H184 9200   3.706   6.475   6.673  0.1570 -1.3358 -0.4008
   29MOL   H185 9201   3.752   6.290   6.529 -1.1286  1.9489 -0.4998
   29MOL   H186 9202   3.724   6.257   6.687 -0.8821  1.4038  0.0821
   29MOL   H187 9203   3.887   6.241   6.629 -0.5715 -1.3209  1.3130
   29MOL   H188 9204   3.899   6.633   6.576  0.6102  0.4924 -1.9415
   29MOL   H189 9205   3.761   6.772   6.467 -2.5718  2.3540  0.5835
   29MOL   H190 9206   3.609   6.690   6.509 -0.3127 -0.4516  0.3256
   29MOL   H191 9207   3.648   6.719   6.337  2.1672 -1.0900 -0.8919
   29MOL   H192 9208   3.768   6.377   6.317 -1.1839  0.3359 -2.1386
   29MOL   H193 9209   3.636   6.500   6.274  0.2707 -0.0740  0.2885
   29MOL   C194 9210   3.996   6.469   6.466 -0.1650 -0.2654  0.2938
   29MOL   C195 9211   4.116   6.437   6.561  0.1648  0.5569 -0.2660
   29MOL   C196 9212   4.043   6.553   6.340 -0.0636 -0.4420 -0.0141
   29MOL   C197 9213   4.075   6.463   6.219 -0.0376  0.2074  0.5724
   29MOL   C198 9214   4.170   6.352   6.234 -0.8975 -0.3089  0.4550
   29MOL   C199 9215   4.012   6.470   6.102 -0.1814  0.4022  0.6504
   29MOL   H200 9216   3.965   6.373   6.423  1.3416 -0.0434 -1.3613
   29MOL   H201 9217   4.087   6.353   6.623  0.4124 -0.7988 -1.9379
   29MOL   H202 9218   4.139   6.518   6.629  2.7301  0.1086 -0.5734
   29MOL   H203 9219   4.198   6.395   6.504  0.1531  2.0981 -1.4542
   29MOL   H204 9220   3.960   6.612   6.300 -1.4166 -1.3020  1.4447
   29MOL   H205 9221   4.120   6.268   6.282  2.0471 -1.8163  1.0356
   29MOL   H206 9222   4.266   6.373   6.282 -1.4934  1.2664  1.0009
   29MOL   H207 9223   4.201   6.313   6.138  1.1106 -0.9378  1.3296
   29MOL   H208 9224   3.941   6.550   6.090  0.0595  0.9674  2.7975
   29MOL   H209 9225   4.029   6.414   6.011 -0.6370  1.5211 -0.1321
   29MOL   C210 9226   4.150   6.664   6.375  0.7435 -1.3974 -0.0671
   29MOL   C211 9227   4.119   6.761   6.494 -0.4732  0.0540  0.5337
   29MOL   C212 9228   4.208   6.731   6.244 -0.4361 -0.6618 -0.1768
   29MOL   C213 9229   4.357   6.751   6.269 -0.9349  0.8070  0.3138
   29MOL   C214 9230   4.442   6.654   6.185  0.5297  0.4046 -1.1832
   29MOL   C215 9231   4.416   6.840   6.352  0.0601 -0.0394  0.3788
   29MOL   H216 9232   4.238   6.610   6.412  2.0738 -0.2536 -1.4964
   29MOL   H217 9233   4.122   6.710   6.590  3.4210 -0.1850  0.3813
   29MOL   H218 9234   4.021   6.807   6.481 -0.2618  0.3559 -0.0183
   29MOL   H219 9235   4.189   6.844   6.484  1.3501 -1.6184 -0.9598
   29MOL   H220 9236   4.195   6.666   6.157  0.2024 -1.2236  0.1428
   29MOL   H221 9237   4.442   6.554   6.230 -0.3304  1.0265  0.2470
   29MOL   H222 9238   4.544   6.689   6.175  0.6515  0.7286  0.8320
   29MOL   H223 9239   4.410   6.635   6.083  1.2357 -1.0544 -1.1559
   29MOL   H224 9240   4.365   6.918   6.407 -0.4166  1.1279 -1.6888
   29MOL   H225 9241   4.523   6.842   6.365  0.1009 -0.6375  0.1614
   29MOL   C226 9242   4.140   6.866   6.201 -0.4583  0.1031 -0.4585
   29MOL   C227 9243   3.981   6.854   6.203 -0.0819  0.0077  0.0343
   29MOL   C228 9244   4.203   6.928   6.069  0.0702  0.3492 -0.0847
   29MOL   C229 9245   4.210   7.082   6.086  0.0450  0.6497 -0.1417
   29MOL   C230 9246   4.082   7.163   6.088 -0.4379 -0.0951 -0.8048
   29MOL   C231 9247   4.328   7.143   6.094 -0.0596  0.1915 -0.2281
   29MOL   H232 9248   4.165   6.942   6.276 -2.3077  0.6330 -0.3509
   29MOL   H233 9249   3.947   6.802   6.114  1.4769  0.4327 -0.8187
   29MOL   H234 9250   3.927   6.949   6.191 -0.6934 -0.2095  1.0092
   29MOL   H235 9251   3.927   6.813   6.289  0.0400  1.1766  0.6836
   29MOL   H236 9252   4.305   6.890   6.066  0.9181  2.5332  0.0682
   29MOL   H237 9253   4.099   7.258   6.037 -1.8880  0.1343 -0.8910
   29MOL   H238 9254   4.049   7.176   6.192  0.4753  2.8391 -0.8374
   29MOL   H239 9255   4.002   7.104   6.043  0.2128 -0.9944 -0.7943
   29MOL   H240 9256   4.417   7.082   6.094  0.9906  1.7122 -0.9270
   29MOL   H241 9257   4.341   7.250   6.095  2.4654 -0.0992  1.1165
   29MOL   C242 9258   4.139   6.891   5.932  0.3927  0.7323 -0.9230
   29MOL   C243 9259   4.130   6.744   5.897 -0.2799  1.0400  0.0832
   29MOL   C244 9260   4.207   6.961   5.811  0.1915  0.3090  0.8423
   29MOL   C245 9261   4.089   6.991   5.718  0.6046  0.1019  0.8433
   29MOL   C246 9262   4.021   7.123   5.737  0.2493  0.1298 -0.0428
   29MOL   C247 9263   4.050   6.907   5.625 -0.0950 -0.1312  0.5730
   29MOL   H248 9264   4.036   6.924   5.935  0.3216  0.6357 -2.0759
   29MOL   H249 9265   4.088   6.727   5.798 -1.5146 -0.4384  0.8431
   29MOL   H250 9266   4.074   6.691   5.974  0.6645 -1.8014 -1.1422
   29MOL   H251 9267   4.229   6.697   5.895 -0.1483  1.3202 -0.0941
   29MOL   H252 9268   4.241   7.057   5.849  1.6632  0.0513  0.2096
   29MOL   H253 9269   4.091   7.203   5.762  1.8920 -1.3962  0.3375
   29MOL   H254 9270   3.945   7.108   5.814 -0.1311  0.2564 -0.3916
   29MOL   H255 9271   3.953   7.158   5.659  0.6667 -0.7163 -0.7915
   29MOL   H256 9272   4.101   6.812   5.616 -0.7646 -0.3507 -1.0235
   29MOL   H257 9273   3.968   6.929   5.558  0.3470  2.7743  0.9179
   29MOL   C258 9274   4.332   6.892   5.742  0.2807  0.3656  0.5921
   29MOL   C259 9275   4.452   6.857   5.832  0.8070  0.2451 -0.1297
   29MOL   C260 9276   4.383   6.974   5.615 -0.3769  0.6475  0.3801
   29MOL   C261 9277   4.428   6.879   5.502  0.4060  0.5671 -0.3239
   29MOL   C262 9278   4.313   6.842   5.405  0.7124  0.3687 -0.0200
   29MOL   C263 9279   4.544   6.811   5.481  0.0359  0.2492 -0.2255
   29MOL   H264 9280   4.297   6.797   5.701  2.3530 -0.1296 -0.0732
   29MOL   H265 9281   4.540   6.838   5.771  0.2327  0.1864 -0.9487
   29MOL   H266 9282   4.445   6.779   5.908  2.6042 -0.8888 -1.1012
   29MOL   H267 9283   4.465   6.949   5.889 -3.6028  1.7347 -1.3491
   29MOL   H268 9284   4.296   7.022   5.571  0.5003  1.2276 -0.7706
   29MOL   H269 9285   4.338   6.744   5.366 -0.1670  0.4274 -0.7593
   29MOL   H270 9286   4.310   6.908   5.318  0.3591  2.6480  1.6536
   29MOL   H271 9287   4.210   6.838   5.442  1.5372 -0.6731  2.2838
   29MOL   H272 9288   4.633   6.816   5.543  1.1253 -1.3207 -1.6344
   29MOL   H273 9289   4.559   6.749   5.395  1.4339  0.2012  0.0370
   29MOL   C274 9290   4.487   7.088   5.632 -0.1787 -0.6319  0.6827
   29MOL   C275 9291   4.447   7.195   5.737  0.3052  0.2409  0.0142
   29MOL   C276 9292   4.547   7.154   5.502 -0.0227  0.0610 -0.1804
   29MOL   C277 9293   4.700   7.166   5.506 -0.4159 -0.1401 -0.7387
   29MOL   C278 9294   4.749   7.253   5.618 -0.7905 -0.3018 -0.0477
   29MOL   C279 9295   4.781   7.092   5.431  0.1799 -0.3117 -0.1961
   29MOL   H280 9296   4.577   7.045   5.675  1.1964  0.7861 -0.7241
   29MOL   H281 9297   4.441   7.156   5.838  1.3644  3.0630  1.2246
   29MOL   H282 9298   4.356   7.249   5.709  0.7345  0.2942 -1.3280
   29MOL   H283 9299   4.528   7.267   5.750 -0.7646  1.3298  0.8030
   29MOL   H284 9300   4.536   7.090   5.414 -1.6304  1.1761 -0.8212
   29MOL   H285 9301   4.743   7.208   5.717 -0.6187 -2.0235 -0.8104
   29MOL   H286 9302   4.712   7.356   5.611 -2.5193 -0.9773 -1.1051
   29MOL   H287 9303   4.854   7.270   5.596 -1.4157  2.4807 -1.0557
   29MOL   H288 9304   4.734   7.035   5.352 -0.5813  0.7485 -0.5163
   29MOL   H289 9305   4.886   7.099   5.456 -0.2943  1.4558  1.3995
   29MOL   C290 9306   4.475   7.289   5.455 -0.6265 -0.5392 -0.3276
   29MOL   C291 9307   4.327   7.258   5.418  0.0472  0.7490  0.2545
   29MOL   C292 9308   4.549   7.355   5.334 -0.3895 -0.4881 -0.3888
   29MOL   C293 9309   4.538   7.508   5.351  0.8532  0.4767  0.2528
   29MOL   C294 9310   4.404   7.570   5.318  0.6553 -0.2521 -0.7428
   29MOL   C295 9311   4.643   7.581   5.399 -0.0516  0.6829 -0.3204
   29MOL   H296 9312   4.494   7.348   5.545  0.0799 -0.4523 -0.5272
   29MOL   H297 9313   4.262   7.280   5.503  1.0911 -0.4299  1.3802
   29MOL   H298 9314   4.322   7.151   5.401 -0.0184  0.9676 -1.2017
   29MOL   H299 9315   4.290   7.314   5.332 -0.6825  3.4797  2.2823
   29MOL   H300 9316   4.656   7.346   5.353 -0.2193  2.0987 -0.0539
   29MOL   H301 9317   4.420   7.677   5.326  0.1712 -0.1903 -0.5787
   29MOL   H302 9318   4.336   7.534   5.396 -1.1110  0.0781 -2.1125
   29MOL   H303 9319   4.352   7.535   5.229  0.9132 -0.1679 -0.9262
   29MOL   H304 9320   4.727   7.522   5.433 -0.3588  0.6674  0.4246
   29MOL   H305 9321   4.641   7.688   5.409  0.8193  1.1006 -3.7966
   29MOL   C306 9322   4.523   7.304   5.191 -0.6473  0.3668 -0.3209
   29MOL   C307 9323   4.533   7.156   5.166 -0.0540 -0.1256 -0.0693
   29MOL   C308 9324   4.617   7.369   5.087 -0.2311 -0.4490 -0.5805
   29MOL   C309 9325   4.560   7.390   4.942  0.4173  0.4006  0.0368
   29MOL   C310 9326   4.474   7.510   4.922 -0.2418 -0.3650 -0.1246
   29MOL   C311 9327   4.599   7.308   4.843 -0.2864 -0.0164  0.2921
   29MOL   H312 9328   4.421   7.320   5.157 -0.8458 -0.2061  0.0036
   29MOL   H313 9329   4.518   7.133   5.060  0.7431  2.4285 -0.7692
   29MOL   H314 9330   4.444   7.117   5.216 -1.5428  0.5201 -2.1244
   29MOL   H315 9331   4.618   7.099   5.203 -0.5756 -0.3304  0.8245
   29MOL   H316 9332   4.651   7.468   5.114 -1.5533  0.2465 -1.3852
   29MOL   H317 9333   4.398   7.517   5.000 -1.7001  1.8212 -1.6784
   29MOL   H318 9334   4.424   7.505   4.825  0.8154  1.3055 -0.7608
   29MOL   H319 9335   4.543   7.593   4.934 -0.4283 -0.0786 -0.9897
   29MOL   H320 9336   4.664   7.222   4.856 -2.2932 -1.8865 -1.5816
   29MOL   H321 9337   4.575   7.330   4.740  3.2717 -0.5544 -0.7333
   29MOL   H322 9338   4.709   7.312   5.091  0.1125 -0.0487 -2.1979
   30MOL     C1 9339   5.168   6.072   5.676 -0.9954 -0.4001  0.4648
   30MOL     C2 9340   5.126   6.042   5.828 -0.6190  0.7435 -0.1201
   30MOL     C3 9341   5.301   6.000   5.625  0.8931  0.1932 -0.2708
   30MOL     C4 9342   5.414   6.020   5.729  0.0810 -0.1033  0.5213
   30MOL     C5 9343   5.449   6.159   5.773 -0.3645 -0.3100  0.0206
   30MOL     C6 9344   5.469   5.905   5.786 -0.0892 -0.2429  0.5423
   30MOL     H7 9345   5.086   6.040   5.612  0.1052 -1.3903 -0.4788
   30MOL     H8 9346   5.040   6.105   5.854 -2.1927 -1.3044 -0.1968
   30MOL     H9 9347   5.209   6.055   5.896  0.0117 -0.4887 -0.6497
   30MOL    H10 9348   5.096   5.942   5.858  1.4982 -0.7941 -2.9748
   30MOL    H11 9349   5.275   5.894   5.616  0.6624  0.1207  1.1891
   30MOL    H12 9350   5.523   6.198   5.703 -1.4056  1.3423 -0.1854
   30MOL    H13 9351   5.486   6.168   5.875 -2.1896 -0.2339  0.6893
   30MOL    H14 9352   5.370   6.233   5.764  0.4272  0.3368 -2.1075
   30MOL    H15 9353   5.451   5.804   5.754 -1.1934  0.3997 -0.9474
   30MOL    H16 9354   5.543   5.922   5.863 -1.0613 -0.9630  1.6465
   30MOL    H17 9355   5.187   6.178   5.661  0.9182 -0.7381  0.2914
   30MOL    C18 9356   5.340   6.060   5.483  0.5030 -0.5067 -0.2873
   30MOL    C19 9357   5.223   6.074   5.382  0.7840  0.3496  0.3493
   30MOL    C20 9358   5.470   6.009   5.416  0.0303 -0.2196  0.3224
   30MOL    C21 9359   5.530   6.121   5.329  0.4669 -0.2990  0.2449
   30MOL    C22 9360   5.623   6.203   5.416  0.0561 -0.1733 -1.1730
   30MOL    C23 9361   5.505   6.144   5.201  0.0506  0.0701  0.2572
   30MOL    H24 9362   5.356   6.167   5.500 -2.0568 -0.3365  1.2604
   30MOL    H25 9363   5.160   6.150   5.428  2.7130  1.1963  1.7037
   30MOL    H26 9364   5.161   5.985   5.383  1.6058 -0.2443 -0.9364
   30MOL    H27 9365   5.262   6.102   5.284 -0.8292  1.0426 -0.1045
   30MOL    H28 9366   5.538   5.998   5.500 -2.4512 -0.7157  2.3204
   30MOL    H29 9367   5.686   6.280   5.371  1.4966  0.2752  1.4733
   30MOL    H30 9368   5.701   6.138   5.457 -0.5408 -0.3537 -0.2980
   30MOL    H31 9369   5.577   6.250   5.504  0.0329 -2.0255 -0.1608
   30MOL    H32 9370   5.449   6.082   5.134  0.9273  2.0291 -2.3656
   30MOL    H33 9371   5.547   6.229   5.150  2.5741 -2.0022 -1.1892
   30MOL    C34 9372   5.455   5.868   5.349 -0.7558 -0.7986 -0.4315
   30MOL    C35 9373   5.384   5.760   5.426 -0.0883 -0.7593 -0.7467
   30MOL    C36 9374   5.585   5.821   5.282 -0.4643 -0.3814  0.1603
   30MOL    C37 9375   5.551   5.745   5.152  0.6139 -0.2990  0.4839
   30MOL    C38 9376   5.519   5.837   5.034 -0.0208 -0.1491 -0.6062
   30MOL    C39 9377   5.547   5.613   5.138 -0.3879  0.8235 -0.0951
   30MOL    H40 9378   5.383   5.901   5.274 -0.0380 -2.0565 -1.6987
   30MOL    H41 9379   5.410   5.763   5.532 -1.2329 -2.3585 -0.3961
   30MOL    H42 9380   5.422   5.663   5.392  0.7128 -0.2937 -1.1737
   30MOL    H43 9381   5.275   5.761   5.418 -0.3873 -2.4697  2.2321
   30MOL    H44 9382   5.627   5.912   5.240 -0.2332  0.9601  3.1732
   30MOL    H45 9383   5.602   5.907   5.023  1.3603 -1.7317 -0.2636
   30MOL    H46 9384   5.428   5.897   5.041  0.6092  0.7947 -0.4563
   30MOL    H47 9385   5.512   5.783   4.939  1.8871  0.3388 -1.0483
   30MOL    H48 9386   5.568   5.546   5.220 -1.8411  1.6402  0.9570
   30MOL    H49 9387   5.519   5.569   5.043  1.5885  0.9880 -0.7868
   30MOL    C50 9388   5.698   5.750   5.365 -0.2435 -0.2277  0.6895
   30MOL    C51 9389   5.727   5.814   5.500 -0.1261 -0.0956 -0.6461
   30MOL    C52 9390   5.829   5.729   5.282  0.7549  0.1721  0.8532
   30MOL    C53 9391   5.882   5.586   5.304  0.1029  0.0184  0.4379
   30MOL    C54 9392   5.860   5.475   5.202  0.6466 -0.4661  0.5143
   30MOL    C55 9393   5.959   5.566   5.411  0.3328 -0.0066  0.7954
   30MOL    H56 9394   5.656   5.656   5.401  2.5534 -0.6457  3.1412
   30MOL    H57 9395   5.805   5.770   5.561 -2.2972 -1.3793  1.2828
   30MOL    H58 9396   5.650   5.822   5.576  1.0828 -0.1167  0.5844
   30MOL    H59 9397   5.749   5.920   5.493  1.7626 -0.2197  2.6875
   30MOL    H60 9398   5.797   5.727   5.178  1.0180 -5.2109  0.7217
   30MOL    H61 9399   5.753   5.455   5.210  0.6000  0.2870  1.8646
   30MOL    H62 9400   5.898   5.382   5.242 -0.9186 -1.4401 -0.2010
   30MOL    H63 9401   5.882   5.485   5.096 -0.7494 -1.7802  0.0769
   30MOL    H64 9402   5.976   5.651   5.475  1.5304  0.6547 -0.3710
   30MOL    H65 9403   6.004   5.468   5.422  0.2318 -0.2348 -0.6475
   30MOL    C66 9404   5.950   5.835   5.279  0.1558  0.0280  0.1584
   30MOL    C67 9405   5.900   5.970   5.230  0.3181  0.0893 -0.2575
   30MOL    C68 9406   6.087   5.791   5.212  0.0024 -0.0832  0.1468
   30MOL    C69 9407   6.195   5.832   5.304  0.1989  0.7007 -0.1961
   30MOL    C70 9408   6.223   5.981   5.320 -0.0329  0.1480 -0.5146
   30MOL    C71 9409   6.257   5.737   5.374  0.3801  0.1810 -0.8488
   30MOL    H72 9410   5.970   5.855   5.384  0.6194  0.2730  0.0254
   30MOL    H73 9411   5.986   6.037   5.221  0.8398 -0.5409 -0.0473
   30MOL    H74 9412   5.814   6.006   5.287 -2.2216  0.1375 -3.9244
   30MOL    H75 9413   5.863   5.965   5.128 -0.4486  1.3840 -0.0626
   30MOL    H76 9414   6.093   5.682   5.205 -2.9171 -0.3512  1.3122
   30MOL    H77 9415   6.300   6.005   5.395 -2.0376 -1.7242  2.2432
   30MOL    H78 9416   6.135   6.016   5.373 -0.7322  0.4685 -1.8835
   30MOL    H79 9417   6.244   6.033   5.227 -0.8154  0.2802 -0.6140
   30MOL    H80 9418   6.244   5.630   5.369  0.9752  0.0919 -0.6088
   30MOL    H81 9419   6.335   5.774   5.438  0.2846  0.6842 -1.0237
   30MOL    C82 9420   6.110   5.835   5.064  0.3650 -0.3782  0.1034
   30MOL    C83 9421   6.004   5.766   4.977 -0.1952 -0.0659  0.2033
   30MOL    C84 9422   6.252   5.804   5.007  0.0839  0.7324  0.6347
   30MOL    C85 9423   6.294   5.888   4.891 -0.4406 -0.1449  0.5328
   30MOL    C86 9424   6.441   5.916   4.869 -0.4040 -0.4095 -0.7123
   30MOL    C87 9425   6.215   5.961   4.817  0.4469  0.2436  0.0051
   30MOL    H88 9426   6.104   5.943   5.060  3.2351 -0.2003 -0.1576
   30MOL    H89 9427   5.966   5.670   5.013  0.5846 -0.2394  0.5719
   30MOL    H90 9428   6.036   5.745   4.875  0.0162 -1.6225  0.5690
   30MOL    H91 9429   5.913   5.826   4.969  0.3005  0.3475 -2.9132
   30MOL    H92 9430   6.321   5.838   5.084  1.2458  2.9698 -1.3108
   30MOL    H93 9431   6.463   5.901   4.764  2.0031  0.5821 -0.3816
   30MOL    H94 9432   6.494   5.850   4.938  1.7405 -0.9536 -2.8048
   30MOL    H95 9433   6.462   6.021   4.890 -2.4375 -0.1444  0.1339
   30MOL    H96 9434   6.107   5.970   4.821  0.6478  2.6562  0.4832
   30MOL    H97 9435   6.253   6.023   4.737 -0.9019  0.6470 -0.3409
   30MOL    C98 9436   6.278   5.651   4.980 -0.1711 -0.1374 -0.3792
   30MOL    C99 9437   6.394   5.599   5.067  0.2497  0.1873 -0.5893
   30MOL   C100 9438   6.263   5.585   4.837  0.0102  0.7146 -0.4787
   30MOL   C101 9439   6.141   5.493   4.838 -0.3509 -0.2345  0.2253
   30MOL   C102 9440   6.151   5.368   4.923 -0.2641  0.3019  0.0455
   30MOL   C103 9441   6.034   5.512   4.762  0.1542 -0.1045 -0.7394
   30MOL   H104 9442   6.191   5.606   5.029  0.7159 -0.0872  1.3081
   30MOL   H105 9443   6.488   5.648   5.042 -0.0094  0.6338 -0.6765
   30MOL   H106 9444   6.419   5.493   5.054  1.8631  0.4636  0.2253
   30MOL   H107 9445   6.375   5.614   5.173  1.7483 -3.8611  0.3537
   30MOL   H108 9446   6.251   5.667   4.766  2.3617  1.3036 -0.2219
   30MOL   H109 9447   6.060   5.312   4.942 -1.1309  1.8515  0.6252
   30MOL   H110 9448   6.191   5.393   5.021  0.1408 -1.9233  0.4730
   30MOL   H111 9449   6.225   5.305   4.874 -1.5727 -0.2589 -1.2182
   30MOL   H112 9450   6.027   5.596   4.695  2.2352 -0.2683 -1.1844
   30MOL   H113 9451   5.950   5.445   4.772 -0.1428  0.2401 -0.8993
   30MOL   C114 9452   6.388   5.507   4.778  0.2737  0.1743  0.2127
   30MOL   C115 9453   6.525   5.586   4.779  0.7550  0.4042 -0.1703
   30MOL   C116 9454   6.362   5.452   4.632 -0.0117 -0.1495 -0.7064
   30MOL   C117 9455   6.385   5.296   4.637  0.5081  0.0002  0.4860
   30MOL   C118 9456   6.524   5.248   4.668  0.5315  0.5542 -0.0387
   30MOL   C119 9457   6.280   5.212   4.617  0.4175  1.3208 -0.7426
   30MOL   H120 9458   6.406   5.430   4.853 -1.2444 -0.8315 -0.4254
   30MOL   H121 9459   6.511   5.693   4.767  1.2400  0.4341 -0.5057
   30MOL   H122 9460   6.602   5.537   4.719  1.7139  1.2118  0.3812
   30MOL   H123 9461   6.575   5.576   4.876  3.0559 -0.6947 -1.4484
   30MOL   H124 9462   6.255   5.469   4.625 -0.5346 -1.4541  2.9350
   30MOL   H125 9463   6.561   5.288   4.763  1.2902  2.4623 -1.1047
   30MOL   H126 9464   6.586   5.277   4.583  0.8478 -0.2425 -0.0852
   30MOL   H127 9465   6.522   5.139   4.672 -1.6292  0.5034 -1.8143
   30MOL   H128 9466   6.181   5.243   4.588  0.5263  0.6870 -1.8444
   30MOL   H129 9467   6.297   5.106   4.631 -0.6771  1.0409 -1.4308
   30MOL   C130 9468   6.414   5.523   4.507 -0.0850  0.3659  0.1745
   30MOL   C131 9469   6.388   5.679   4.513  0.0485 -0.6204 -0.6934
   30MOL   C132 9470   6.382   5.467   4.363 -0.2996  0.6712 -0.1938
   30MOL   C133 9471   6.505   5.467   4.276 -0.4436  0.2821 -0.1409
   30MOL   C134 9472   6.552   5.605   4.234 -0.1854  0.1363 -0.0218
   30MOL   C135 9473   6.571   5.355   4.245  0.3629  0.7582  0.4221
   30MOL   H136 9474   6.522   5.503   4.507  0.1699  1.6431 -1.2058
   30MOL   H137 9475   6.460   5.724   4.581 -1.4626 -1.2198  1.3458
   30MOL   H138 9476   6.288   5.703   4.548  1.4170  1.3551  2.0107
   30MOL   H139 9477   6.398   5.716   4.411  0.1316 -1.0956 -0.8626
   30MOL   H140 9478   6.371   5.359   4.371 -1.7523  0.4625 -3.7287
   30MOL   H141 9479   6.597   5.662   4.316  1.6548 -0.9941 -0.2278
   30MOL   H142 9480   6.478   5.657   4.173 -0.4107 -0.9234 -0.6632
   30MOL   H143 9481   6.633   5.573   4.169 -1.4823 -0.2893 -1.4465
   30MOL   H144 9482   6.537   5.261   4.287 -1.1550  1.3141  0.4610
   30MOL   H145 9483   6.663   5.350   4.189  1.1142 -1.2225  1.7608
   30MOL   C146 9484   6.255   5.525   4.281 -0.3340 -0.4712 -0.1627
   30MOL   C147 9485   6.132   5.485   4.369  0.1169  0.9658 -0.2010
   30MOL   C148 9486   6.233   5.502   4.132  0.3751  0.2769  0.7972
   30MOL   C149 9487   6.166   5.628   4.066  0.2300  0.3482  0.1130
   30MOL   C150 9488   6.028   5.667   4.105  0.4798 -0.6254  0.2000
   30MOL   C151 9489   6.234   5.701   3.973 -0.8242 -0.3564  0.2882
   30MOL   H152 9490   6.274   5.633   4.280 -0.1207 -0.5082 -0.1465
   30MOL   H153 9491   6.141   5.382   4.403 -1.5276  0.4806 -1.1375
   30MOL   H154 9492   6.042   5.492   4.308  0.0208  2.8339  0.1261
   30MOL   H155 9493   6.123   5.551   4.455 -0.1755  1.6027 -0.7229
   30MOL   H156 9494   6.328   5.512   4.079 -0.4749  1.1814 -0.5829
   30MOL   H157 9495   6.029   5.715   4.202  1.1759  0.1716 -0.2013
   30MOL   H158 9496   5.968   5.577   4.120  2.4824 -2.1106 -0.4043
   30MOL   H159 9497   5.980   5.729   4.029  3.6861  0.7479 -0.7871
   30MOL   H160 9498   6.339   5.682   3.952  0.0898  2.3157  2.0975
   30MOL   H161 9499   6.192   5.785   3.919 -0.4690 -0.0610  0.4647
   30MOL   C162 9500   6.167   5.363   4.089  0.4538 -0.7040  0.5029
   30MOL   C163 9501   6.229   5.237   4.155 -0.1191 -0.8400  0.7869
   30MOL   C164 9502   6.138   5.343   3.931  0.1015  0.5729  0.3912
   30MOL   C165 9503   6.004   5.264   3.915 -0.1729 -0.7455  0.0311
   30MOL   C166 9504   5.875   5.353   3.917  0.0345  0.3470 -0.5584
   30MOL   C167 9505   5.988   5.129   3.910  0.2086 -0.0880  0.1323
   30MOL   H168 9506   6.068   5.369   4.134 -0.8346 -0.0335 -2.3068
   30MOL   H169 9507   6.208   5.145   4.100 -0.3228 -0.2102 -0.2078
   30MOL   H170 9508   6.190   5.235   4.257  0.3068  0.4307  0.9811
   30MOL   H171 9509   6.336   5.226   4.139 -0.4898 -0.9078 -1.9492
   30MOL   H172 9510   6.116   5.439   3.884 -1.0525 -0.0745 -0.4314
   30MOL   H173 9511   5.889   5.453   3.876 -0.0750  0.3972 -0.4743
   30MOL   H174 9512   5.866   5.368   4.025 -2.9175  2.8843 -1.1145
   30MOL   H175 9513   5.783   5.304   3.888 -0.4937  1.4807 -0.8025
   30MOL   H176 9514   6.069   5.058   3.919 -1.0364 -1.8616 -2.2968
   30MOL   H177 9515   5.888   5.092   3.895 -0.0656  0.3531  0.8423
   30MOL   C178 9516   6.264   5.279   3.848 -0.6208  0.3213 -0.2296
   30MOL   C179 9517   6.411   5.325   3.884  0.2108 -0.3154  0.3308
   30MOL   C180 9518   6.249   5.290   3.693  0.2806 -0.1427 -0.2410
   30MOL   C181 9519   6.114   5.247   3.636 -0.1215 -0.1822  0.2380
   30MOL   C182 9520   6.103   5.104   3.591 -0.2080 -0.0368  0.1618
   30MOL   C183 9521   6.019   5.340   3.610 -0.0175 -0.4251 -0.4853
   30MOL   H184 9522   6.252   5.174   3.878 -1.1241 -0.6750 -3.6981
   30MOL   H185 9523   6.476   5.247   3.846 -0.0194  0.0320 -0.8118
   30MOL   H186 9524   6.429   5.329   3.991  0.3486  0.6348  0.2767
   30MOL   H187 9525   6.418   5.422   3.834 -0.2636 -1.2198 -1.5471
   30MOL   H188 9526   6.233   5.397   3.688  1.1613  0.0637  1.1311
   30MOL   H189 9527   6.132   5.100   3.486  1.2613 -1.5507  0.6043
   30MOL   H190 9528   5.995   5.089   3.587 -0.2632  0.4310 -0.2366
   30MOL   H191 9529   6.138   5.024   3.656 -1.1253  0.2094  0.9708
   30MOL   H192 9530   6.019   5.442   3.647  0.7712 -0.7717  0.4865
   30MOL   H193 9531   5.938   5.311   3.544 -0.3347 -0.7620  0.0596
   30MOL   C194 9532   6.366   5.266   3.593 -0.1348  0.1733  0.2088
   30MOL   C195 9533   6.434   5.133   3.617 -0.2337  0.1379 -0.5846
   30MOL   C196 9534   6.466   5.386   3.557  0.3989  0.0065 -0.3338
   30MOL   C197 9535   6.399   5.523   3.563 -0.4507 -0.0962  0.3329
   30MOL   C198 9536   6.286   5.557   3.463  0.2256 -0.4012 -0.2786
   30MOL   C199 9537   6.445   5.616   3.646  0.3416  0.3064  0.0125
   30MOL   H200 9538   6.312   5.255   3.500  1.3424 -0.7245 -0.5560
   30MOL   H201 9539   6.521   5.145   3.682 -0.6850 -0.5818  0.1577
   30MOL   H202 9540   6.444   5.067   3.531 -0.7752 -1.4550  0.5432
   30MOL   H203 9541   6.364   5.083   3.684 -0.4679  0.8622 -0.2868
   30MOL   H204 9542   6.525   5.376   3.649 -0.4212 -0.9824  0.1032
   30MOL   H205 9543   6.251   5.660   3.464  0.0144 -0.4799  1.7029
   30MOL   H206 9544   6.200   5.492   3.477 -0.2193 -0.0491 -1.3387
   30MOL   H207 9545   6.316   5.533   3.361  2.7818  0.2813  0.2614
   30MOL   H208 9546   6.531   5.606   3.711  0.1402 -2.1175 -0.0334
   30MOL   H209 9547   6.392   5.709   3.647 -0.8960 -0.3882 -0.2640
   30MOL   C210 9548   6.558   5.370   3.430 -0.3835  0.3311  0.0434
   30MOL   C211 9549   6.489   5.293   3.315  0.2044  0.4194  0.4315
   30MOL   C212 9550   6.704   5.312   3.468  0.3757  0.4285 -0.5035
   30MOL   C213 9551   6.771   5.391   3.581 -0.1546  0.0529 -0.2833
   30MOL   C214 9552   6.847   5.307   3.679 -0.5184 -0.1143 -0.0687
   30MOL   C215 9553   6.771   5.525   3.586 -0.8153  0.5893  0.6875
   30MOL   H216 9554   6.574   5.474   3.400 -2.7921  0.9215  0.7282
   30MOL   H217 9555   6.392   5.339   3.293  0.6440  1.0506 -0.2332
   30MOL   H218 9556   6.487   5.190   3.349  1.0040 -0.0948 -1.0253
   30MOL   H219 9557   6.540   5.291   3.218 -0.3277  1.3621  0.1228
   30MOL   H220 9558   6.674   5.220   3.517 -0.0654  0.5778 -0.4887
   30MOL   H221 9559   6.950   5.330   3.651 -0.3977 -0.6088 -0.0396
   30MOL   H222 9560   6.837   5.198   3.682 -2.1887  0.0777  2.3733
   30MOL   H223 9561   6.826   5.341   3.781  1.6419  2.0753 -0.3172
   30MOL   H224 9562   6.718   5.588   3.516 -1.9281 -1.7142 -0.6256
   30MOL   H225 9563   6.821   5.578   3.666 -0.5975  2.8246 -0.9054
   30MOL   C226 9564   6.807   5.285   3.357 -0.4684 -0.0833  0.1763
   30MOL   C227 9565   6.822   5.406   3.271 -0.2950 -0.0195  0.1595
   30MOL   C228 9566   6.793   5.158   3.268 -0.5943  0.3618  1.0910
   30MOL   C229 9567   6.762   5.028   3.346  0.5631  0.2886 -0.1937
   30MOL   C230 9568   6.874   4.968   3.429  0.3830  0.9796  0.0334
   30MOL   C231 9569   6.644   4.966   3.322  0.2999  0.3627  0.1475
   30MOL   H232 9570   6.905   5.294   3.404  0.0808  0.9812 -1.1531
   30MOL   H233 9571   6.727   5.411   3.219  0.2885  2.2840 -0.7510
   30MOL   H234 9572   6.902   5.395   3.197  1.1193 -0.6158  1.7410
   30MOL   H235 9573   6.854   5.500   3.316  0.0533 -0.3981  0.7027
   30MOL   H236 9574   6.704   5.165   3.205 -0.1039 -0.4566  0.2958
   30MOL   H237 9575   6.820   4.895   3.490  0.0017  2.1356  1.0947
   30MOL   H238 9576   6.914   5.050   3.487 -1.2282  0.4161  2.0085
   30MOL   H239 9577   6.951   4.916   3.372  0.1104 -0.8226  1.2770
   30MOL   H240 9578   6.568   5.007   3.258  2.1827  1.5924 -1.3837
   30MOL   H241 9579   6.616   4.869   3.361  0.8124 -0.5116 -1.6144
   30MOL   C242 9580   6.911   5.137   3.167 -0.1921 -0.3792 -0.1317
   30MOL   C243 9581   7.049   5.158   3.225 -0.3178 -0.0413  0.6576
   30MOL   C244 9582   6.902   5.164   3.013  0.7560  0.1264  0.2628
   30MOL   C245 9583   6.754   5.171   2.961  0.8204  0.1800 -0.5480
   30MOL   C246 9584   6.707   5.308   2.918  0.1475  0.3102 -0.8841
   30MOL   C247 9585   6.670   5.066   2.947 -0.0007 -0.0337 -0.1814
   30MOL   H248 9586   6.910   5.028   3.168  0.8217 -0.3857  1.2325
   30MOL   H249 9587   7.064   5.097   3.314  0.3665 -1.7447 -0.6040
   30MOL   H250 9588   7.063   5.266   3.235  2.4057 -0.0541 -2.0693
   30MOL   H251 9589   7.132   5.142   3.156 -0.1392  1.5388  0.4805
   30MOL   H252 9590   6.936   5.267   3.005  4.2151 -0.9473  0.4071
   30MOL   H253 9591   6.723   5.377   3.001 -0.2558 -0.1342 -0.4414
   30MOL   H254 9592   6.606   5.299   2.879 -0.2604  2.0116 -0.2690
   30MOL   H255 9593   6.774   5.341   2.838 -0.1530  0.2202 -1.1702
   30MOL   H256 9594   6.692   4.965   2.976  0.3782 -0.4658 -1.9341
   30MOL   H257 9595   6.570   5.092   2.915 -0.3692 -0.1327  0.8535
   30MOL   C258 9596   7.002   5.087   2.920  0.5036 -0.5672 -0.0357
   30MOL   C259 9597   6.983   5.148   2.779  0.5301 -0.2480  0.8339
   30MOL   C260 9598   7.003   4.925   2.903  0.1598 -0.0894  0.5345
   30MOL   C261 9599   7.011   4.834   3.024  0.1185 -0.5218  0.2264
   30MOL   C262 9600   7.140   4.811   3.103 -0.1146  0.0098 -0.0081
   30MOL   C263 9601   6.890   4.774   3.067  0.1241 -0.6038 -0.5532
   30MOL   H264 9602   7.101   5.122   2.949  0.8817 -1.9642  0.3832
   30MOL   H265 9603   6.905   5.099   2.720 -1.4261  0.4154  2.7695
   30MOL   H266 9604   7.080   5.139   2.730  0.1038 -0.1701 -0.0403
   30MOL   H267 9605   6.957   5.254   2.782  0.9631 -0.1266  0.4021
   30MOL   H268 9606   6.905   4.904   2.862  0.0190 -0.6870  1.1629
   30MOL   H269 9607   7.218   4.772   3.037 -0.4336  1.3944 -1.2503
   30MOL   H270 9608   7.137   4.726   3.171 -0.4004  0.2467  0.2757
   30MOL   H271 9609   7.182   4.892   3.163 -0.3033 -0.0707  0.2309
   30MOL   H272 9610   6.801   4.773   3.006 -1.6238  0.7727  1.8697
   30MOL   H273 9611   6.894   4.715   3.157 -1.7369  2.3549  1.6043
   30MOL   C274 9612   7.116   4.876   2.805 -0.4228 -0.3431  0.4378
   30MOL   C275 9613   7.248   4.950   2.823  0.2474 -0.2865  0.1220
   30MOL   C276 9614   7.077   4.853   2.657 -0.2537 -0.2710  0.9683
   30MOL   C277 9615   6.931   4.812   2.630 -0.9630 -0.0804 -0.7977
   30MOL   C278 9616   6.882   4.687   2.697 -0.8231  0.3084  0.7082
   30MOL   C279 9617   6.841   4.884   2.552 -0.0172  0.4354 -0.5470
   30MOL   H280 9618   7.143   4.775   2.839  0.0037 -0.3017  0.2217
   30MOL   H281 9619   7.336   4.887   2.811 -1.0227 -1.8325 -1.2764
   30MOL   H282 9620   7.267   4.984   2.925 -0.8241 -0.2583  0.3157
   30MOL   H283 9621   7.267   5.038   2.760  1.5856  0.9379  2.1875
   30MOL   H284 9622   7.068   4.956   2.624 -0.6752 -0.4745  0.4438
   30MOL   H285 9623   6.774   4.674   2.697 -0.7884 -0.0983 -1.0571
   30MOL   H286 9624   6.924   4.691   2.798 -0.0309  0.7779  0.3628
   30MOL   H287 9625   6.930   4.603   2.647 -0.4396  1.1126 -0.2889
   30MOL   H288 9626   6.865   4.977   2.502 -1.5232 -0.0652 -2.2684
   30MOL   H289 9627   6.741   4.853   2.526 -0.1894 -0.9664  1.6509
   30MOL   C290 9628   7.176   4.783   2.554  0.3789  0.1379  0.1900
   30MOL   C291 9629   7.225   4.647   2.608  0.3960 -0.2209  0.0570
   30MOL   C292 9630   7.302   4.860   2.502  0.1744  0.7173 -0.4918
   30MOL   C293 9631   7.269   4.998   2.453 -0.0022  0.0348 -0.3309
   30MOL   C294 9632   7.157   5.003   2.348  0.0185  0.1791  0.2125
   30MOL   C295 9633   7.326   5.107   2.503 -0.1844 -0.3767 -0.1788
   30MOL   H296 9634   7.123   4.772   2.460  1.9335  1.3194 -0.8594
   30MOL   H297 9635   7.273   4.655   2.706 -1.2932 -1.7910  1.0542
   30MOL   H298 9636   7.268   4.583   2.531  0.7615 -1.3443  1.1828
   30MOL   H299 9637   7.139   4.584   2.632  0.2076  0.6784  1.7881
   30MOL   H300 9638   7.358   4.869   2.595 -1.4571 -0.9469  0.6881
   30MOL   H301 9639   7.152   5.101   2.301  0.8451 -0.2702 -0.8331
   30MOL   H302 9640   7.062   4.985   2.398  0.2895  0.0631  0.6947
   30MOL   H303 9641   7.169   4.922   2.276  0.3187  1.4708 -1.2268
   30MOL   H304 9642   7.399   5.117   2.582  0.5839 -1.5524 -0.7207
   30MOL   H305 9643   7.298   5.203   2.462 -0.8674 -0.1461  0.8169
   30MOL   C306 9644   7.403   4.781   2.421 -0.0628 -0.1641 -0.2898
   30MOL   C307 9645   7.541   4.854   2.401  0.2435 -0.1739 -0.0550
   30MOL   C308 9646   7.336   4.728   2.291  1.0433 -1.3790  0.0947
   30MOL   C309 9647   7.415   4.623   2.218  0.5572  1.1102 -0.2877
   30MOL   C310 9648   7.504   4.536   2.302 -0.0139 -0.5655 -0.2582
   30MOL   C311 9649   7.412   4.600   2.084  0.1063  0.0357  0.0110
   30MOL   H312 9650   7.427   4.700   2.490  0.8193  1.1098  0.9396
   30MOL   H313 9651   7.584   4.880   2.497 -1.2877 -0.2231  0.6611
   30MOL   H314 9652   7.522   4.952   2.359  1.9031 -0.1912 -0.8743
   30MOL   H315 9653   7.614   4.794   2.346 -1.9240 -0.1159 -3.1666
   30MOL   H316 9654   7.246   4.669   2.309 -0.7775  1.5453  0.8302
   30MOL   H317 9655   7.579   4.474   2.252  1.1950 -1.1522  2.1940
   30MOL   H318 9656   7.433   4.469   2.350 -1.4571  0.8216 -0.4096
   30MOL   H319 9657   7.567   4.588   2.375  0.6967 -0.4720 -0.9272
   30MOL   H320 9658   7.345   4.661   2.026  1.6999  1.3430 -0.4842
   30MOL   H321 9659   7.472   4.524   2.036  0.4839  0.1136  0.3606
   30MOL   H322 9660   7.320   4.806   2.217  2.8720 -0.8137  0.2809
   31MOL     C1 9661   5.861   3.825   1.642 -0.2132  0.0489 -0.3889
   31MOL     C2 9662   5.996   3.886   1.682 -0.2584 -0.6537 -0.0908
   31MOL     C3 9663   5.812   3.741   1.761  0.1278  0.4126 -0.1397
   31MOL     C4 9664   5.909   3.620   1.800  0.1216 -0.1752  0.1959
   31MOL     C5 9665   5.906   3.557   1.937 -0.7708 -0.6032  0.4911
   31MOL     C6 9666   6.008   3.573   1.719 -0.2933 -0.1770  0.3224
   31MOL     H7 9667   5.795   3.908   1.615  0.6420  0.6100 -0.7809
   31MOL     H8 9668   6.083   3.822   1.695  1.5791  1.3814 -1.9421
   31MOL     H9 9669   5.982   3.954   1.766 -0.1001  0.0624 -0.6372
   31MOL    H10 9670   6.023   3.949   1.598  5.2734  1.1510  2.7796
   31MOL    H11 9671   5.804   3.812   1.843 -1.6713 -0.3736  0.4069
   31MOL    H12 9672   5.806   3.521   1.962 -0.4499 -1.5437  0.4423
   31MOL    H13 9673   5.941   3.627   2.013 -2.1158  1.3664 -0.6665
   31MOL    H14 9674   5.969   3.468   1.939  3.2493  2.1161  1.4724
   31MOL    H15 9675   6.024   3.608   1.619 -0.0516 -0.5767  0.2238
   31MOL    H16 9676   6.070   3.491   1.751 -0.1073  0.6640  2.2392
   31MOL    H17 9677   5.867   3.780   1.543  0.3543 -0.2053 -0.2373
   31MOL    C18 9678   5.673   3.688   1.727  0.3008 -0.7864 -0.7300
   31MOL    C19 9679   5.672   3.583   1.605 -0.3324 -0.6399  0.1069
   31MOL    C20 9680   5.562   3.798   1.698  0.6630  0.0189 -0.3737
   31MOL    C21 9681   5.568   3.919   1.782 -0.7011 -0.1789 -0.1561
   31MOL    C22 9682   5.546   3.905   1.927  0.3235 -0.0890  0.4765
   31MOL    C23 9683   5.581   4.041   1.731 -0.4246 -0.8254 -0.1685
   31MOL    H24 9684   5.656   3.637   1.821  1.7840  0.8809  0.4857
   31MOL    H25 9685   5.746   3.504   1.618 -0.4363 -0.6444  0.6586
   31MOL    H26 9686   5.688   3.639   1.513  2.9863 -2.0244 -0.2456
   31MOL    H27 9687   5.578   3.528   1.602 -0.6903 -0.0055 -0.2785
   31MOL    H28 9688   5.597   3.830   1.600 -1.3097  1.0476 -0.7668
   31MOL    H29 9689   5.498   3.811   1.954 -1.9862  0.9226 -0.0161
   31MOL    H30 9690   5.473   3.977   1.963 -0.7963 -1.1230  0.2957
   31MOL    H31 9691   5.635   3.923   1.988 -0.5728  2.3560  1.1162
   31MOL    H32 9692   5.593   4.053   1.625 -0.6351  0.7004 -0.0326
   31MOL    H33 9693   5.575   4.127   1.797 -3.2862 -0.9133 -0.2738
   31MOL    C34 9694   5.416   3.754   1.685  0.4315 -0.0774 -0.4254
   31MOL    C35 9695   5.380   3.624   1.769 -0.2753 -0.4861 -0.1731
   31MOL    C36 9696   5.361   3.748   1.544  0.2337  0.5797  0.7054
   31MOL    C37 9697   5.397   3.876   1.462 -0.9449 -0.4285  0.8433
   31MOL    C38 9698   5.330   4.012   1.492  0.3906  0.4866 -0.3029
   31MOL    C39 9699   5.489   3.866   1.363 -0.2655 -0.4521  0.2297
   31MOL    H40 9700   5.363   3.831   1.740  1.6929 -0.5597  1.4881
   31MOL    H41 9701   5.432   3.616   1.864 -1.6228 -0.1220  0.6113
   31MOL    H42 9702   5.404   3.530   1.719  2.2027  0.4110 -0.7116
   31MOL    H43 9703   5.274   3.621   1.797 -0.6720  1.0481 -1.4138
   31MOL    H44 9704   5.424   3.667   1.509 -1.4239 -1.2841  1.9191
   31MOL    H45 9705   5.391   4.092   1.450 -0.4242  1.9032  1.1421
   31MOL    H46 9706   5.319   4.043   1.596 -0.9916  1.4218 -0.7131
   31MOL    H47 9707   5.225   4.011   1.464 -0.3490 -1.4349  2.2959
   31MOL    H48 9708   5.541   3.772   1.352 -0.2126 -0.0215 -3.9412
   31MOL    H49 9709   5.510   3.949   1.298 -1.8608  0.5685  0.9702
   31MOL    C50 9710   5.209   3.694   1.511  0.1659 -0.1360  0.1888
   31MOL    C51 9711   5.104   3.765   1.600  0.1105  0.4839 -0.5173
   31MOL    C52 9712   5.189   3.538   1.494  0.4885  0.5699  0.0569
   31MOL    C53 9713   5.293   3.468   1.404  0.8874 -0.1094 -0.2458
   31MOL    C54 9714   5.333   3.328   1.450 -0.4000  0.1770 -0.2162
   31MOL    C55 9715   5.350   3.526   1.298  0.0982 -0.8181 -0.1618
   31MOL    H56 9716   5.172   3.728   1.414  2.0283 -0.3834 -0.6244
   31MOL    H57 9717   5.011   3.785   1.547 -0.7892  0.7406  1.1270
   31MOL    H58 9718   5.127   3.854   1.659 -1.9592  0.2696  0.6452
   31MOL    H59 9719   5.073   3.693   1.676 -1.6296  0.1530 -1.5126
   31MOL    H60 9720   5.220   3.508   1.593 -0.7308  0.2709  0.3628
   31MOL    H61 9721   5.379   3.267   1.372 -1.0924  1.8127 -1.9548
   31MOL    H62 9722   5.239   3.275   1.466 -1.6349  1.4585 -2.8198
   31MOL    H63 9723   5.384   3.338   1.545  1.2492  0.7188 -1.1433
   31MOL    H64 9724   5.333   3.630   1.272  0.1350 -0.9975 -0.9118
   31MOL    H65 9725   5.418   3.465   1.241  3.4623  0.8551  1.8674
   31MOL    C66 9726   5.041   3.492   1.462 -0.2251 -0.3130  0.0975
   31MOL    C67 9727   4.999   3.390   1.565 -0.4870  0.3706 -0.3649
   31MOL    C68 9728   5.006   3.446   1.316  0.8977 -0.0651  0.5936
   31MOL    C69 9729   5.032   3.547   1.209  0.1741 -0.7588  0.5810
   31MOL    C70 9730   4.955   3.672   1.219  0.2416 -0.3573  0.0497
   31MOL    C71 9731   5.113   3.526   1.099  0.1008  0.3527 -0.8455
   31MOL    H72 9732   4.972   3.572   1.486  2.6097  2.5267 -0.8727
   31MOL    H73 9733   4.983   3.439   1.661  0.0573  1.0632 -0.6292
   31MOL    H74 9734   5.061   3.302   1.580  1.3708  1.2765 -2.4625
   31MOL    H75 9735   4.895   3.357   1.555 -0.4462  0.1347 -0.0183
   31MOL    H76 9736   5.072   3.361   1.300 -0.3460 -0.4085 -3.2162
   31MOL    H77 9737   4.968   3.719   1.317  2.1300 -1.0614  0.1595
   31MOL    H78 9738   4.851   3.654   1.192  0.1163 -2.1133  1.6293
   31MOL    H79 9739   4.999   3.747   1.153  2.8461 -1.1765  0.7787
   31MOL    H80 9740   5.163   3.431   1.088  1.0258  0.6131  0.9935
   31MOL    H81 9741   5.118   3.601   1.021 -0.4944 -0.2248 -1.4505
   31MOL    C82 9742   4.862   3.378   1.281 -0.6378 -0.1115  0.1227
   31MOL    C83 9743   4.737   3.467   1.323 -0.4517  0.6778 -0.1968
   31MOL    C84 9744   4.843   3.228   1.315 -0.2902  0.5256  0.3762
   31MOL    C85 9745   4.976   3.146   1.318 -0.4716  0.9121 -0.0360
   31MOL    C86 9746   5.054   3.133   1.189  0.1442 -0.1187  0.1173
   31MOL    C87 9747   5.020   3.091   1.433 -0.0759  0.5796 -1.0450
   31MOL    H88 9748   4.874   3.380   1.173  1.8190  0.6660  0.3838
   31MOL    H89 9749   4.764   3.570   1.349 -0.2446  0.4834  0.3630
   31MOL    H90 9750   4.687   3.425   1.410  2.6543 -0.0382  1.3170
   31MOL    H91 9751   4.659   3.465   1.248 -0.1932 -3.9092 -0.4548
   31MOL    H92 9752   4.792   3.220   1.411  0.0493 -0.1947  0.4994
   31MOL    H93 9753   5.064   3.226   1.134  1.5623  0.1751  0.8345
   31MOL    H94 9754   5.020   3.056   1.119 -0.3556  2.2773 -2.3168
   31MOL    H95 9755   5.158   3.111   1.214  0.7927  0.5881 -1.8645
   31MOL    H96 9756   4.960   3.090   1.523  1.1160  1.5860 -0.2237
   31MOL    H97 9757   5.111   3.035   1.438 -1.0435 -0.9200  0.2560
   31MOL    C98 9758   4.739   3.154   1.225 -0.2057 -0.1137  0.5816
   31MOL    C99 9759   4.603   3.223   1.197 -0.3247  0.3735 -0.4277
   31MOL   C100 9760   4.720   3.003   1.250  0.8188  0.1451  0.3649
   31MOL   C101 9761   4.723   2.918   1.117  0.3444 -0.4633 -0.3466
   31MOL   C102 9762   4.603   2.924   1.026  0.6129  0.0325  0.2676
   31MOL   C103 9763   4.833   2.856   1.075 -0.0759 -0.5201  0.0261
   31MOL   H104 9764   4.789   3.159   1.128  1.9755 -1.8947  1.5681
   31MOL   H105 9765   4.565   3.276   1.284 -1.3487  0.4143 -0.8867
   31MOL   H106 9766   4.523   3.160   1.158  0.3288 -1.0495  0.4542
   31MOL   H107 9767   4.615   3.301   1.121  1.3604 -0.4807 -1.0710
   31MOL   H108 9768   4.810   2.970   1.301  1.2570  2.9315  1.4910
   31MOL   H109 9769   4.608   2.862   0.936 -0.2488  0.1799  0.1044
   31MOL   H110 9770   4.574   3.026   1.000 -1.1342 -0.3531  0.5964
   31MOL   H111 9771   4.517   2.887   1.082  1.1919 -2.7363 -0.5991
   31MOL   H112 9772   4.922   2.857   1.136  0.1643  0.2927 -0.3339
   31MOL   H113 9773   4.842   2.800   0.983 -0.8742 -0.4169 -0.1138
   31MOL   C114 9774   4.599   2.952   1.339 -0.0140  0.2976 -0.4834
   31MOL   C115 9775   4.573   3.037   1.463 -1.0663  0.0196 -0.1515
   31MOL   C116 9776   4.603   2.796   1.373  0.4700 -0.1555  0.4171
   31MOL   C117 9777   4.452   2.761   1.392  0.3681 -0.2657 -0.4457
   31MOL   C118 9778   4.398   2.717   1.261 -0.4533  0.1426 -0.4741
   31MOL   C119 9779   4.377   2.786   1.500 -0.4240  0.4907 -0.9101
   31MOL   H120 9780   4.509   2.973   1.281 -1.0864  0.5104  1.2183
   31MOL   H121 9781   4.651   3.014   1.536 -0.3154 -0.0233 -0.9614
   31MOL   H122 9782   4.486   3.002   1.519 -1.0574  0.7089  0.3031
   31MOL   H123 9783   4.563   3.145   1.452 -0.4141  0.1251  0.2519
   31MOL   H124 9784   4.637   2.736   1.289 -0.1070 -1.8984  1.4047
   31MOL   H125 9785   4.302   2.665   1.272 -1.2270  1.6994  0.2603
   31MOL   H126 9786   4.472   2.662   1.204 -1.4425 -1.3598 -0.3484
   31MOL   H127 9787   4.369   2.803   1.202 -0.3045 -1.3751 -2.8179
   31MOL   H128 9788   4.421   2.818   1.593 -0.7314 -1.7663  0.0235
   31MOL   H129 9789   4.271   2.763   1.503 -0.3241  0.1687  0.5493
   31MOL   C130 9790   4.690   2.741   1.492  0.5384  0.4410  0.1745
   31MOL   C131 9791   4.838   2.790   1.496  0.6997 -0.6174 -0.4566
   31MOL   C132 9792   4.679   2.583   1.511 -0.4225 -0.1919 -0.2619
   31MOL   C133 9793   4.678   2.558   1.667 -0.8887 -0.6093 -0.6382
   31MOL   C134 9794   4.540   2.554   1.735  0.6563 -0.0128  0.0514
   31MOL   C135 9795   4.788   2.536   1.742  0.6419 -0.8154  0.4259
   31MOL   H136 9796   4.648   2.789   1.580 -0.2824 -0.0322  0.0448
   31MOL   H137 9797   4.879   2.779   1.396 -1.4626 -0.0716 -1.4307
   31MOL   H138 9798   4.898   2.738   1.571 -1.5260 -1.1783  0.9950
   31MOL   H139 9799   4.837   2.894   1.526  1.5292 -0.3411 -1.3813
   31MOL   H140 9800   4.581   2.548   1.478 -0.4537 -0.5282  0.1769
   31MOL   H141 9801   4.465   2.532   1.659  0.4351  3.3112 -0.7617
   31MOL   H142 9802   4.510   2.657   1.757  2.6441  0.7768 -0.7822
   31MOL   H143 9803   4.533   2.486   1.820  3.5795  1.0606  1.2010
   31MOL   H144 9804   4.889   2.526   1.707  0.0994  0.9480 -1.7869
   31MOL   H145 9805   4.771   2.540   1.849 -0.9622 -2.0102  0.2450
   31MOL   C146 9806   4.790   2.495   1.431  0.8927  0.8606 -0.7134
   31MOL   C147 9807   4.790   2.518   1.280 -0.0213 -0.5399  0.2566
   31MOL   C148 9808   4.804   2.340   1.470  0.2511  0.0970  0.5742
   31MOL   C149 9809   4.948   2.297   1.487  0.1876  0.3579  0.0675
   31MOL   C150 9810   5.045   2.315   1.371 -0.3450  0.6051 -0.1225
   31MOL   C151 9811   4.997   2.255   1.606 -1.1072 -1.1524 -0.2944
   31MOL   H152 9812   4.886   2.534   1.467  0.6542 -0.0822  0.9748
   31MOL   H153 9813   4.688   2.508   1.243  0.4291 -0.7606 -0.9862
   31MOL   H154 9814   4.857   2.445   1.234  0.0581 -0.6817  0.5971
   31MOL   H155 9815   4.838   2.613   1.256 -1.5321 -0.3599 -2.2491
   31MOL   H156 9816   4.761   2.333   1.569  0.3292 -0.8498  0.5477
   31MOL   H157 9817   4.998   2.282   1.278 -1.5833  0.3031  0.5932
   31MOL   H158 9818   5.142   2.267   1.381 -0.0344  0.6163 -2.6064
   31MOL   H159 9819   5.055   2.420   1.343  1.9079  0.1558 -1.0429
   31MOL   H160 9820   4.943   2.246   1.699  1.4613 -0.5648  1.2976
   31MOL   H161 9821   5.101   2.229   1.616 -0.9497  0.1985  1.9371
   31MOL   C162 9822   4.723   2.235   1.393 -0.0554 -0.1587  0.2034
   31MOL   C163 9823   4.572   2.275   1.362  0.3341  0.5727  0.0084
   31MOL   C164 9824   4.727   2.088   1.451  0.1688 -0.2244 -1.4036
   31MOL   C165 9825   4.755   1.989   1.340  0.2074  0.2092  0.2566
   31MOL   C166 9826   4.644   1.977   1.239 -0.6399 -0.1119 -0.2069
   31MOL   C167 9827   4.867   1.925   1.327  0.0774 -0.6944 -0.1770
   31MOL   H168 9828   4.760   2.228   1.291 -0.5308  1.9128 -0.1348
   31MOL   H169 9829   4.518   2.188   1.326 -1.1535  0.7201  1.8133
   31MOL   H170 9830   4.567   2.337   1.273  1.0734 -0.1935 -0.5686
   31MOL   H171 9831   4.531   2.325   1.450  0.0422  0.2058  0.0803
   31MOL   H172 9832   4.811   2.075   1.519 -0.6680  1.6092  0.0304
   31MOL   H173 9833   4.543   1.966   1.280 -1.0932  0.8444 -1.0353
   31MOL   H174 9834   4.666   1.883   1.188  0.1066 -0.2009  0.2672
   31MOL   H175 9835   4.647   2.053   1.161  0.0795  1.3762  1.2205
   31MOL   H176 9836   4.949   1.940   1.395 -0.0372  1.1961 -0.4064
   31MOL   H177 9837   4.871   1.855   1.245 -1.1389 -0.4208 -0.4832
   31MOL   C178 9838   4.611   2.051   1.554 -0.0324 -0.1780 -0.1495
   31MOL   C179 9839   4.589   2.152   1.674 -0.8825 -0.6725  0.2635
   31MOL   C180 9840   4.609   1.903   1.610  0.4845  0.0824 -0.1941
   31MOL   C181 9841   4.462   1.845   1.621 -0.3664  0.4495  0.4345
   31MOL   C182 9842   4.377   1.902   1.733  0.0428  0.4695  0.1459
   31MOL   C183 9843   4.427   1.756   1.521  0.0708  0.5826 -0.2698
   31MOL   H184 9844   4.519   2.059   1.496  1.8736  0.5905 -3.1573
   31MOL   H185 9845   4.510   2.129   1.745 -0.8240 -1.4544  0.0768
   31MOL   H186 9846   4.594   2.258   1.647  0.2614 -1.1256 -1.3345
   31MOL   H187 9847   4.667   2.141   1.749  2.0053  2.1144 -2.1949
   31MOL   H188 9848   4.660   1.851   1.529  0.1663 -0.4816 -0.0359
   31MOL   H189 9849   4.422   1.904   1.833 -1.2663 -1.2225  0.7755
   31MOL   H190 9850   4.285   1.846   1.740 -0.0860  0.7812  0.9817
   31MOL   H191 9851   4.353   2.006   1.711 -0.5370  0.4971  0.8954
   31MOL   H192 9852   4.501   1.742   1.443  0.1592 -1.7865  0.2262
   31MOL   H193 9853   4.332   1.706   1.516 -0.9531  2.5191 -0.9385
   31MOL   C194 9854   4.687   1.866   1.737 -0.6499 -0.4822  0.5396
   31MOL   C195 9855   4.834   1.919   1.735 -0.4431 -0.0302  0.0196
   31MOL   C196 9856   4.681   1.712   1.777  0.0519  0.7254 -0.1459
   31MOL   C197 9857   4.648   1.705   1.922  0.3830  0.4288 -0.6480
   31MOL   C198 9858   4.754   1.736   2.023  0.7644  0.1730  0.5476
   31MOL   C199 9859   4.533   1.652   1.963  0.1435 -0.0487 -0.0911
   31MOL   H200 9860   4.640   1.923   1.817  1.8142  1.1453  0.8870
   31MOL   H201 9861   4.894   1.866   1.809  0.7983 -0.5950 -1.3589
   31MOL   H202 9862   4.842   2.025   1.754 -0.6017 -0.1026  0.4989
   31MOL   H203 9863   4.888   1.906   1.641  1.9347 -0.1070  1.3648
   31MOL   H204 9864   4.595   1.665   1.730 -0.2761 -0.4721  1.6079
   31MOL   H205 9865   4.772   1.842   2.003 -0.1329  0.4190  1.0388
   31MOL   H206 9866   4.839   1.675   1.991  0.2776 -0.1518 -0.1496
   31MOL   H207 9867   4.722   1.724   2.126 -2.5311  1.6776 -0.2538
   31MOL   H208 9868   4.458   1.607   1.900  0.2004  2.3394 -1.9518
   31MOL   H209 9869   4.508   1.642   2.068 -0.2341 -3.0610 -0.4270
   31MOL   C210 9870   4.805   1.630   1.731  0.2292  0.1513 -0.1026
   31MOL   C211 9871   4.828   1.645   1.579  0.6773  0.2237 -0.1182
   31MOL   C212 9872   4.801   1.482   1.777 -0.6841  0.4153 -0.1355
   31MOL   C213 9873   4.942   1.432   1.825 -0.0405 -0.5307  0.1144
   31MOL   C214 9874   5.053   1.415   1.730 -0.1316 -0.1258 -0.6321
   31MOL   C215 9875   4.973   1.408   1.955  0.5064 -0.1389 -0.1835
   31MOL   H216 9876   4.894   1.661   1.785  0.1914 -2.1222  1.3308
   31MOL   H217 9877   4.874   1.736   1.540  0.2198  0.7353  0.5162
   31MOL   H218 9878   4.732   1.629   1.529  0.0833 -0.4187  1.2130
   31MOL   H219 9879   4.900   1.573   1.542  0.4072 -0.7042  1.1386
   31MOL   H220 9880   4.748   1.478   1.873  1.0749 -0.7333  0.8229
   31MOL   H221 9881   5.058   1.330   1.662  0.0002 -2.0358  1.6796
   31MOL   H222 9882   5.148   1.403   1.782 -1.2128 -1.8159  1.0483
   31MOL   H223 9883   5.065   1.499   1.662 -0.9258 -0.4458 -1.1728
   31MOL   H224 9884   4.891   1.414   2.025  1.3224 -1.1398  0.8767
   31MOL   H225 9885   5.070   1.392   1.999 -0.0442 -0.2423  1.0263
   31MOL   C226 9886   4.732   1.377   1.682  0.0289 -0.3057 -0.0943
   31MOL   C227 9887   4.589   1.408   1.624 -0.1696  0.3109 -0.4736
   31MOL   C228 9888   4.735   1.227   1.734  0.0470  0.5387  0.4349
   31MOL   C229 9889   4.769   1.131   1.625  0.2848 -0.8795  0.4265
   31MOL   C230 9890   4.661   1.097   1.517 -0.2349 -0.5297 -0.2358
   31MOL   C231 9891   4.895   1.080   1.605 -0.9382 -0.1983 -0.0364
   31MOL   H232 9892   4.802   1.379   1.599 -1.8952  0.0257 -1.7279
   31MOL   H233 9893   4.587   1.490   1.551 -2.6067 -0.1998 -1.0373
   31MOL   H234 9894   4.511   1.430   1.697  0.2788  2.2053 -0.5235
   31MOL   H235 9895   4.562   1.317   1.570  0.0071  0.5863 -1.0351
   31MOL   H236 9896   4.822   1.211   1.797 -1.4234 -1.7761  1.9833
   31MOL   H237 9897   4.687   1.004   1.468  1.6574 -0.1608  0.0185
   31MOL   H238 9898   4.655   1.169   1.436  0.8418 -0.7542 -0.5255
   31MOL   H239 9899   4.564   1.101   1.567  0.5114 -0.1801  1.2250
   31MOL   H240 9900   4.970   1.108   1.678  1.0244  0.2349 -2.1516
   31MOL   H241 9901   4.916   1.012   1.523  2.2537  1.0216 -0.3063
   31MOL   C242 9902   4.614   1.184   1.829 -0.9522 -0.1339  0.8479
   31MOL   C243 9903   4.608   1.277   1.948  0.0884  0.2697 -0.4161
   31MOL   C244 9904   4.612   1.024   1.855  0.3393 -0.4383 -0.6428
   31MOL   C245 9905   4.464   0.988   1.887  0.7028  0.0150 -0.1190
   31MOL   C246 9906   4.379   0.941   1.772  0.4708 -0.2015 -0.3150
   31MOL   C247 9907   4.398   1.000   2.005 -0.2682  0.6449  0.8765
   31MOL   H248 9908   4.528   1.206   1.766 -0.0288  1.2920  0.0468
   31MOL   H249 9909   4.573   1.219   2.033 -1.7885  0.4295 -1.0616
   31MOL   H250 9910   4.538   1.358   1.926  1.8529  1.5884 -1.2592
   31MOL   H251 9911   4.704   1.309   1.988 -0.0075 -0.8970  0.7729
   31MOL   H252 9912   4.637   0.980   1.759  3.2562 -1.0149  0.3538
   31MOL   H253 9913   4.406   0.842   1.735  1.6874 -0.8343  2.1936
   31MOL   H254 9914   4.389   1.012   1.690  0.4911  2.1422  1.6683
   31MOL   H255 9915   4.274   0.926   1.797  0.5691 -0.4718 -0.0524
   31MOL   H256 9916   4.454   1.035   2.090  0.3159  1.8224  0.0297
   31MOL   H257 9917   4.291   0.985   2.014  0.2758 -3.7291  0.8928
   31MOL   C258 9918   4.696   0.967   1.975 -0.4223  0.1644 -0.1596
   31MOL   C259 9919   4.840   0.998   1.952 -0.9384  0.0714 -0.0404
   31MOL   C260 9920   4.676   0.807   1.993  0.5195  0.1243 -0.3013
   31MOL   C261 9921   4.667   0.770   2.137 -1.4521  0.0707 -0.5170
   31MOL   C262 9922   4.788   0.787   2.223 -0.6662  0.7388  0.6047
   31MOL   C263 9923   4.557   0.718   2.190 -1.2018 -0.4495 -0.3595
   31MOL   H264 9924   4.665   1.019   2.066 -0.2838  0.5529 -0.3298
   31MOL   H265 9925   4.881   1.083   2.006  0.6411 -0.6910 -0.0224
   31MOL   H266 9926   4.878   0.982   1.851 -1.3896  2.5752 -0.6412
   31MOL   H267 9927   4.886   0.923   2.015 -1.5800  0.1402  0.5124
   31MOL   H268 9928   4.578   0.788   1.950  0.0128  1.1289  0.3774
   31MOL   H269 9929   4.870   0.729   2.181 -0.0007  1.7276  0.5390
   31MOL   H270 9930   4.766   0.754   2.325 -0.8917  0.1229  0.3626
   31MOL   H271 9931   4.821   0.891   2.222  0.5218  0.3796 -2.5555
   31MOL   H272 9932   4.472   0.696   2.127 -0.0325  0.2577 -2.2470
   31MOL   H273 9933   4.551   0.692   2.294  3.8235 -1.3742 -0.1713
   31MOL   C274 9934   4.758   0.704   1.900  0.2730  0.4349  0.1032
   31MOL   C275 9935   4.744   0.745   1.746 -0.1809  1.1409 -0.0563
   31MOL   C276 9936   4.726   0.551   1.935 -0.1684  0.5207  0.5030
   31MOL   C277 9937   4.860   0.477   1.944 -0.3285  0.2861 -0.6899
   31MOL   C278 9938   4.950   0.479   1.822  0.0635 -0.4661  0.5605
   31MOL   C279 9939   4.890   0.405   2.053 -0.2255 -0.1829  0.6900
   31MOL   H280 9940   4.861   0.727   1.929  0.2018 -0.0327  0.7516
   31MOL   H281 9941   4.771   0.677   1.666  0.1861  1.5536 -0.2871
   31MOL   H282 9942   4.794   0.841   1.731 -1.5185  1.4552 -2.8574
   31MOL   H283 9943   4.637   0.764   1.735 -0.3061 -0.1495 -1.1481
   31MOL   H284 9944   4.678   0.554   2.032  1.8840  0.0367  1.5610
   31MOL   H285 9945   5.009   0.570   1.816  0.6136 -0.9564 -2.1694
   31MOL   H286 9946   4.915   0.476   1.719  0.0955 -0.7051  0.5554
   31MOL   H287 9947   5.022   0.397   1.827 -0.5662 -1.1561 -1.2976
   31MOL   H288 9948   4.825   0.401   2.139 -0.1646 -0.6987  0.7159
   31MOL   H289 9949   4.984   0.352   2.060  0.1886  0.0818 -2.2645
   31MOL   C290 9950   4.623   0.473   1.843  0.2612  0.3224  0.7438
   31MOL   C291 9951   4.492   0.546   1.834  0.6427 -0.6669 -0.4407
   31MOL   C292 9952   4.616   0.312   1.854 -0.2989 -1.0386  0.2334
   31MOL   C293 9953   4.655   0.247   1.721 -0.4087 -0.8724  0.6263
   31MOL   C294 9954   4.559   0.265   1.599 -0.2126  0.0349 -0.3740
   31MOL   C295 9955   4.768   0.165   1.710  0.4233  0.1179  0.2728
   31MOL   H296 9956   4.668   0.484   1.745  0.9576  0.7813  1.1068
   31MOL   H297 9957   4.493   0.641   1.782 -1.4962  0.4880  1.4976
   31MOL   H298 9958   4.448   0.561   1.933 -0.0917 -4.6294 -0.0460
   31MOL   H299 9959   4.415   0.489   1.781  1.2452 -0.1223 -1.9270
   31MOL   H300 9960   4.700   0.298   1.923 -0.1027 -0.1412  0.1820
   31MOL   H301 9961   4.578   0.360   1.550 -1.6344 -0.3641 -1.7334
   31MOL   H302 9962   4.458   0.252   1.639  0.2141  1.8892  1.3566
   31MOL   H303 9963   4.572   0.184   1.527 -0.2778  0.9018 -1.3565
   31MOL   H304 9964   4.838   0.169   1.792 -0.6774  0.0262  1.2387
   31MOL   H305 9965   4.797   0.117   1.618  1.6819  0.9754  0.2136
   31MOL   C306 9966   4.499   0.239   1.928 -0.1379 -1.1497 -0.1429
   31MOL   C307 9967   4.484   0.288   2.079 -0.9465 -0.0468  0.8194
   31MOL   C308 9968   4.511   0.085   1.929 -0.1930 -0.0931 -0.3961
   31MOL   C309 9969   4.379   0.016   1.946  1.2496 -0.3799 -0.4805
   31MOL   C310 9970   4.292   7.885   1.825 -0.2116  0.1314  0.7713
   31MOL   C311 9971   4.350   7.849   2.065 -0.5445 -0.0248 -0.3065
   31MOL   H312 9972   4.413   0.267   1.866  1.4006 -0.8652 -2.2143
   31MOL   H313 9973   4.473   0.396   2.090 -1.0359  0.1000 -0.6070
   31MOL   H314 9974   4.575   0.263   2.133 -0.1610  1.5200  0.2705
   31MOL   H315 9975   4.392   0.245   2.118 -2.2597  1.4051 -0.6053
   31MOL   H316 9976   4.567   0.036   1.849 -0.8322 -1.8897  0.2255
   31MOL   H317 9977   4.185   0.008   1.840 -0.0433  1.1007  1.0325
   31MOL   H318 9978   4.303   7.787   1.780 -1.2614 -0.5463  1.9475
   31MOL   H319 9979   4.323   0.066   1.751 -0.9850  2.2603  2.4703
   31MOL   H320 9980   4.419   7.853   2.148  0.6388 -2.8541 -1.0982
   31MOL   H321 9981   4.262   7.787   2.076 -0.8592 -0.5338 -4.6785
   31MOL   H322 9982   4.575   0.061   2.013  0.7768 -0.5212 -1.2433
   32MOL     C1 9983   1.986   1.495   4.973  0.4067  0.3767 -0.5182
   32MOL     C2 9984   2.030   1.363   5.036 -0.1596  0.0791 -0.0002
   32MOL     C3 9985   1.837   1.487   4.931 -0.2301 -0.9476  0.4184
   32MOL     C4 9986   1.802   1.375   4.826  0.3806 -0.3078 -0.7499
   32MOL     C5 9987   1.828   1.394   4.676  1.1028  0.0942  0.0320
   32MOL     C6 9988   1.746   1.262   4.866  0.1469  0.2574 -0.6212
   32MOL     H7 9989   1.994   1.575   5.046 -0.3236  0.0641 -0.0988
   32MOL     H8 9990   2.127   1.369   5.086  0.7337 -0.2795 -1.6677
   32MOL     H9 9991   2.035   1.293   4.953 -0.6528  0.5534 -0.4311
   32MOL    H10 9992   1.956   1.325   5.107 -1.7980  1.6322 -0.8500
   32MOL    H11 9993   1.788   1.443   5.018 -0.6048 -0.9328  0.2182
   32MOL    H12 9994   1.803   1.303   4.622  1.6472 -0.8285  1.3265
   32MOL    H13 9995   1.934   1.412   4.657  1.1726 -0.5355 -0.1793
   32MOL    H14 9996   1.780   1.479   4.627  1.6366  0.6028  0.3939
   32MOL    H15 9997   1.722   1.250   4.970 -0.1858  0.5788 -0.6578
   32MOL    H16 9998   1.725   1.185   4.793 -1.3508  1.0359 -1.0390
   32MOL    H17 9999   2.060   1.518   4.896  0.9886  0.7291  0.1402
   32MOL    C1810000   1.763   1.628   4.913  0.2001  0.3052  0.1254
   32MOL    C1910001   1.852   1.710   4.816 -0.9020 -0.5436 -0.8467
   32MOL    C2010002   1.727   1.698   5.044  0.1897  0.5870 -0.4291
   32MOL    C2110003   1.635   1.615   5.132  0.3642  0.5958 -0.9930
   32MOL    C2210004   1.490   1.589   5.091  0.1750  0.0249 -0.1347
   32MOL    C2310005   1.675   1.554   5.245 -0.0950 -0.5004 -0.6293
   32MOL    H2410006   1.666   1.617   4.864  0.8624 -3.8487 -0.4330
   32MOL    H2510007   1.940   1.731   4.875 -0.6509  0.2201 -1.4812
   32MOL    H2610008   1.808   1.809   4.803 -0.2879 -0.5527 -3.3076
   32MOL    H2710009   1.881   1.671   4.718  0.0071  0.1238 -0.8472
   32MOL    H2810010   1.818   1.700   5.104  1.9985 -0.6842 -3.0387
   32MOL    H2910011   1.448   1.516   5.161 -0.0953  0.2179 -0.0941
   32MOL    H3010012   1.479   1.555   4.988  0.6825 -0.3633 -0.0614
   32MOL    H3110013   1.422   1.673   5.103 -0.7290 -0.5363 -1.2477
   32MOL    H3210014   1.777   1.567   5.278 -0.2231 -3.0043  0.8719
   32MOL    H3310015   1.608   1.496   5.307 -0.3122  0.8335  0.4253
   32MOL    C3410016   1.672   1.842   5.040 -0.4860  0.2899 -0.1519
   32MOL    C3510017   1.570   1.874   4.930 -0.2434  0.2019 -0.2149
   32MOL    C3610018   1.780   1.953   5.043  0.6826  0.0348  0.6441
   32MOL    C3710019   1.884   1.933   5.155  0.3859 -0.6569 -0.7337
   32MOL    C3810020   1.853   1.911   5.303  0.8134  0.0711 -0.3861
   32MOL    C3910021   2.014   1.937   5.118  0.2554  0.1849  0.3984
   32MOL    H4010022   1.627   1.851   5.139 -0.7483 -1.1683 -0.1260
   32MOL    H4110023   1.614   1.890   4.832  1.3358  1.4464  0.6716
   32MOL    H4210024   1.516   1.960   4.969  1.9450  0.4613  2.3777
   32MOL    H4310025   1.501   1.792   4.912  1.0267 -0.9173 -0.0694
   32MOL    H4410026   1.833   1.956   4.949  1.1990  1.2721  0.9680
   32MOL    H4510027   1.859   2.012   5.344  3.1828  0.4288 -1.5298
   32MOL    H4610028   1.930   1.846   5.347 -1.0661 -1.8153  0.1796
   32MOL    H4710029   1.763   1.853   5.322  0.1999  0.7946 -1.0585
   32MOL    H4810030   2.043   1.958   5.016  2.6140  1.5315  1.3029
   32MOL    H4910031   2.098   1.939   5.185  0.5252  2.9011  0.0424
   32MOL    C5010032   1.732   2.098   5.058 -0.3672 -0.3213 -0.6337
   32MOL    C5110033   1.631   2.120   5.176  0.0713 -0.0373  0.1104
   32MOL    C5210034   1.695   2.180   4.926  0.0239  0.5188 -0.1575
   32MOL    C5310035   1.785   2.144   4.808  0.0229 -0.6451  0.5896
   32MOL    C5410036   1.935   2.185   4.808  0.8544 -0.0937  0.3350
   32MOL    C5510037   1.729   2.102   4.693 -0.6037  0.6228 -0.5148
   32MOL    H5610038   1.820   2.153   5.093 -0.6875 -0.1368 -0.0999
   32MOL    H5710039   1.654   2.216   5.222 -1.4527  0.2904  0.2058
   32MOL    H5810040   1.640   2.035   5.244  0.5574 -0.4657 -0.4783
   32MOL    H5910041   1.525   2.116   5.151  0.3501  0.8936 -1.3057
   32MOL    H6010042   1.594   2.150   4.898  0.2449  0.8406 -1.3271
   32MOL    H6110043   1.981   2.163   4.904 -0.0448 -0.6439  0.6441
   32MOL    H6210044   1.937   2.293   4.798  0.5266 -0.0719  0.4888
   32MOL    H6310045   1.987   2.131   4.728 -1.4718 -0.3380 -1.0576
   32MOL    H6410046   1.625   2.073   4.690 -0.2956 -0.4098 -2.0600
   32MOL    H6510047   1.784   2.082   4.602 -0.5493  1.5668 -0.6882
   32MOL    C6610048   1.696   2.337   4.955  0.3418  0.3397 -0.1594
   32MOL    C6710049   1.809   2.400   5.045  0.7929 -0.2875  0.8914
   32MOL    C6810050   1.557   2.394   4.992  0.4625  0.1957  0.4431
   32MOL    C6910051   1.442   2.336   4.894 -0.0250 -0.4647 -0.6158
   32MOL    C7010052   1.445   2.367   4.748  0.2342 -0.5018  0.3553
   32MOL    C7110053   1.352   2.250   4.945  0.3010 -0.2985 -0.3555
   32MOL    H7210054   1.725   2.380   4.859  0.1165  0.0153 -0.3709
   32MOL    H7310055   1.906   2.354   5.026  0.8329  0.6367 -1.2688
   32MOL    H7410056   1.787   2.379   5.150  0.0636 -2.4427  0.3406
   32MOL    H7510057   1.818   2.508   5.035  2.5682 -0.7723 -4.2443
   32MOL    H7610058   1.543   2.351   5.091 -2.2386  2.6988  1.2427
   32MOL    H7710059   1.403   2.465   4.724 -1.5525 -1.0329  1.2253
   32MOL    H7810060   1.387   2.286   4.703  1.2389  0.3154 -2.5283
   32MOL    H7910061   1.546   2.359   4.708  0.8063  0.8381  1.4804
   32MOL    H8010062   1.364   2.235   5.051  0.8586  0.1248 -0.3519
   32MOL    H8110063   1.277   2.202   4.884 -0.5331 -1.3336  1.4600
   32MOL    C8210064   1.532   2.544   5.005  0.1521 -0.4224  0.3841
   32MOL    C8310065   1.588   2.634   4.893 -0.1566 -0.2930 -0.4227
   32MOL    C8410066   1.560   2.611   5.145 -0.3105 -0.4912  0.5601
   32MOL    C8510067   1.504   2.530   5.261 -0.4833 -0.2332  0.3019
   32MOL    C8610068   1.354   2.508   5.273  0.4762  0.5536 -0.0706
   32MOL    C8710069   1.581   2.461   5.348 -0.0668  0.0886  0.7835
   32MOL    H8810070   1.425   2.555   4.987  0.3327 -0.0415 -0.5113
   32MOL    H8910071   1.574   2.584   4.797 -1.6984  1.7783 -1.3098
   32MOL    H9010072   1.697   2.641   4.896 -0.1665 -0.5128  0.7671
   32MOL    H9110073   1.532   2.725   4.874  1.2932  0.8753  0.7973
   32MOL    H9210074   1.667   2.598   5.161  0.0304  0.3150 -1.0005
   32MOL    H9310075   1.296   2.498   5.182  0.7430  0.3971 -0.2245
   32MOL    H9410076   1.306   2.588   5.329 -0.6654  1.1865 -1.9141
   32MOL    H9510077   1.328   2.420   5.331 -0.7727 -0.3342 -1.9296
   32MOL    H9610078   1.689   2.463   5.337 -0.2949 -0.0065 -1.9181
   32MOL    H9710079   1.553   2.401   5.433 -0.0838 -1.3190 -0.1805
   32MOL    C9810080   1.538   2.761   5.167  0.0162 -0.2168 -0.1496
   32MOL    C9910081   1.400   2.801   5.115 -0.1191  0.0162 -0.5285
   32MOL   C10010082   1.641   2.866   5.125 -0.2141  0.2365 -0.3870
   32MOL   C10110083   1.788   2.828   5.144  0.2843  0.2297 -0.1415
   32MOL   C10210084   1.876   2.862   5.026 -0.5258  0.5513  0.3198
   32MOL   C10310085   1.839   2.758   5.253  0.1650 -0.3942  1.2712
   32MOL   H10410086   1.537   2.761   5.276 -2.2309  1.9773 -0.1354
   32MOL   H10510087   1.333   2.715   5.118  0.5651 -0.6248 -3.1664
   32MOL   H10610088   1.412   2.838   5.013  1.5423  1.4093  0.1451
   32MOL   H10710089   1.362   2.887   5.171  3.3867  1.3729 -0.1118
   32MOL   H10810090   1.621   2.868   5.018  1.2039  0.4181 -0.6683
   32MOL   H10910091   1.982   2.866   5.049 -0.9956  0.5522  2.6519
   32MOL   H11010092   1.845   2.960   4.988  2.0556  1.3861  0.2788
   32MOL   H11110093   1.861   2.782   4.954 -0.8923  2.2715 -1.5658
   32MOL   H11210094   1.779   2.730   5.338 -1.4899  0.6468  0.4560
   32MOL   H11310095   1.945   2.735   5.252  0.4576  0.9295  1.6509
   32MOL   C11410096   1.610   3.013   5.170 -0.4509 -0.2610  1.0407
   32MOL   C11510097   1.606   3.099   5.041 -0.1255  0.4138  0.6598
   32MOL   C11610098   1.713   3.078   5.273  0.3203 -0.1202  0.2555
   32MOL   C11710099   1.725   2.998   5.406  0.5074 -0.4995  0.2826
   32MOL   C11810100   1.871   3.001   5.466  0.3109 -0.1208 -0.6078
   32MOL   C11910101   1.615   2.947   5.467 -0.3229 -0.6240 -0.6031
   32MOL   H12010102   1.509   3.018   5.212 -0.5677  1.5074  0.5811
   32MOL   H12110103   1.527   3.169   5.067 -0.2817  0.0384  1.2167
   32MOL   H12210104   1.567   3.044   4.955 -2.9817  1.5409  1.1742
   32MOL   H12310105   1.703   3.141   5.013  2.2132 -3.1144  3.0376
   32MOL   H12410106   1.813   3.071   5.230  0.8428  1.0324  1.2705
   32MOL   H12510107   1.877   3.101   5.509  0.2602 -0.5802  0.4631
   32MOL   H12610108   1.947   3.007   5.388  0.4794 -1.2454 -0.5390
   32MOL   H12710109   1.892   2.924   5.540  0.5387  1.9308  1.5379
   32MOL   H12810110   1.512   2.956   5.435 -0.8164  1.4392  1.3645
   32MOL   H12910111   1.628   2.891   5.558 -2.3214 -1.2080 -0.6476
   32MOL   C13010112   1.693   3.239   5.298  0.3389 -0.2509  0.1485
   32MOL   C13110113   1.551   3.262   5.346 -0.0747 -0.2356  0.5973
   32MOL   C13210114   1.773   3.343   5.200 -0.1890  0.1900 -0.5603
   32MOL   C13310115   1.915   3.289   5.164 -0.2821 -0.0965 -0.4266
   32MOL   C13410116   2.014   3.267   5.280  0.4566 -0.3690  0.1315
   32MOL   C13510117   1.952   3.282   5.037 -0.3897  0.2133 -0.0736
   32MOL   H13610118   1.739   3.259   5.395  0.3073 -1.8886  0.5140
   32MOL   H13710119   1.538   3.356   5.399 -2.3159 -0.2924  0.2089
   32MOL   H13810120   1.516   3.182   5.411  0.0647 -0.6741  0.1372
   32MOL   H13910121   1.486   3.271   5.259 -1.2640  0.8841  1.5889
   32MOL   H14010122   1.715   3.328   5.110 -2.4480 -0.7579  0.9973
   32MOL   H14110123   2.066   3.358   5.308  0.2472  0.0569 -0.8418
   32MOL   H14210124   2.092   3.193   5.263  1.5923  0.3541  2.0806
   32MOL   H14310125   1.955   3.238   5.367  1.5066 -1.5866  0.4562
   32MOL   H14410126   1.888   3.311   4.956  1.8738 -0.2929 -2.1136
   32MOL   H14510127   2.049   3.240   5.014  0.1371  1.6977 -0.5986
   32MOL   C14610128   1.775   3.501   5.247  0.1836  0.1031  0.4702
   32MOL   C14710129   1.801   3.519   5.399 -0.0869 -0.0401  0.0523
   32MOL   C14810130   1.648   3.577   5.200  0.5602  0.2128 -0.2562
   32MOL   C14910131   1.623   3.542   5.048  0.1930  0.1000  0.2065
   32MOL   C15010132   1.721   3.586   4.941 -0.3767 -0.0053 -0.5160
   32MOL   C15110133   1.514   3.469   5.015  0.1755  0.4645 -0.9883
   32MOL   H15210134   1.861   3.549   5.201 -0.4774  2.6276  1.7690
   32MOL   H15310135   1.830   3.622   5.419  1.1091  0.0220 -1.8590
   32MOL   H15410136   1.881   3.449   5.421  0.8763  1.3614  1.1143
   32MOL   H15510137   1.723   3.505   5.474 -0.9358  1.9772 -0.4209
   32MOL   H15610138   1.567   3.526   5.252  2.2100 -3.8163 -1.4416
   32MOL   H15710139   1.753   3.690   4.946  1.0524 -0.4845  0.6208
   32MOL   H15810140   1.675   3.566   4.844 -0.1528 -1.7733 -0.2564
   32MOL   H15910141   1.809   3.525   4.963 -0.2070  0.9748  1.6455
   32MOL   H16010142   1.437   3.444   5.087  1.9636  0.4169  0.9753
   32MOL   H16110143   1.495   3.428   4.917  4.5090  0.9202 -2.0971
   32MOL   C16210144   1.639   3.735   5.221  1.0242  0.2445  0.0139
   32MOL   C16310145   1.775   3.806   5.212 -0.4132 -0.5274 -0.2287
   32MOL   C16410146   1.559   3.782   5.350 -0.1376  0.5018  0.3827
   32MOL   C16510147   1.432   3.692   5.367  0.3226  0.7163  0.4988
   32MOL   C16610148   1.301   3.710   5.282  0.1946  0.0960  0.5726
   32MOL   C16710149   1.426   3.602   5.469  0.1187 -0.0781  0.4648
   32MOL   H16810150   1.578   3.774   5.139 -0.6064  0.1867  1.1759
   32MOL   H16910151   1.765   3.911   5.236  0.1056 -0.9544  1.9153
   32MOL   H17010152   1.821   3.803   5.113 -0.5759 -0.7018 -0.2976
   32MOL   H17110153   1.855   3.753   5.264  0.3099 -0.8340 -1.6174
   32MOL   H17210154   1.639   3.757   5.419 -2.0943 -1.9680  1.8338
   32MOL   H17310155   1.233   3.626   5.296 -0.7560  0.9448  1.1513
   32MOL   H17410156   1.317   3.724   5.175  1.0618  2.5937  1.0017
   32MOL   H17510157   1.239   3.785   5.332 -3.1036 -1.0622 -1.6504
   32MOL   H17610158   1.512   3.582   5.531  0.7488 -1.8513 -0.9134
   32MOL   H17710159   1.336   3.548   5.497  0.9010 -1.4405  0.3764
   32MOL   C17810160   1.515   3.929   5.372 -0.8321  0.6248  0.1657
   32MOL   C17910161   1.481   4.005   5.240  0.6710 -0.1891 -0.3897
   32MOL   C18010162   1.602   4.024   5.460  1.0115 -0.1207 -0.1998
   32MOL   C18110163   1.706   3.958   5.549  0.6900  0.1102  0.4611
   32MOL   C18210164   1.854   3.973   5.518  0.1454  0.2663 -0.1501
   32MOL   C18310165   1.672   3.895   5.664  0.2509 -0.0421 -0.1175
   32MOL   H18410166   1.420   3.927   5.426 -0.8462  3.3109  0.3384
   32MOL   H18510167   1.462   4.112   5.245 -1.3143 -0.6349  3.8441
   32MOL   H18610168   1.393   3.953   5.201 -0.5345  1.5410 -0.0488
   32MOL   H18710169   1.559   3.994   5.165  1.4910 -0.9194  0.5553
   32MOL   H18810170   1.651   4.086   5.385  1.2752 -0.2961 -0.1753
   32MOL   H18910171   1.882   4.078   5.521 -2.0537  0.8822 -0.6391
   32MOL   H19010172   1.874   3.937   5.417  2.1567 -1.7425  0.9050
   32MOL   H19110173   1.910   3.915   5.592 -1.0629 -1.8750 -0.8480
   32MOL   H19210174   1.570   3.902   5.699  0.2062 -0.9804 -0.0641
   32MOL   H19310175   1.748   3.852   5.727  0.7524  0.2718 -0.5037
   32MOL   C19410176   1.526   4.130   5.549 -0.4105 -0.4648 -0.6988
   32MOL   C19510177   1.388   4.180   5.504 -0.3828 -0.0067 -0.5619
   32MOL   C19610178   1.615   4.246   5.614  1.1010  0.1141  0.1548
   32MOL   C19710179   1.587   4.256   5.769 -0.3072  0.1690  0.2979
   32MOL   C19810180   1.688   4.207   5.867 -0.2664  0.4170 -0.6895
   32MOL   C19910181   1.490   4.336   5.816  0.1179  0.3522  0.0705
   32MOL   H20010182   1.497   4.075   5.639 -1.4772 -3.1178 -2.6041
   32MOL   H20110183   1.344   4.240   5.583  1.4033  0.1540  0.3337
   32MOL   H20210184   1.321   4.103   5.466  0.4982 -0.8674 -0.4112
   32MOL   H20310185   1.399   4.258   5.428 -1.2229  2.3221  1.6557
   32MOL   H20410186   1.715   4.206   5.599  1.2170  0.5135 -0.1384
   32MOL   H20510187   1.725   4.116   5.819 -0.4195  0.4806 -0.9297
   32MOL   H20610188   1.646   4.172   5.961 -2.0419 -0.6757 -1.8440
   32MOL   H20710189   1.768   4.279   5.883  0.2690 -0.3773  0.2620
   32MOL   H20810190   1.414   4.388   5.760 -0.8624  0.1341  1.1676
   32MOL   H20910191   1.481   4.348   5.924 -0.5423 -0.5271  0.1147
   32MOL   C21010192   1.613   4.384   5.540 -0.3005 -0.1708 -0.2661
   32MOL   C21110193   1.657   4.379   5.390 -0.3717 -0.0964 -0.3601
   32MOL   C21210194   1.670   4.518   5.612 -0.1755  0.4471 -0.1720
   32MOL   C21310195   1.582   4.638   5.581 -0.2693  1.0591 -0.2166
   32MOL   C21410196   1.480   4.679   5.685  0.1235  0.1823  0.0935
   32MOL   C21510197   1.595   4.704   5.460  0.0129 -0.0489  0.0483
   32MOL   H21610198   1.507   4.407   5.536 -0.0328  1.3848  1.0652
   32MOL   H21710199   1.765   4.368   5.378 -0.0011  2.4570  0.3545
   32MOL   H21810200   1.633   4.469   5.332  1.4283  0.0060 -0.9685
   32MOL   H21910201   1.624   4.294   5.330  0.8295  1.0805 -2.7611
   32MOL   H22010202   1.649   4.509   5.719  0.8094 -2.3283 -0.1863
   32MOL   H22110203   1.445   4.779   5.658  1.2598  0.4863 -0.3066
   32MOL   H22210204   1.505   4.681   5.791 -1.7544  0.2151  0.5553
   32MOL   H22310205   1.400   4.606   5.676  1.1394 -0.9852  0.3037
   32MOL   H22410206   1.665   4.662   5.389  1.3359 -0.6554  1.6720
   32MOL   H22510207   1.533   4.784   5.423  1.0989  0.7967  0.0270
   32MOL   C22610208   1.830   4.544   5.599  0.0957 -0.9168  0.0968
   32MOL   C22710209   1.915   4.426   5.632  0.2728 -0.2218  0.0367
   32MOL   C22810210   1.881   4.685   5.662 -0.0716 -0.2416 -0.1996
   32MOL   C22910211   1.954   4.770   5.556 -0.3763  0.3140  0.8703
   32MOL   C23010212   2.093   4.723   5.516 -0.9669 -0.0759 -0.5421
   32MOL   C23110213   1.896   4.869   5.488 -0.1821 -0.8823 -0.6309
   32MOL   H23210214   1.837   4.559   5.491 -1.7669 -0.9288 -0.0311
   32MOL   H23310215   1.919   4.410   5.740  2.7369  2.0586  0.3355
   32MOL   H23410216   2.017   4.435   5.595  0.1212 -1.7187 -0.7675
   32MOL   H23510217   1.876   4.337   5.583 -0.1134  0.5954 -1.1613
   32MOL   H23610218   1.792   4.746   5.679 -0.0754  0.5954 -3.0263
   32MOL   H23710219   2.155   4.778   5.446 -1.1265 -1.0773 -1.4817
   32MOL   H23810220   2.088   4.621   5.478 -0.2011 -0.4306  0.2938
   32MOL   H23910221   2.145   4.724   5.612  0.6533  0.3854 -1.4195
   32MOL   H24010222   1.799   4.910   5.510  0.5469  0.0317  0.9407
   32MOL   H24110223   1.954   4.920   5.412  2.2620 -3.3003 -0.4991
   32MOL   C24210224   1.945   4.684   5.810 -0.2179 -0.0500 -0.1505
   32MOL   C24310225   1.845   4.627   5.913 -0.7103 -0.7927 -0.1760
   32MOL   C24410226   2.027   4.810   5.863  0.3313  0.0238  1.2314
   32MOL   C24510227   2.158   4.756   5.942  0.1269  0.5104  0.6582
   32MOL   C24610228   2.276   4.689   5.860  0.1890 -0.4954  0.0631
   32MOL   C24710229   2.158   4.754   6.074  0.7095  0.2710 -0.5900
   32MOL   H24810230   2.025   4.614   5.789  0.8140  0.9834  0.2704
   32MOL   H24910231   1.825   4.521   5.897  2.1475 -1.1466 -1.8106
   32MOL   H25010232   1.750   4.680   5.920 -1.6848 -2.5456  0.1078
   32MOL   H25110233   1.879   4.628   6.017 -0.0426 -0.7309 -0.3922
   32MOL   H25210234   2.066   4.867   5.779 -1.9715  0.0200  0.1234
   32MOL   H25310235   2.322   4.759   5.790  0.0994 -0.7457 -0.2507
   32MOL   H25410236   2.235   4.604   5.804 -1.6209  0.9112 -0.8132
   32MOL   H25510237   2.351   4.642   5.923 -0.1199  0.4062  1.1124
   32MOL   H25610238   2.076   4.789   6.136 -0.6503 -2.9914 -0.4681
   32MOL   H25710239   2.242   4.716   6.130  0.2171 -0.2971 -0.2190
   32MOL   C25810240   1.957   4.924   5.937  0.4385  0.3053  0.5855
   32MOL   C25910241   1.821   4.958   5.857 -0.6701  0.5407 -0.3156
   32MOL   C26010242   2.050   5.043   5.964 -0.2205 -0.3940 -0.2752
   32MOL   C26110243   2.034   5.082   6.111  0.4441 -0.6401  0.4825
   32MOL   C26210244   1.899   5.104   6.168  0.1638 -0.4817  0.1382
   32MOL   C26310245   2.139   5.083   6.197  0.1183  0.3535 -0.1558
   32MOL   H26410246   1.935   4.876   6.032  0.6927 -0.3993  0.2880
   32MOL   H26510247   1.777   5.056   5.875 -0.6161  1.0881 -3.0516
   32MOL   H26610248   1.733   4.898   5.879 -0.2119  0.9953  3.0989
   32MOL   H26710249   1.828   4.953   5.749 -0.4939  0.4706 -0.3013
   32MOL   H26810250   2.152   5.006   5.953  0.1350  0.8206 -1.1712
   32MOL   H26910251   1.902   5.153   6.266  0.6662 -2.6357  1.2163
   32MOL   H27010252   1.847   5.010   6.185 -0.5409 -0.1766 -0.3086
   32MOL   H27110253   1.831   5.159   6.104 -1.0277 -0.9269  1.0167
   32MOL   H27210254   2.240   5.060   6.167  0.1889 -0.0620  0.3896
   32MOL   H27310255   2.123   5.101   6.302 -1.0072  0.1749 -0.2934
   32MOL   C27410256   2.051   5.174   5.873 -0.7646  0.5731 -0.6098
   32MOL   C27510257   2.067   5.146   5.724 -0.5283 -0.4993  0.3455
   32MOL   C27610258   2.146   5.285   5.920 -0.4688 -0.1507  0.5728
   32MOL   C27710259   2.077   5.421   5.907 -0.3430 -0.2991  0.6279
   32MOL   C27810260   1.980   5.462   6.019 -0.4777 -0.4142 -0.2262
   32MOL   C27910261   2.079   5.495   5.797 -0.0699 -0.8859  0.1767
   32MOL   H28010262   1.951   5.215   5.892 -0.7685 -0.0051  0.6624
   32MOL   H28110263   2.076   5.232   5.658 -0.3491 -0.6456  0.1763
   32MOL   H28210264   1.997   5.075   5.681  0.1139 -0.9197 -0.0183
   32MOL   H28310265   2.154   5.080   5.716  0.4345  0.7102  0.6459
   32MOL   H28410266   2.166   5.281   6.027  2.0906 -0.9388  0.1182
   32MOL   H28510267   2.037   5.458   6.112 -0.3864  1.2105 -0.2085
   32MOL   H28610268   1.894   5.395   6.024  0.5755 -2.1043 -3.4926
   32MOL   H28710269   1.939   5.562   6.005 -1.6783 -0.8807 -0.1262
   32MOL   H28810270   2.132   5.474   5.705  1.4650  0.8496  0.6278
   32MOL   H28910271   2.028   5.590   5.793 -0.9430 -1.2406  2.2632
   32MOL   C29010272   2.296   5.280   5.862 -0.0582  0.0493  0.2319
   32MOL   C29110273   2.373   5.150   5.886 -0.0926  0.1031  0.6557
   32MOL   C29210274   2.393   5.401   5.897 -0.0887  0.3877 -0.3451
   32MOL   C29310275   2.484   5.436   5.781  0.6245 -0.0043 -0.3080
   32MOL   C29410276   2.429   5.529   5.675  0.1082 -0.2400  0.1546
   32MOL   C29510277   2.612   5.402   5.776  0.6130 -0.2852 -0.0208
   32MOL   H29610278   2.280   5.278   5.754 -0.1035 -0.5368  0.2476
   32MOL   H29710279   2.391   5.131   5.992  0.4497 -1.6694  0.2596
   32MOL   H29810280   2.472   5.154   5.839 -1.7087  2.2756 -2.6833
   32MOL   H29910281   2.335   5.052   5.857 -0.2932  0.0681  1.0297
   32MOL   H30010282   2.337   5.493   5.909  2.5206  1.9800  0.0137
   32MOL   H30110283   2.373   5.482   5.594  0.0023 -0.6947  0.4848
   32MOL   H30210284   2.509   5.581   5.624  0.5283  0.5423  1.5781
   32MOL   H30310285   2.371   5.613   5.713 -2.7880 -1.8195 -0.6040
   32MOL   H30410286   2.666   5.335   5.843  1.6611 -0.3647 -0.9307
   32MOL   H30510287   2.678   5.437   5.698  1.6892 -1.3978  0.3686
   32MOL   C30610288   2.470   5.391   6.037  0.5283 -0.6770  0.4304
   32MOL   C30710289   2.378   5.368   6.155  0.3429 -0.5358  0.6492
   32MOL   C30810290   2.547   5.520   6.068 -0.2373 -0.1257 -0.3957
   32MOL   C30910291   2.669   5.497   6.157  0.1876  0.7873 -0.8070
   32MOL   C31010292   2.795   5.443   6.094 -0.2210 -0.4572  0.6664
   32MOL   C31110293   2.674   5.525   6.288  0.6750  0.3296  0.2741
   32MOL   H31210294   2.541   5.309   6.026 -0.8062 -1.8904  0.6248
   32MOL   H31310295   2.342   5.266   6.171  0.4995 -0.8227 -0.7297
   32MOL   H31410296   2.296   5.438   6.139  0.0162 -0.8900  0.7751
   32MOL   H31510297   2.424   5.383   6.252  0.8082 -1.6648  0.6146
   32MOL   H31610298   2.575   5.566   5.973  1.4944  0.0686  0.1930
   32MOL   H31710299   2.878   5.421   6.160  3.5068 -0.3288 -3.7538
   32MOL   H31810300   2.839   5.512   6.023  1.0086 -0.5450  1.3407
   32MOL   H31910301   2.766   5.347   6.050  2.6163 -1.6118  1.1864
   32MOL   H32010302   2.586   5.556   6.343  0.4257 -0.5377  0.3841
   32MOL   H32110303   2.764   5.513   6.347  0.2460 -1.5113  0.6169
   32MOL   H32210304   2.482   5.590   6.120  1.2500  0.0032  1.3465
   33MOL     C110305   0.671   1.314   0.704  0.6814 -0.2273  0.0337
   33MOL     C210306   0.797   1.392   0.747  0.3643 -0.5390 -0.3751
   33MOL     C310307   0.683   1.162   0.691  1.1059  0.6494  0.6025
   33MOL     C410308   0.795   1.121   0.601 -0.8410 -0.8009  0.1697
   33MOL     C510309   0.825   1.204   0.470  0.0585 -0.7453  0.6347
   33MOL     C610310   0.888   1.035   0.643 -0.2416  0.2794  0.0357
   33MOL     H710311   0.600   1.348   0.779  1.6867  1.6666  0.1657
   33MOL     H810312   0.770   1.496   0.767 -1.0714 -1.0730  0.5504
   33MOL     H910313   0.875   1.393   0.671  0.1748 -0.0600 -0.5597
   33MOL    H1010314   0.841   1.344   0.835  2.1774 -0.2795 -1.1247
   33MOL    H1110315   0.714   1.133   0.792  0.2539 -0.2365  0.6206
   33MOL    H1210316   0.927   1.195   0.431 -0.1994  2.8620 -1.0477
   33MOL    H1310317   0.804   1.310   0.473  0.9170 -0.6052  2.8110
   33MOL    H1410318   0.775   1.162   0.383 -1.4213  1.7763  0.2397
   33MOL    H1510319   0.885   0.981   0.737 -2.3562 -2.0866 -1.3343
   33MOL    H1610320   0.970   1.014   0.575  0.3678 -0.5635  1.0161
   33MOL    H1710321   0.637   1.357   0.610  0.5316 -1.0004 -0.2663
   33MOL    C1810322   0.549   1.080   0.660 -0.3764 -0.7689  0.4568
   33MOL    C1910323   0.423   1.154   0.725  0.3147  0.1436  0.1836
   33MOL    C2010324   0.543   0.924   0.688 -0.0135 -0.2316 -0.6656
   33MOL    C2110325   0.482   0.859   0.567  0.4520 -0.1918  0.1112
   33MOL    C2210326   0.581   0.802   0.465  0.0827  0.5137 -0.2319
   33MOL    C2310327   0.346   0.848   0.552 -0.1619  0.5997 -0.2365
   33MOL    H2410328   0.536   1.087   0.552  1.7127  1.3493  0.3031
   33MOL    H2510329   0.415   1.262   0.714  0.4208  0.0151 -1.1815
   33MOL    H2610330   0.401   1.135   0.831  0.4812  2.4570  0.6653
   33MOL    H2710331   0.333   1.128   0.670  0.6315 -1.0442  0.2042
   33MOL    H2810332   0.647   0.892   0.691 -0.3123 -1.1592  0.2820
   33MOL    H2910333   0.653   0.733   0.510 -2.1849 -2.1775 -0.5341
   33MOL    H3010334   0.637   0.889   0.434  0.0663  0.6876  0.2299
   33MOL    H3110335   0.527   0.745   0.388 -0.8112 -1.0043  1.4752
   33MOL    H3210336   0.268   0.874   0.621 -1.2883  0.2530 -1.3464
   33MOL    H3310337   0.301   0.800   0.466 -0.0874  2.6574 -1.4605
   33MOL    C3410338   0.489   0.868   0.830  0.0502  0.4434  0.3054
   33MOL    C3510339   0.551   0.932   0.954  0.4118  0.3675  0.2610
   33MOL    C3610340   0.506   0.705   0.834  0.2146 -0.3311 -0.2690
   33MOL    C3710341   0.373   0.630   0.851  0.1547 -0.5394 -0.0624
   33MOL    C3810342   0.351   0.515   0.748  0.2752  0.3650  0.5555
   33MOL    C3910343   0.274   0.650   0.940 -0.7296 -0.2105  0.3592
   33MOL    H4010344   0.383   0.891   0.826 -0.4741 -1.7064  0.7752
   33MOL    H4110345   0.496   0.903   1.043 -0.9488 -1.5045 -1.1423
   33MOL    H4210346   0.545   1.041   0.959 -0.2978  0.4006 -1.1299
   33MOL    H4310347   0.657   0.910   0.966  0.1391 -0.6596  0.8949
   33MOL    H4410348   0.531   0.677   0.732  3.9174  0.7383  0.2818
   33MOL    H4510349   0.337   0.555   0.648  2.3908  0.7531  0.3874
   33MOL    H4610350   0.268   0.454   0.783  0.3487 -0.7110 -1.0864
   33MOL    H4710351   0.439   0.451   0.746  1.2540  1.7081 -0.6273
   33MOL    H4810352   0.286   0.732   1.008  2.2012 -0.8374  0.6437
   33MOL    H4910353   0.184   0.590   0.942 -0.8334 -0.0838 -0.3351
   33MOL    C5010354   0.615   0.638   0.919 -0.3730 -0.2326  0.0887
   33MOL    C5110355   0.587   0.648   1.075 -0.3065  0.6514 -0.2413
   33MOL    C5210356   0.767   0.658   0.863 -0.6858 -0.3079 -0.6056
   33MOL    C5310357   0.797   0.616   0.719  0.0292 -0.1647 -0.7452
   33MOL    C5410358   0.884   0.713   0.640 -0.8038  1.0795 -0.4619
   33MOL    C5510359   0.749   0.498   0.660 -0.4504 -0.7131 -0.2926
   33MOL    H5610360   0.607   0.535   0.886 -0.8588  0.2556 -1.3609
   33MOL    H5710361   0.638   0.738   1.108  1.1576 -0.6294  1.0778
   33MOL    H5810362   0.622   0.557   1.125  0.4503  1.0107 -0.1086
   33MOL    H5910363   0.480   0.662   1.085 -0.5015 -0.5076 -0.6588
   33MOL    H6010364   0.768   0.767   0.863  0.3422 -0.3086  0.0862
   33MOL    H6110365   0.843   0.807   0.604 -0.6782  1.9966  1.6783
   33MOL    H6210366   0.909   0.657   0.550  1.1061  1.0507  0.0780
   33MOL    H6310367   0.976   0.733   0.694  0.1172  0.5915 -1.8394
   33MOL    H6410368   0.687   0.430   0.716 -0.6948  0.4558  0.8902
   33MOL    H6510369   0.789   0.476   0.562  0.7678  1.5110 -0.3311
   33MOL    C6610370   0.881   0.599   0.960 -0.0380 -0.5136 -0.1827
   33MOL    C6710371   0.862   0.444   0.970 -0.6851  0.1388 -0.8768
   33MOL    C6810372   0.910   0.678   1.097  0.0410  0.6928 -0.0913
   33MOL    C6910373   0.873   0.829   1.110  0.3947 -0.6756 -0.3657
   33MOL    C7010374   0.926   0.935   1.005  0.6705 -0.1753 -0.7122
   33MOL    C7110375   0.808   0.878   1.217 -0.1258  0.1416  0.3529
   33MOL    H7210376   0.970   0.617   0.900  0.2155 -3.5651 -0.8025
   33MOL    H7310377   0.877   0.393   0.874  1.4191 -0.8108 -0.0718
   33MOL    H7410378   0.762   0.412   0.999  0.4419 -0.8621  2.1232
   33MOL    H7510379   0.935   0.413   1.045 -1.4937 -0.8009 -0.4727
   33MOL    H7610380   0.835   0.630   1.159 -0.2841  1.0895 -0.1774
   33MOL    H7710381   0.944   0.881   0.912 -2.9377 -2.7786 -0.0028
   33MOL    H7810382   1.008   0.998   1.040 -0.0601  0.6421 -0.4356
   33MOL    H7910383   0.852   1.014   0.988 -0.4157 -0.7694  1.1245
   33MOL    H8010384   0.765   0.816   1.295 -0.6418  0.0346 -0.0095
   33MOL    H8110385   0.793   0.984   1.233  1.0283  0.0972  1.8927
   33MOL    C8210386   1.041   0.644   1.176 -0.3598  0.1763 -0.2695
   33MOL    C8310387   1.006   0.664   1.324 -0.4959 -0.6983 -0.0987
   33MOL    C8410388   1.169   0.716   1.131  0.3739 -0.2142  0.3437
   33MOL    C8510389   1.205   0.696   0.980 -0.2157 -0.6255 -0.2319
   33MOL    C8610390   1.243   0.558   0.931 -0.1503 -0.3408  0.1810
   33MOL    C8710391   1.215   0.800   0.898 -0.4957 -0.0515 -0.3608
   33MOL    H8810392   1.073   0.540   1.164  0.5275  0.4279 -0.1214
   33MOL    H8910393   0.928   0.605   1.371 -1.2662  2.1664  2.3510
   33MOL    H9010394   0.988   0.768   1.351  1.0376 -0.6805  0.9268
   33MOL    H9110395   1.092   0.637   1.386 -0.6430 -2.4589 -0.6369
   33MOL    H9210396   1.141   0.821   1.138 -3.9524 -1.2937  0.1621
   33MOL    H9310397   1.171   0.480   0.957 -1.0154  0.2502 -0.4064
   33MOL    H9410398   1.341   0.537   0.974 -0.4952  2.7521  2.5993
   33MOL    H9510399   1.257   0.555   0.823  1.0234 -1.2480  0.3490
   33MOL    H9610400   1.209   0.900   0.940  1.1847 -0.2316  0.3622
   33MOL    H9710401   1.247   0.783   0.797  2.5228 -2.3639  0.8922
   33MOL    C9810402   1.308   0.705   1.205 -0.0151  0.6276  0.7033
   33MOL    C9910403   1.340   0.561   1.253 -0.2162 -0.3354  0.0461
   33MOL   C10010404   1.346   0.818   1.305 -0.1182  0.3335 -0.1731
   33MOL   C10110405   1.312   0.960   1.247 -0.4668  0.4221 -0.3260
   33MOL   C10210406   1.401   1.017   1.140 -0.5710  0.0490  0.1167
   33MOL   C10310407   1.214   1.035   1.295 -0.5787  0.3561  0.4446
   33MOL   H10410408   1.386   0.719   1.130 -1.8376  0.4839 -1.2788
   33MOL   H10510409   1.296   0.537   1.350 -0.4196  1.3293  0.3707
   33MOL   H10610410   1.445   0.533   1.262  0.1593  0.3613 -1.9250
   33MOL   H10710411   1.295   0.490   1.184 -0.7624  0.5270 -0.5000
   33MOL   H10810412   1.279   0.799   1.388 -2.0481  0.4251 -1.6679
   33MOL   H10910413   1.367   1.114   1.104  1.5102  1.1887  1.0994
   33MOL   H11010414   1.405   0.944   1.060  1.3335  1.5143 -1.1646
   33MOL   H11110415   1.504   1.041   1.170 -0.3583  1.3091 -1.5563
   33MOL   H11210416   1.151   1.009   1.379 -1.0003 -1.6295 -0.4731
   33MOL   H11310417   1.204   1.134   1.253 -0.3391 -1.1168 -3.3265
   33MOL   C11410418   1.496   0.816   1.360  0.4564 -0.2075  0.6704
   33MOL   C11510419   1.598   0.806   1.248 -0.2744  0.3908  0.1199
   33MOL   C11610420   1.518   0.722   1.484 -0.0762 -0.3932  0.5208
   33MOL   C11710421   1.416   0.746   1.596 -0.2401 -0.3262  0.1837
   33MOL   C11810422   1.369   0.621   1.670 -0.5868 -0.4020 -0.2912
   33MOL   C11910423   1.370   0.870   1.625 -0.1456 -0.0665 -0.8058
   33MOL   H12010424   1.515   0.911   1.411  2.6991 -0.3722  0.1997
   33MOL   H12110425   1.587   0.848   1.148  1.9006  2.0260  0.5511
   33MOL   H12210426   1.602   0.699   1.225  1.9253  1.1127 -3.0715
   33MOL   H12310427   1.691   0.845   1.288 -0.3673  1.1650 -0.4192
   33MOL   H12410428   1.491   0.621   1.451 -1.4947 -0.4217  1.7061
   33MOL   H12510429   1.367   0.536   1.602  0.5628  1.2364 -2.4052
   33MOL   H12610430   1.271   0.637   1.716  0.9344  3.2531  1.9152
   33MOL   H12710431   1.432   0.605   1.758 -1.9302 -0.7495  0.6395
   33MOL   H12810432   1.404   0.959   1.574  1.3151 -1.2084 -1.8608
   33MOL   H12910433   1.291   0.876   1.699 -0.3773 -0.4948 -1.0151
   33MOL   C13010434   1.663   0.718   1.555 -0.1142  0.3081 -0.1057
   33MOL   C13110435   1.713   0.865   1.584  0.3231 -0.2879  0.5137
   33MOL   C13210436   1.770   0.623   1.485  0.1867 -0.1115 -0.5745
   33MOL   C13310437   1.741   0.480   1.448  0.4264  0.5723 -0.0410
   33MOL   C13410438   1.809   0.428   1.326 -0.5702 -0.4480 -0.0096
   33MOL   C13510439   1.674   0.403   1.534 -0.7600 -0.4165 -0.2296
   33MOL   H13610440   1.643   0.659   1.645  0.7468 -0.6852 -0.5598
   33MOL   H13710441   1.629   0.934   1.593  0.3530 -0.0813 -0.7849
   33MOL   H13810442   1.771   0.891   1.496  0.3440 -1.5836  0.1354
   33MOL   H13910443   1.779   0.866   1.671  0.5541 -0.0404  0.3368
   33MOL   H14010444   1.766   0.674   1.388  1.4326 -0.0661 -0.6125
   33MOL   H14110445   1.788   0.493   1.241  0.6382  0.3646  0.3038
   33MOL   H14210446   1.748   0.340   1.306 -0.2192 -0.9036  0.9141
   33MOL   H14310447   1.914   0.400   1.333 -0.0879  1.1701 -0.4853
   33MOL   H14410448   1.628   0.442   1.624 -2.1627  1.0218 -1.5418
   33MOL   H14510449   1.660   0.298   1.514 -0.8657 -0.6989  1.3140
   33MOL   C14610450   1.916   0.640   1.547  0.4815  0.1920 -0.4402
   33MOL   C14710451   2.015   0.662   1.432  0.1603 -0.9460 -1.2259
   33MOL   C14810452   1.962   0.545   1.658 -0.0177 -1.0347 -0.9301
   33MOL   C14910453   1.861   0.513   1.760 -0.5911  0.1261  0.5776
   33MOL   C15010454   1.856   0.364   1.798 -0.8871 -0.1458 -0.2384
   33MOL   C15110455   1.778   0.597   1.823  0.0289  0.1754  0.7515
   33MOL   H15210456   1.931   0.729   1.607  2.4150 -0.9680  0.8534
   33MOL   H15310457   2.022   0.577   1.364  2.2818 -1.1315 -0.8245
   33MOL   H15410458   2.117   0.679   1.467 -0.3588 -2.4535  1.1071
   33MOL   H15510459   1.988   0.744   1.364  0.4163  0.9661  0.9315
   33MOL   H15610460   1.978   0.456   1.597 -1.2205 -1.2605 -0.9189
   33MOL   H15710461   1.952   0.349   1.848 -1.1362  0.5734  0.4708
   33MOL   H15810462   1.854   0.283   1.725  1.9706  0.8663 -1.5030
   33MOL   H15910463   1.781   0.342   1.874 -1.5537 -0.6124 -1.0156
   33MOL   H16010464   1.774   0.705   1.813  0.3414  0.3033  2.0167
   33MOL   H16110465   1.706   0.558   1.893  0.1921  0.0585  0.8528
   33MOL   C16210466   2.101   0.571   1.731  0.9396  0.5733  0.1092
   33MOL   C16310467   2.193   0.445   1.720  0.0325  0.1289 -0.1388
   33MOL   C16410468   2.099   0.642   1.878 -0.0230 -0.3000  0.9205
   33MOL   C16510469   2.041   0.784   1.875  0.5811 -0.0914  0.2713
   33MOL   C16610470   1.952   0.817   1.998 -0.3273  0.0680 -0.7547
   33MOL   C16710471   2.059   0.881   1.782 -0.0202  0.3902 -0.5272
   33MOL   H16810472   2.158   0.641   1.670  0.3253  2.4053  1.6007
   33MOL   H16910473   2.296   0.467   1.746  0.4237  0.8205 -2.1388
   33MOL   H17010474   2.196   0.434   1.611  1.8126 -1.1375  0.0226
   33MOL   H17110475   2.152   0.352   1.759 -0.9270 -0.1179 -1.6684
   33MOL   H17210476   2.028   0.576   1.928  1.6430 -1.5395  1.7148
   33MOL   H17310477   1.891   0.732   2.027  0.2139 -0.3240 -0.7557
   33MOL   H17410478   1.899   0.906   1.965  1.3954  2.3725  2.3652
   33MOL   H17510479   2.025   0.843   2.075 -2.3207  1.1162  0.8270
   33MOL   H17610480   2.122   0.853   1.699  1.6041  1.0705  0.4574
   33MOL   H17710481   2.025   0.983   1.779  0.9817  0.7411 -0.3769
   33MOL   C17810482   2.233   0.647   1.959 -0.2433 -0.4930 -0.3766
   33MOL   C17910483   2.356   0.706   1.876  0.0455 -0.0084 -0.5693
   33MOL   C18010484   2.258   0.519   2.047 -0.2736 -0.1081 -1.0440
   33MOL   C18110485   2.137   0.490   2.134 -0.2731 -0.0763  0.3848
   33MOL   C18210486   2.094   0.344   2.133  0.7367 -0.2660 -0.0096
   33MOL   C18310487   2.075   0.577   2.219 -0.4393  0.3095 -1.0803
   33MOL   H18410488   2.214   0.724   2.033 -1.2377 -0.5887 -0.5279
   33MOL   H18510489   2.434   0.747   1.939  0.2343 -3.0507  1.2825
   33MOL   H18610490   2.332   0.797   1.821  3.9161  1.3056 -0.1891
   33MOL   H18710491   2.399   0.633   1.807  1.5627  1.7296 -1.4894
   33MOL   H18810492   2.267   0.437   1.976  0.3280 -1.0919  0.1488
   33MOL   H18910493   2.105   0.302   2.033 -2.0725 -0.3294 -0.3208
   33MOL   H19010494   1.989   0.320   2.145  0.6552  0.8764  1.7014
   33MOL   H19110495   2.156   0.286   2.202  1.0231 -1.7900 -1.5015
   33MOL   H19210496   2.105   0.679   2.239  0.8474  0.2330 -2.5207
   33MOL   H19310497   2.000   0.536   2.285 -0.9839 -0.1786 -1.9943
   33MOL   C19410498   2.397   0.516   2.130 -0.2045 -0.5164 -0.6218
   33MOL   C19510499   2.417   0.647   2.206  0.4976 -0.6496 -0.3996
   33MOL   C19610500   2.517   0.468   2.053 -0.0068  0.0370  0.3091
   33MOL   C19710501   2.498   0.359   1.950  0.2443  0.1610 -0.1501
   33MOL   C19810502   2.590   0.379   1.829  0.1124 -0.0857  0.2636
   33MOL   C19910503   2.411   0.250   1.961  0.4076  0.8341 -1.0773
   33MOL   H20010504   2.381   0.441   2.206 -3.2185 -0.0361 -0.7025
   33MOL   H20110505   2.455   0.726   2.142  1.8090 -0.9596 -0.0149
   33MOL   H20210506   2.480   0.633   2.294 -0.3584 -0.2992  0.2739
   33MOL   H20310507   2.317   0.677   2.236  0.4518 -1.0645 -0.1202
   33MOL   H20410508   2.545   0.557   1.996  1.5549 -0.6611 -0.0355
   33MOL   H20510509   2.561   0.325   1.738 -2.9095  0.3111  0.9418
   33MOL   H20610510   2.697   0.369   1.844  0.3116  2.7277  0.9471
   33MOL   H20710511   2.586   0.481   1.791 -0.7787  0.5195  1.9614
   33MOL   H20810512   2.348   0.236   2.049 -1.5184  0.0222 -2.5501
   33MOL   H20910513   2.392   0.178   1.884 -2.0759 -0.5011  0.7089
   33MOL   C21010514   2.647   0.439   2.142  0.4299  0.7240 -0.4016
   33MOL   C21110515   2.777   0.472   2.071  0.4557 -0.0691  0.4712
   33MOL   C21210516   2.646   0.317   2.235  0.6733  0.2132 -0.1972
   33MOL   C21310517   2.655   0.364   2.381 -0.4140 -0.1103 -0.1151
   33MOL   C21410518   2.528   0.386   2.460 -0.2232  0.4754  1.1300
   33MOL   C21510519   2.777   0.402   2.428  0.5659  0.4431 -0.0575
   33MOL   H21610520   2.642   0.524   2.211  1.1860  0.8416 -0.4819
   33MOL   H21710521   2.768   0.554   1.999 -1.6096 -1.9500 -1.4936
   33MOL   H21810522   2.818   0.388   2.015  0.0963  0.1487 -0.1287
   33MOL   H21910523   2.846   0.507   2.148  2.4796  1.8795 -2.1266
   33MOL   H22010524   2.550   0.268   2.222  2.0092 -1.5030 -4.8344
   33MOL   H22110525   2.560   0.373   2.563  0.1883 -1.7477  0.7432
   33MOL   H22210526   2.449   0.315   2.435  0.4869 -0.4015  1.3418
   33MOL   H22310527   2.499   0.491   2.448  1.0375  0.9329  2.0101
   33MOL   H22410528   2.867   0.395   2.368  1.9438 -1.0415  2.1262
   33MOL   H22510529   2.787   0.449   2.524  0.7007  1.9358 -0.7822
   33MOL   C22610530   2.746   0.201   2.199 -0.1695 -0.9514 -0.1470
   33MOL   C22710531   2.727   0.131   2.063  0.4471  0.2215 -0.0786
   33MOL   C22810532   2.770   0.093   2.308 -0.3163 -0.3919  0.2524
   33MOL   C22910533   2.912   0.043   2.295 -0.4478 -0.3944 -0.5973
   33MOL   C23010534   3.017   0.131   2.361 -0.5111 -0.4263 -0.2714
   33MOL   C23110535   2.944   7.824   2.227 -0.6822  0.0287  0.0481
   33MOL   H23210536   2.842   0.250   2.186 -1.4222  1.6099 -0.1434
   33MOL   H23310537   2.817   0.072   2.044  1.7636  1.1901  2.8103
   33MOL   H23410538   2.711   0.212   1.992 -1.7609  1.4588  1.7701
   33MOL   H23510539   2.641   0.066   2.052  0.2255  0.3158  1.0093
   33MOL   H23610540   2.780   0.155   2.397  1.6263  3.8534 -2.7305
   33MOL   H23710541   3.036   0.227   2.314  2.4480 -1.3324 -1.0332
   33MOL   H23810542   3.114   0.081   2.352 -1.2565 -1.8433 -0.6780
   33MOL   H23910543   3.006   0.152   2.467 -0.5715 -1.4907 -0.0525
   33MOL   H24010544   2.862   7.766   2.189  1.4792 -2.5564 -0.8032
   33MOL   H24110545   3.046   7.790   2.218 -0.3715  0.6497  1.0239
   33MOL   C24210546   2.666   7.871   2.329  0.5415  0.0578  0.2879
   33MOL   C24310547   2.514   0.010   2.336  0.2913  0.2223 -0.1556
   33MOL   C24410548   2.698   7.761   2.447 -0.2774 -0.2777  0.5376
   33MOL   C24510549   2.679   7.615   2.390  0.0876 -0.1436  0.0694
   33MOL   C24610550   2.544   7.575   2.334  0.1963 -0.0055 -0.5124
   33MOL   C24710551   2.790   7.542   2.381 -0.3480  0.0871 -0.4817
   33MOL   H24810552   2.677   7.814   2.236 -0.1204  0.2288  0.1035
   33MOL   H24910553   2.481   0.041   2.236  0.2334  1.9519  0.3952
   33MOL   H25010554   2.487   0.086   2.408 -1.4340 -0.5566  0.0222
   33MOL   H25110555   2.454   7.814   2.359 -0.1494  0.3650 -0.7465
   33MOL   H25210556   2.807   7.768   2.452 -0.2820  0.9655 -0.9512
   33MOL   H25310557   2.537   7.470   2.307 -0.5055 -0.5999  1.9030
   33MOL   H25410558   2.518   7.639   2.250  2.2700 -0.1894 -1.3239
   33MOL   H25510559   2.465   7.596   2.406  0.3486 -2.2510  0.3554
   33MOL   H25610560   2.886   7.578   2.414 -0.3659 -0.2589 -0.0481
   33MOL   H25710561   2.791   7.444   2.337  0.4820 -0.0248 -0.2198
   33MOL   C25810562   2.640   7.789   2.588  0.8160  0.9852 -0.3678
   33MOL   C25910563   2.669   0.036   2.635  0.8365  0.0789 -0.3836
   33MOL   C26010564   2.680   7.679   2.702  0.3273  0.2281  0.3222
   33MOL   C26110565   2.570   7.687   2.810  0.2952 -0.2426  0.5251
   33MOL   C26210566   2.452   7.585   2.791 -0.4135 -0.0518  0.5207
   33MOL   C26310567   2.569   7.780   2.906 -0.3691 -0.0907  0.1513
   33MOL   H26410568   2.532   7.776   2.580  1.0054  0.8862 -3.5072
   33MOL   H26510569   2.775   0.056   2.651  0.6799  0.6402 -0.0334
   33MOL   H26610570   2.610   0.083   2.713  0.1497 -1.3902  0.0158
   33MOL   H26710571   2.656   0.109   2.556  0.5503  0.4481  0.0021
   33MOL   H26810572   2.673   7.577   2.663  1.0570 -0.1775  1.2227
   33MOL   H26910573   2.403   7.601   2.695 -0.9038  0.2010  0.8106
   33MOL   H27010574   2.377   7.589   2.870 -1.9914 -1.0434 -0.9000
   33MOL   H27110575   2.494   7.485   2.789  2.3982  1.1064 -1.6053
   33MOL   H27210576   2.647   7.851   2.929 -1.1541  0.1375  2.1107
   33MOL   H27310577   2.482   7.792   2.968  1.3056  0.7026  2.4118
   33MOL   C27410578   2.820   7.679   2.767  0.5586 -0.0191 -0.7163
   33MOL   C27510579   2.942   7.667   2.681  0.3939  0.2199 -0.1774
   33MOL   C27610580   2.840   7.581   2.891  0.2804 -1.0610  0.1921
   33MOL   C27710581   2.933   7.646   2.995 -0.7260 -0.9822 -0.2506
   33MOL   C27810582   2.858   7.735   3.098 -0.3080 -0.1544  0.7547
   33MOL   C27910583   3.065   7.632   3.006 -0.3291 -0.4657  0.2580
   33MOL   H28010584   2.825   7.774   2.820 -0.1116 -0.4525  0.1496
   33MOL   H28110585   3.037   7.665   2.736 -1.0579 -0.7902  2.3975
   33MOL   H28210586   2.946   7.750   2.611  0.2801  0.5665  0.2308
   33MOL   H28310587   2.936   7.578   2.619 -1.5029 -0.3368  0.7776
   33MOL   H28410588   2.745   7.562   2.941 -0.1127  2.4358  0.8624
   33MOL   H28510589   2.925   7.782   3.169 -0.8145 -1.5659  2.1821
   33MOL   H28610590   2.779   7.684   3.153 -1.3979  3.0974  2.3316
   33MOL   H28710591   2.813   7.814   3.037  0.4212  0.5652  1.1326
   33MOL   H28810592   3.133   7.579   2.940 -0.3914  0.1451 -0.3011
   33MOL   H28910593   3.113   7.695   3.079 -0.5719 -0.3081  0.2819
   33MOL   C29010594   2.882   7.431   2.856 -0.6893  0.2359 -0.9272
   33MOL   C29110595   2.793   7.358   2.745 -0.2974  0.3689  0.2023
   33MOL   C29210596   2.906   7.337   2.981 -0.1395 -0.2193 -0.5242
   33MOL   C29310597   3.049   7.279   2.978  0.3472 -0.2696  0.9572
   33MOL   C29410598   3.082   7.174   2.868  0.4795  0.1514 -0.1032
   33MOL   C29510599   3.138   7.315   3.071  0.2196 -0.1478  0.0755
   33MOL   H29610600   2.978   7.452   2.809 -0.0290  1.1049  0.7813
   33MOL   H29710601   2.839   7.263   2.718 -0.4032  0.6359 -0.9499
   33MOL   H29810602   2.790   7.408   2.648 -0.7868 -1.1595 -0.6009
   33MOL   H29910603   2.690   7.350   2.778 -0.1997  1.0209  0.6730
   33MOL   H30010604   2.899   7.400   3.071  0.0080 -0.0958 -0.5991
   33MOL   H30110605   3.189   7.167   2.851  0.3892  0.0770 -0.6405
   33MOL   H30210606   3.037   7.205   2.774 -0.3164 -0.2641  0.1380
   33MOL   H30310607   3.040   7.074   2.878  0.2750  0.4505  2.4043
   33MOL   H30410608   3.101   7.381   3.148 -1.9960  0.2558 -1.3058
   33MOL   H30510609   3.239   7.278   3.063  0.2222 -0.4665  1.4350
   33MOL   C30610610   2.796   7.228   3.017  0.0204  0.2398  0.2027
   33MOL   C30710611   2.664   7.297   3.050  0.3307 -0.8129 -0.4896
   33MOL   C30810612   2.839   7.120   3.122 -0.1561 -0.8105  0.2170
   33MOL   C30910613   2.738   7.017   3.146  0.2406  0.2681 -0.1007
   33MOL   C31010614   2.736   6.902   3.042  0.0264 -0.9221 -0.2610
   33MOL   C31110615   2.665   7.026   3.257  0.3787  0.0676  0.3213
   33MOL   H31210616   2.779   7.171   2.926  0.3455  0.4376  0.0214
   33MOL   H31310617   2.627   7.364   2.972  1.6737 -0.8418 -1.1665
   33MOL   H31410618   2.674   7.359   3.139  0.3572 -1.0196 -0.3494
   33MOL   H31510619   2.597   7.214   3.072 -0.6407 -0.0221 -0.4109
   33MOL   H31610620   2.940   7.081   3.109 -0.0305 -0.6056  0.5908
   33MOL   H31710621   2.839   6.865   3.032  0.2003 -0.4315 -0.3020
   33MOL   H31810622   2.720   6.954   2.947 -1.8302 -1.7647 -0.4243
   33MOL   H31910623   2.656   6.834   3.069 -0.7689 -0.4228 -1.3148
   33MOL   H32010624   2.681   7.094   3.339  3.5458 -2.5347  1.9613
   33MOL   H32110625   2.585   6.955   3.270 -1.0258  1.2682 -1.5368
   33MOL   H32210626   2.855   7.171   3.216  1.7808 -2.2259  0.6931
   34MOL     C110627   1.670   7.397   6.359 -0.2996 -0.4309  0.0879
   34MOL     C210628   1.558   7.508   6.360 -0.0452 -0.5406  0.1592
   34MOL     C310629   1.784   7.411   6.470 -0.1795  0.4358 -0.1216
   34MOL     C410630   1.872   7.539   6.454  0.3447 -0.0417 -0.1609
   34MOL     C510631   1.907   7.609   6.581 -0.0103 -0.4467 -0.1780
   34MOL     C610632   1.903   7.596   6.339  0.1576  0.3866 -0.7004
   34MOL     H710633   1.626   7.299   6.373 -0.9279  0.0561  1.7579
   34MOL     H810634   1.525   7.526   6.462  0.5921 -0.1075  0.2948
   34MOL     H910635   1.473   7.489   6.295  0.9945 -0.3140 -1.2786
   34MOL    H1010636   1.599   7.606   6.336 -1.6865  0.4231  1.2312
   34MOL    H1110637   1.735   7.443   6.562 -0.1797  1.9714 -0.6456
   34MOL    H1210638   1.946   7.540   6.657 -1.3665 -0.0149  0.9285
   34MOL    H1310639   1.820   7.659   6.624 -1.1613 -0.2555 -2.6458
   34MOL    H1410640   1.989   7.678   6.563  0.2259 -0.0600  2.1556
   34MOL    H1510641   1.867   7.558   6.245  1.7534 -0.6234 -0.9366
   34MOL    H1610642   1.965   7.684   6.344  0.0355  0.3289  4.3930
   34MOL    H1710643   1.720   7.397   6.262 -1.1490  0.3119 -0.3623
   34MOL    C1810644   1.879   7.285   6.486 -0.1836 -0.5692 -0.3525
   34MOL    C1910645   1.941   7.252   6.350  0.2895  0.2407  0.6141
   34MOL    C2010646   1.814   7.164   6.553  0.5024 -0.0501  0.3758
   34MOL    C2110647   1.702   7.205   6.649  0.2597  0.5851  0.4119
   34MOL    C2210648   1.740   7.276   6.777 -0.1329 -0.4181  0.5888
   34MOL    C2310649   1.576   7.166   6.626  0.6803 -0.9048 -0.0423
   34MOL    H2410650   1.951   7.313   6.563 -1.9333 -0.6131  1.3398
   34MOL    H2510651   2.024   7.181   6.354 -0.5811 -0.7058  2.3857
   34MOL    H2610652   1.968   7.331   6.280 -0.8289 -2.0852 -2.5780
   34MOL    H2710653   1.859   7.200   6.299 -0.9850  1.6896  1.1411
   34MOL    H2810654   1.760   7.121   6.469  1.3830 -0.1909 -0.1164
   34MOL    H2910655   1.803   7.362   6.750 -0.8231  0.0183  0.3607
   34MOL    H3010656   1.796   7.204   6.836 -1.3747 -1.4185  0.5580
   34MOL    H3110657   1.651   7.317   6.824 -1.1911 -0.1805 -1.5597
   34MOL    H3210658   1.559   7.098   6.544 -0.1912  0.2272 -0.8127
   34MOL    H3310659   1.492   7.198   6.686  0.9251  1.6050 -0.9947
   34MOL    C3410660   1.906   7.053   6.622 -0.0618  0.6462  0.4477
   34MOL    C3510661   2.047   7.094   6.665 -0.8915  0.0211  0.0609
   34MOL    C3610662   1.892   6.906   6.561 -0.8994  0.5362  0.1680
   34MOL    C3710663   1.978   6.895   6.435  0.7125  0.1487 -0.3420
   34MOL    C3810664   2.116   6.845   6.434  0.1264  0.2884  0.2790
   34MOL    C3910665   1.936   6.923   6.312  0.2742  0.3596  0.2758
   34MOL    H4010666   1.865   7.037   6.722 -1.5782 -1.3673 -0.4680
   34MOL    H4110667   2.055   7.195   6.705  0.5818  0.1298 -0.4667
   34MOL    H4210668   2.107   7.099   6.574  0.1114  2.7444  0.8009
   34MOL    H4310669   2.085   7.018   6.733  0.3292  0.5108 -0.0496
   34MOL    H4410670   1.937   6.846   6.640 -3.7923 -0.2959  1.2632
   34MOL    H4510671   2.160   6.869   6.531  0.9892  0.8192 -0.2402
   34MOL    H4610672   2.178   6.890   6.357 -0.4735  0.5134 -0.0751
   34MOL    H4710673   2.124   6.738   6.418 -2.1787 -0.1232  1.5550
   34MOL    H4810674   1.839   6.966   6.291  0.8748  1.2171 -0.7964
   34MOL    H4910675   1.998   6.911   6.224 -1.4698  2.0872 -1.2623
   34MOL    C5010676   1.744   6.854   6.550 -0.3658 -0.0500 -0.7273
   34MOL    C5110677   1.674   6.838   6.692 -0.4166  0.1834 -0.0447
   34MOL    C5210678   1.720   6.729   6.458 -0.3425 -0.1609 -0.0211
   34MOL    C5310679   1.587   6.739   6.378 -0.2095 -0.1483 -0.4117
   34MOL    C5410680   1.588   6.829   6.255  0.0146  0.6821 -0.5094
   34MOL    C5510681   1.469   6.706   6.431  0.1095 -0.0108  0.2697
   34MOL    H5610682   1.680   6.932   6.508 -0.8526 -1.0368 -1.8740
   34MOL    H5710683   1.727   6.765   6.754 -1.1579  0.1550  0.5743
   34MOL    H5810684   1.569   6.810   6.694 -0.4225  0.2473  1.6963
   34MOL    H5910685   1.691   6.927   6.753  1.3937  0.0569 -0.3469
   34MOL    H6010686   1.780   6.744   6.369 -1.5377  0.3924 -0.7422
   34MOL    H6110687   1.492   6.832   6.203 -1.2685  0.2649  1.7497
   34MOL    H6210688   1.668   6.800   6.187  0.9459 -0.7287  1.1302
   34MOL    H6310689   1.605   6.933   6.284 -1.2611  0.4348  1.2573
   34MOL    H6410690   1.470   6.665   6.530 -1.8134 -1.9000 -0.4628
   34MOL    H6510691   1.378   6.724   6.375 -2.0863 -2.6450  2.8746
   34MOL    C6610692   1.731   6.587   6.525 -0.2410 -0.0928  0.1322
   34MOL    C6710693   1.868   6.566   6.587 -0.2769  0.2539  0.2403
   34MOL    C6810694   1.686   6.462   6.441  0.8264 -0.0849  0.3293
   34MOL    C6910695   1.640   6.356   6.545  0.8007 -0.2224 -0.2843
   34MOL    C7010696   1.498   6.362   6.595  0.5309  0.0866 -0.2366
   34MOL    C7110697   1.727   6.271   6.606 -0.5775 -0.3411 -0.2973
   34MOL    H7210698   1.660   6.593   6.607 -0.9346 -0.5514 -0.4286
   34MOL    H7310699   1.922   6.649   6.634  1.7730 -1.5874  1.2176
   34MOL    H7410700   1.941   6.551   6.507  1.3341  2.4829  1.2198
   34MOL    H7510701   1.864   6.485   6.659  1.1530  0.0993  0.1735
   34MOL    H7610702   1.591   6.479   6.390  0.8584 -2.3074 -0.5353
   34MOL    H7710703   1.437   6.348   6.506 -0.0882 -2.1196  0.4931
   34MOL    H7810704   1.487   6.458   6.645 -0.5871 -1.3062  2.3162
   34MOL    H7910705   1.488   6.283   6.670 -1.6538 -0.1698 -0.7504
   34MOL    H8010706   1.832   6.271   6.582  1.1412  0.7052  6.2943
   34MOL    H8110707   1.694   6.195   6.676  0.1432  0.0061  0.4295
   34MOL    C8210708   1.780   6.401   6.329 -0.3347  0.3605 -0.1313
   34MOL    C8310709   1.854   6.499   6.238  0.4670 -0.0875 -0.0257
   34MOL    C8410710   1.711   6.283   6.252  0.3627 -0.0282  0.2174
   34MOL    C8510711   1.791   6.159   6.273  0.2299 -1.1786  0.3623
   34MOL    C8610712   1.920   6.132   6.193 -0.2641  0.3261  0.1745
   34MOL    C8710713   1.766   6.065   6.365 -0.2843 -0.5386 -0.5928
   34MOL    H8810714   1.860   6.353   6.386  0.0579  0.3801 -0.6559
   34MOL    H8910715   1.939   6.542   6.292  0.1041  0.3202  0.2291
   34MOL    H9010716   1.800   6.586   6.200  0.0022 -1.3588 -2.3265
   34MOL    H9110717   1.892   6.446   6.151  0.7348 -1.1527  0.7303
   34MOL    H9210718   1.617   6.262   6.304  0.7463 -2.0389  0.1143
   34MOL    H9310719   1.901   6.164   6.090 -0.6000 -2.0277 -0.5254
   34MOL    H9410720   1.948   6.027   6.183  0.0835  0.4252  0.1170
   34MOL    H9510721   1.998   6.198   6.230  0.7063 -0.0357 -1.1782
   34MOL    H9610722   1.688   6.085   6.437  0.6841  0.2087  0.2537
   34MOL    H9710723   1.822   5.975   6.386 -0.4899 -0.2754  1.1363
   34MOL    C9810724   1.665   6.315   6.101 -0.1900  0.0827 -0.3081
   34MOL    C9910725   1.554   6.429   6.095 -0.1647 -0.1424 -0.2766
   34MOL   C10010726   1.623   6.192   6.020 -0.1100 -0.2342  0.1229
   34MOL   C10110727   1.685   6.189   5.877 -0.4015 -0.4522  0.2700
   34MOL   C10210728   1.650   6.299   5.777  0.4709  0.4858 -0.0606
   34MOL   C10310729   1.779   6.095   5.842  0.4529 -0.0046  0.3831
   34MOL   H10410730   1.755   6.348   6.048 -0.3755  0.1373 -0.5909
   34MOL   H10510731   1.545   6.469   5.994  1.0725  1.7034  0.3172
   34MOL   H10610732   1.584   6.504   6.167 -0.9792 -0.5785  0.5255
   34MOL   H10710733   1.450   6.413   6.122  0.0265  0.5148  0.8522
   34MOL   H10810734   1.679   6.109   6.063  0.7450  0.7919  0.9946
   34MOL   H10910735   1.544   6.320   5.790  0.1794 -0.8795 -0.1210
   34MOL   H11010736   1.656   6.274   5.671  1.6027 -2.2385  0.6011
   34MOL   H11110737   1.705   6.390   5.798 -3.0094  2.4054  1.1267
   34MOL   H11210738   1.811   6.013   5.905 -0.0923 -1.4645 -1.1976
   34MOL   H11310739   1.815   6.103   5.740 -2.3848  4.3702 -0.4173
   34MOL   C11410740   1.471   6.155   6.021  0.0936  0.0880 -1.0886
   34MOL   C11510741   1.396   6.151   6.157 -0.4855 -0.0072  0.3772
   34MOL   C11610742   1.429   6.026   5.932 -0.2934 -0.1311  0.4718
   34MOL   C11710743   1.289   6.048   5.874 -0.4722 -0.4442  0.7116
   34MOL   C11810744   1.273   6.140   5.757 -0.3985  0.1823  0.3225
   34MOL   C11910745   1.177   6.009   5.930 -0.2312 -0.0166 -0.1280
   34MOL   H12010746   1.426   6.242   5.974  0.7560  0.5108 -0.9441
   34MOL   H12110747   1.289   6.145   6.142 -0.7451  0.1053  2.0770
   34MOL   H12210748   1.413   6.245   6.210 -1.5568 -1.0624  2.6091
   34MOL   H12310749   1.420   6.067   6.221 -1.7330 -0.9425 -0.3741
   34MOL   H12410750   1.500   6.021   5.849 -0.6873 -0.5378  0.1605
   34MOL   H12510751   1.206   6.103   5.679  0.8148 -1.1529 -0.1159
   34MOL   H12610752   1.370   6.151   5.708 -0.2925 -0.4465  0.3846
   34MOL   H12710753   1.263   6.247   5.776  2.0568  0.5003  0.0087
   34MOL   H12810754   1.183   5.964   6.028 -3.4060  0.3407  0.2878
   34MOL   H12910755   1.078   6.022   5.889  0.1122  1.2600 -0.5816
   34MOL   C13010756   1.452   5.886   6.004 -0.2044  0.0950 -0.1036
   34MOL   C13110757   1.596   5.857   6.072 -0.2786  0.1243 -0.1510
   34MOL   C13210758   1.412   5.754   5.929 -0.4152  0.9438  0.2136
   34MOL   C13310759   1.328   5.662   6.029 -0.0892  0.2695  0.3118
   34MOL   C13410760   1.414   5.588   6.140  0.0642 -0.2913  0.4384
   34MOL   C13510761   1.195   5.660   6.025  0.1930 -0.2333  0.2526
   34MOL   H13610762   1.378   5.885   6.083  1.3559  0.0045  1.3957
   34MOL   H13710763   1.627   5.923   6.153 -2.6876  1.1465 -0.0016
   34MOL   H13810764   1.667   5.860   5.990 -0.2662 -1.4904 -0.2195
   34MOL   H13910765   1.608   5.755   6.109  0.1665 -0.0297 -0.7168
   34MOL   H14010766   1.330   5.786   5.864  1.6349  2.0403 -1.9010
   34MOL   H14110767   1.506   5.569   6.084 -0.2887  0.9477 -0.5822
   34MOL   H14210768   1.358   5.497   6.159 -0.7357  0.0387 -0.2974
   34MOL   H14310769   1.431   5.651   6.227  1.7045 -2.1605  1.5141
   34MOL   H14410770   1.146   5.715   5.946  1.7808 -0.5919 -0.9973
   34MOL   H14510771   1.140   5.603   6.098  1.3112  0.1719  1.4475
   34MOL   C14610772   1.517   5.680   5.828  0.4197 -0.1112  0.0265
   34MOL   C14710773   1.590   5.777   5.721  0.4659  0.1660 -0.1326
   34MOL   C14810774   1.481   5.536   5.779  0.0722  0.3314 -0.6705
   34MOL   C14910775   1.601   5.435   5.794 -0.0828 -1.1748  0.1742
   34MOL   C15010776   1.716   5.453   5.705  0.8176  0.2906  0.6290
   34MOL   C15110777   1.604   5.336   5.883  0.2235  0.4870 -0.3454
   34MOL   H15210778   1.607   5.667   5.888  0.1076  0.3361  0.6014
   34MOL   H15310779   1.530   5.861   5.686  0.9859  0.2509 -0.8351
   34MOL   H15410780   1.625   5.727   5.630  1.8261 -1.5531  1.2914
   34MOL   H15510781   1.682   5.811   5.770  0.9206  0.9872 -1.5385
   34MOL   H15610782   1.409   5.495   5.850 -0.3029 -0.2189 -1.3633
   34MOL   H15710783   1.792   5.375   5.714 -1.5610 -2.1614 -0.1443
   34MOL   H15810784   1.761   5.549   5.731 -0.2137  0.3871  2.0545
   34MOL   H15910785   1.684   5.460   5.601  1.0197 -2.9383  0.2863
   34MOL   H16010786   1.522   5.312   5.949  1.8293  0.7753  1.7745
   34MOL   H16110787   1.696   5.282   5.894  0.7697  1.4353 -0.2180
   34MOL   C16210788   1.407   5.529   5.636 -0.2803  0.1873  0.0242
   34MOL   C16310789   1.298   5.648   5.627  0.1438  0.5617  0.6446
   34MOL   C16410790   1.354   5.384   5.595  0.2540 -0.7033 -0.2987
   34MOL   C16510791   1.376   5.365   5.447 -0.2050  0.1900  0.0032
   34MOL   C16610792   1.309   5.467   5.351 -0.1636  0.5653  0.1285
   34MOL   C16710793   1.459   5.276   5.395  0.7028 -0.1262  0.8378
   34MOL   H16810794   1.483   5.568   5.567  0.7215 -0.7925  0.5614
   34MOL   H16910795   1.349   5.743   5.615 -1.4536  1.2939 -0.4203
   34MOL   H17010796   1.240   5.655   5.718  0.4657 -0.9514  0.9834
   34MOL   H17110797   1.242   5.646   5.533  2.5664 -3.7755 -0.8931
   34MOL   H17210798   1.411   5.304   5.641 -0.7115 -1.6954 -0.8006
   34MOL   H17310799   1.352   5.566   5.362  1.1988 -0.0153  0.1720
   34MOL   H17410800   1.204   5.473   5.380 -0.1581  2.0240 -0.1317
   34MOL   H17510801   1.298   5.441   5.246 -0.1958  2.4946 -0.3549
   34MOL   H17610802   1.512   5.219   5.470 -0.5925 -1.1985  0.9676
   34MOL   H17710803   1.486   5.266   5.291 -1.0841  0.2149  0.3337
   34MOL   C17810804   1.198   5.363   5.642  0.6635  0.6133 -0.2181
   34MOL   C17910805   1.181   5.363   5.798 -0.5423  0.5773  0.1348
   34MOL   C18010806   1.111   5.259   5.565  0.3057  0.1659  0.0047
   34MOL   C18110807   0.965   5.314   5.565  0.1660  0.3134 -0.2965
   34MOL   C18210808   0.939   5.413   5.451 -0.2515 -0.5757 -0.9761
   34MOL   C18310809   0.868   5.284   5.650 -0.1078 -0.5078  0.5908
   34MOL   H18410810   1.154   5.459   5.616 -0.2035  0.9506  2.3472
   34MOL   H18510811   1.245   5.293   5.852 -2.0312 -0.8021  0.1476
   34MOL   H18610812   1.083   5.322   5.823 -0.5450 -0.1423 -1.0467
   34MOL   H18710813   1.180   5.462   5.843  0.5499  0.3635  0.6368
   34MOL   H18810814   1.146   5.261   5.462  1.6982 -0.1778  0.4594
   34MOL   H18910815   0.972   5.515   5.472  1.1569 -1.5119  1.4766
   34MOL   H19010816   0.834   5.420   5.419  0.8357  2.0112 -4.3168
   34MOL   H19110817   0.987   5.388   5.356  1.0602  0.8923 -0.7139
   34MOL   H19210818   0.894   5.214   5.728  1.4605 -0.8009 -0.1834
   34MOL   H19310819   0.774   5.337   5.656  0.9919  1.5318  0.2815
   34MOL   C19410820   1.137   5.113   5.622  0.1166 -0.0706  0.3199
   34MOL   C19510821   1.281   5.065   5.650  0.5988  0.0746 -0.6953
   34MOL   C19610822   1.059   5.000   5.558 -0.1014 -0.2131  0.0885
   34MOL   C19710823   1.026   4.889   5.658 -0.3860 -0.2420 -0.0540
   34MOL   C19810824   0.903   4.909   5.738  0.2321  0.2494 -0.4856
   34MOL   C19910825   1.104   4.781   5.669 -0.7122  0.2481 -0.9933
   34MOL   H20010826   1.086   5.126   5.718  1.4599 -0.8319  1.1621
   34MOL   H20110827   1.309   5.125   5.737 -2.1770 -1.6838  1.4675
   34MOL   H20210828   1.339   5.102   5.566  0.0572  0.4902 -0.8893
   34MOL   H20310829   1.300   4.960   5.668 -4.1073 -0.7744 -0.0934
   34MOL   H20410830   0.960   5.045   5.547  0.3033  0.6778 -0.0224
   34MOL   H20510831   0.812   4.937   5.684  0.4871 -0.0012 -1.0460
   34MOL   H20610832   0.922   4.985   5.813  1.7377  0.1561 -0.7497
   34MOL   H20710833   0.893   4.827   5.809  0.4380  0.8379  0.2246
   34MOL   H20810834   1.185   4.774   5.599  1.0192  1.2183  0.8686
   34MOL   H20910835   1.091   4.701   5.740  1.3643  0.4328 -0.3853
   34MOL   C21010836   1.096   4.932   5.418  0.4046 -0.3600  0.6484
   34MOL   C21110837   1.135   5.038   5.309 -0.5989  0.3329 -0.2712
   34MOL   C21210838   1.011   4.803   5.368 -0.4880 -0.0131  0.4355
   34MOL   C21310839   1.108   4.685   5.332  0.8245 -0.5995  0.8150
   34MOL   C21410840   1.195   4.694   5.203 -0.1991 -0.8996  0.1867
   34MOL   C21510841   1.123   4.579   5.413  0.6456 -0.3040  0.1416
   34MOL   H21610842   1.196   4.889   5.428  0.3955 -0.3928  0.5956
   34MOL   H21710843   1.048   5.094   5.275 -1.4495 -0.6787  0.2017
   34MOL   H21810844   1.170   4.983   5.221  1.9212  0.1394  0.7832
   34MOL   H21910845   1.214   5.110   5.331  1.4509 -1.8852 -0.0823
   34MOL   H22010846   0.965   4.763   5.458 -0.9861 -0.1574  0.1197
   34MOL   H22110847   1.257   4.604   5.202 -0.6324 -1.2065  0.5672
   34MOL   H22210848   1.255   4.785   5.210  2.2431 -2.1140 -3.6385
   34MOL   H22310849   1.134   4.695   5.113 -0.5483  0.7099  0.4226
   34MOL   H22410850   1.067   4.575   5.505  0.0968  0.4260 -0.1581
   34MOL   H22510851   1.193   4.498   5.401  0.9456  0.2468 -1.8915
   34MOL   C22610852   0.893   4.828   5.266 -0.0508  0.2065 -0.1856
   34MOL   C22710853   0.793   4.927   5.318 -0.3083  0.1876 -0.4756
   34MOL   C22810854   0.839   4.694   5.193 -0.3959 -0.5289  1.4052
   34MOL   C22910855   0.813   4.717   5.043 -0.4292  0.1655 -0.1293
   34MOL   C23010856   0.699   4.815   5.003 -0.5804  0.5790 -0.0825
   34MOL   C23110857   0.885   4.656   4.952  0.3942 -0.4218 -0.3112
   34MOL   H23210858   0.951   4.876   5.187  0.4796  1.1547  0.7509
   34MOL   H23310859   0.709   4.944   5.251 -2.0404 -1.2385  1.2686
   34MOL   H23410860   0.834   5.028   5.325 -0.4412  0.3931 -2.3762
   34MOL   H23510861   0.754   4.907   5.418 -3.2076 -1.2551 -1.8419
   34MOL   H23610862   0.913   4.615   5.199  0.5107  0.1204 -0.9748
   34MOL   H23710863   0.615   4.812   5.072 -1.0851  2.5619 -0.5729
   34MOL   H23810864   0.666   4.796   4.901 -1.8376  3.1368 -0.1996
   34MOL   H23910865   0.729   4.920   4.998  1.3336  0.0095 -0.7987
   34MOL   H24010866   0.972   4.596   4.972 -0.1784 -0.7089  1.4214
   34MOL   H24110867   0.870   4.663   4.846  0.3252  2.7094 -0.1588
   34MOL   C24210868   0.717   4.617   5.261  0.1849  0.2594  0.0822
   34MOL   C24310869   0.740   4.582   5.408  0.4864  0.9518 -0.2409
   34MOL   C24410870   0.648   4.498   5.181 -0.4145 -0.2755  0.1398
   34MOL   C24510871   0.501   4.489   5.209 -0.3397  0.3029  0.0158
   34MOL   C24610872   0.403   4.545   5.108 -0.3228  0.1370 -0.5052
   34MOL   C24710873   0.462   4.418   5.319 -0.6436 -0.0663  0.3835
   34MOL   H24810874   0.651   4.703   5.253  2.0233  1.7762  0.6553
   34MOL   H24910875   0.820   4.510   5.420 -1.0012 -0.5258  0.9466
   34MOL   H25010876   0.658   4.541   5.467  1.3208  1.3346  1.2001
   34MOL   H25110877   0.772   4.673   5.460 -2.8092  1.8888  0.2431
   34MOL   H25210878   0.651   4.525   5.076 -0.5382 -0.8994 -0.0248
   34MOL   H25310879   0.296   4.528   5.124  0.0689 -0.5371  1.5177
   34MOL   H25410880   0.429   4.492   5.017  0.4438  0.4172 -0.4528
   34MOL   H25510881   0.434   4.648   5.089 -0.7961  0.0943 -1.5270
   34MOL   H25610882   0.519   4.367   5.395 -0.8643  0.0862  0.6524
   34MOL   H25710883   0.357   4.421   5.341 -0.0096  2.2266  3.5454
   34MOL   C25810884   0.713   4.354   5.195  0.0102 -0.0578  0.2072
   34MOL   C25910885   0.858   4.356   5.157 -0.2733 -0.1244 -0.0493
   34MOL   C26010886   0.644   4.233   5.123 -0.0115  0.1966 -0.4705
   34MOL   C26110887   0.650   4.102   5.208 -0.5943  0.4567  0.2880
   34MOL   C26210888   0.531   4.073   5.301 -0.2012  0.3688 -0.5072
   34MOL   C26310889   0.754   4.019   5.203  0.9974 -0.1311 -0.2900
   34MOL   H26410890   0.717   4.324   5.299  0.9921  0.3911  0.3020
   34MOL   H26510891   0.918   4.410   5.230 -0.3897 -2.1799  1.6325
   34MOL   H26610892   0.870   4.391   5.055 -2.0602  2.3074  0.5288
   34MOL   H26710893   0.899   4.255   5.157  2.7381  1.0523  1.4941
   34MOL   H26810894   0.538   4.257   5.125 -0.2538  0.1090 -6.1373
   34MOL   H26910895   0.561   4.113   5.398 -0.0336 -1.5379  0.2487
   34MOL   H27010896   0.487   3.973   5.293 -1.0513  0.6381  0.6058
   34MOL   H27110897   0.443   4.131   5.276 -1.3384 -1.6409 -1.3114
   34MOL   H27210898   0.837   4.024   5.134  2.4009 -0.7775  1.3054
   34MOL   H27310899   0.760   3.929   5.263  0.2687  0.7512  1.1338
   34MOL   C27410900   0.681   4.211   4.970  0.1910 -0.5201 -0.5555
   34MOL   C27510901   0.654   4.331   4.874  0.2765 -0.4062 -0.8894
   34MOL   C27610902   0.621   4.075   4.906  0.4405  1.0113  0.5216
   34MOL   C27710903   0.732   4.021   4.804  0.1710  0.5911  0.1926
   34MOL   C27810904   0.853   3.948   4.868  0.0380  0.8302 -0.0047
   34MOL   C27910905   0.721   4.030   4.669  1.1103  0.3653  0.1237
   34MOL   H28010906   0.789   4.199   4.971  0.1663 -0.8971  1.6608
   34MOL   H28110907   0.709   4.424   4.889  1.6970 -1.3493 -0.0982
   34MOL   H28210908   0.552   4.366   4.860  0.7402  0.8104 -1.2849
   34MOL   H28310909   0.675   4.304   4.771 -0.1168  0.3096 -1.1617
   34MOL   H28410910   0.620   3.999   4.984  0.7890 -0.2158 -0.6539
   34MOL   H28510911   0.815   3.864   4.925 -4.1037  0.9396 -2.4129
   34MOL   H28610912   0.922   4.009   4.926 -1.0298 -0.3157  2.5313
   34MOL   H28710913   0.920   3.906   4.792  1.3100 -0.2794  1.6911
   34MOL   H28810914   0.633   4.076   4.627  0.6379 -1.4818 -0.9742
   34MOL   H28910915   0.801   3.984   4.612  1.2659  0.5837  0.1656
   34MOL   C29010916   0.476   4.075   4.850 -0.4461  0.3169  0.1215
   34MOL   C29110917   0.377   4.154   4.942  0.4010 -0.6220 -0.5773
   34MOL   C29210918   0.418   3.937   4.806  0.4381  0.3209  0.0633
   34MOL   C29310919   0.377   3.944   4.659  0.9519  0.6704  0.0424
   34MOL   C29410920   0.260   4.027   4.621  0.6477  0.7479 -0.3039
   34MOL   C29510921   0.455   3.887   4.565 -0.2672 -0.2168 -0.4006
   34MOL   H29610922   0.468   4.134   4.759 -0.1749  1.6169  0.9241
   34MOL   H29710923   0.379   4.136   5.050 -0.3127  0.8874 -0.2987
   34MOL   H29810924   0.275   4.147   4.906 -0.0750 -0.0922  0.6538
   34MOL   H29910925   0.386   4.262   4.934  2.0493 -0.5748  1.4373
   34MOL   H30010926   0.493   3.859   4.796  1.3577  1.2541 -0.4127
   34MOL   H30110927   0.301   4.127   4.608  2.0571  0.2876  0.4693
   34MOL   H30210928   0.187   4.036   4.702  1.6538  2.5166  0.4144
   34MOL   H30310929   0.202   3.997   4.533 -0.2270  0.5313  0.3370
   34MOL   H30410930   0.541   3.829   4.595 -0.0569 -0.1272 -0.8270
   34MOL   H30510931   0.434   3.896   4.460 -1.5750 -2.8931 -0.3988
   34MOL   C30610932   0.315   3.868   4.909 -0.1194  0.2542 -0.0288
   34MOL   C30710933   0.376   3.821   5.042  0.4160 -0.0444  0.9372
   34MOL   C30810934   0.251   3.738   4.836  0.4464  0.6858 -0.7201
   34MOL   C30910935   0.151   3.662   4.928 -0.6619 -0.0956  0.0420
   34MOL   C31010936   0.193   3.523   4.972 -0.1143  0.8559  0.4736
   34MOL   C31110937   0.039   3.725   4.967  0.0272 -0.0632  0.8459
   34MOL   H31210938   0.232   3.932   4.941  0.7575  1.5213 -0.2193
   34MOL   H31310939   0.443   3.738   5.019 -0.9110 -0.5902 -1.1421
   34MOL   H31410940   0.299   3.813   5.119  0.3582 -1.7606  0.7328
   34MOL   H31510941   0.448   3.898   5.069  1.2422 -0.8149  0.9671
   34MOL   H31610942   0.194   3.771   4.750  0.0436  0.3438 -0.5887
   34MOL   H31710943   0.295   3.525   5.008  0.0071 -0.0639  0.2059
   34MOL   H31810944   0.194   3.470   4.877  0.8663  0.6623  0.5872
   34MOL   H31910945   0.125   3.478   5.044 -2.1117 -0.1668 -1.9415
   34MOL   H32010946   0.026   3.826   4.929 -3.3270 -0.9913 -0.5891
   34MOL   H32110947   7.856   3.684   5.032  1.9969 -1.0498  2.5468
   34MOL   H32210948   0.331   3.669   4.806  1.0596  1.1499 -0.1692
   35MOL     C110949   2.625   1.411   2.623 -0.2770 -0.5938 -0.5636
   35MOL     C210950   2.610   1.293   2.726  0.4716  0.2851 -0.0144
   35MOL     C310951   2.693   1.538   2.686  0.0304  0.4667  0.3539
   35MOL     C410952   2.595   1.587   2.798 -0.3861  0.4902  0.7209
   35MOL     C510953   2.464   1.663   2.754  0.0265 -0.1307 -0.1894
   35MOL     C610954   2.622   1.567   2.929 -0.3754 -0.1497 -0.0925
   35MOL     H710955   2.689   1.375   2.543  1.2139 -0.6353  0.6164
   35MOL     H810956   2.547   1.217   2.678  2.1750 -0.1768 -1.5983
   35MOL     H910957   2.559   1.330   2.814  0.6699  0.3456  0.0741
   35MOL    H1010958   2.704   1.250   2.760  0.3347  1.1672  1.5064
   35MOL    H1110959   2.773   1.509   2.754  0.1728  2.5823  1.1076
   35MOL    H1210960   2.486   1.756   2.701  2.6278 -0.0290  0.9702
   35MOL    H1310961   2.399   1.696   2.835  0.7376  4.1630 -1.2005
   35MOL    H1410962   2.399   1.599   2.695  0.8663 -0.7778 -0.4322
   35MOL    H1510963   2.714   1.518   2.956  1.2851  2.6501 -0.4882
   35MOL    H1610964   2.562   1.608   3.009 -0.0595 -2.4210  1.3324
   35MOL    H1710965   2.529   1.435   2.579 -0.0606 -0.4392 -0.9502
   35MOL    C1810966   2.747   1.651   2.588 -0.7389  0.1992 -0.7342
   35MOL    C1910967   2.651   1.651   2.464  0.0791  0.4396 -0.6823
   35MOL    C2010968   2.894   1.627   2.528 -0.1885  0.1598  0.4844
   35MOL    C2110969   2.987   1.578   2.643 -0.6639 -0.0931 -0.1632
   35MOL    C2210970   3.017   1.427   2.644  0.0468  0.1868 -0.3364
   35MOL    C2310971   3.037   1.656   2.741 -0.5808 -0.0496 -0.5649
   35MOL    H2410972   2.746   1.746   2.641 -2.8579  0.9541 -2.0430
   35MOL    H2510973   2.682   1.726   2.392 -0.0275 -0.0926 -1.2921
   35MOL    H2610974   2.546   1.661   2.493 -0.1084 -1.8034 -0.4188
   35MOL    H2710975   2.657   1.559   2.405  2.7725  0.3525 -0.3511
   35MOL    H2810976   2.883   1.540   2.463  0.0096  2.0710 -2.1753
   35MOL    H2910977   3.084   1.404   2.561 -0.7797 -1.6409 -0.5218
   35MOL    H3010978   2.929   1.366   2.622  0.0945  0.5867 -1.7117
   35MOL    H3110979   3.063   1.390   2.735  0.8878  1.1388 -0.3674
   35MOL    H3210980   3.013   1.761   2.733 -0.4377 -0.1694 -3.1042
   35MOL    H3310981   3.094   1.625   2.827  0.4726 -0.1285 -1.2824
   35MOL    C3410982   2.970   1.738   2.447  0.4473  0.3647 -0.1474
   35MOL    C3510983   2.910   1.879   2.462  0.0830 -0.8025  0.0069
   35MOL    C3610984   3.000   1.687   2.301  0.3514 -0.0403  0.3595
   35MOL    C3710985   2.870   1.682   2.220  0.0229  0.1474  0.1800
   35MOL    C3810986   2.821   1.806   2.147  0.1107  0.0361 -0.1824
   35MOL    C3910987   2.811   1.569   2.185 -0.8385 -0.0056  0.2509
   35MOL    H4010988   3.068   1.740   2.494  0.3720  3.1757 -0.0416
   35MOL    H4110989   2.891   1.910   2.564  0.6089  2.1675 -0.7422
   35MOL    H4210990   2.819   1.892   2.404 -1.2682 -0.2372  2.2012
   35MOL    H4310991   2.974   1.955   2.416  0.1260 -1.7293 -1.4913
   35MOL    H4410992   3.047   1.767   2.245 -0.2382  0.3104  0.3621
   35MOL    H4510993   2.777   1.781   2.050  1.5849  0.2427 -0.9216
   35MOL    H4610994   2.895   1.877   2.110  1.6539 -3.0936 -3.4127
   35MOL    H4710995   2.747   1.862   2.203 -1.0076 -0.4359 -1.1640
   35MOL    H4810996   2.856   1.478   2.222 -0.0896  0.0803 -0.4258
   35MOL    H4910997   2.732   1.558   2.112  1.0440  0.4572 -1.9276
   35MOL    C5010998   3.097   1.568   2.287  0.5042 -0.8723 -0.2733
   35MOL    C5110999   3.233   1.607   2.356  0.0922  0.7130  0.0997
   35MOL    C5211000   3.124   1.496   2.139  0.6532  0.0753 -0.4543
   35MOL    C5311001   3.162   1.350   2.166 -0.9248  0.0012 -0.3402
   35MOL    C5411002   3.049   1.248   2.190  0.1675 -0.5365  0.3823
   35MOL    C5511003   3.294   1.306   2.174  0.1821 -0.0449 -0.0771
   35MOL    H5611004   3.063   1.489   2.354 -1.2313 -0.7363 -0.9762
   35MOL    H5711005   3.303   1.531   2.322 -1.2653 -0.6032  0.1323
   35MOL    H5811006   3.226   1.604   2.465  2.6316  1.6713  0.3227
   35MOL    H5911007   3.262   1.710   2.337  1.1785  0.9877  3.0616
   35MOL    H6011008   3.030   1.496   2.084 -0.7934  2.1749  1.9169
   35MOL    H6111009   3.006   1.222   2.093 -0.3327  0.3716  0.3642
   35MOL    H6211010   2.974   1.290   2.257 -1.3616 -1.5585 -0.6667
   35MOL    H6311011   3.082   1.151   2.229 -1.9433 -1.2820  0.3882
   35MOL    H6411012   3.382   1.363   2.150  0.4735 -0.8868 -1.0056
   35MOL    H6511013   3.317   1.203   2.199 -0.7935 -0.2717 -0.0648
   35MOL    C6611014   3.214   1.571   2.031 -0.2375 -0.6010 -0.2649
   35MOL    C6711015   3.229   1.728   2.045  0.5807  0.3854  0.4076
   35MOL    C6811016   3.193   1.525   1.888 -0.3275  0.2109 -0.1558
   35MOL    C6911017   3.329   1.494   1.810  0.7326  0.1134 -0.1035
   35MOL    C7011018   3.381   1.350   1.820 -0.8997  0.5637 -1.4267
   35MOL    C7111019   3.388   1.590   1.736  0.3387  0.5480 -1.0776
   35MOL    H7211020   3.316   1.539   2.053  0.9305  2.5533 -0.8498
   35MOL    H7311021   3.131   1.774   2.034  0.3860 -0.2979 -0.9590
   35MOL    H7411022   3.291   1.769   1.965  0.6110  0.0995  0.2838
   35MOL    H7511023   3.281   1.757   2.136  1.4095 -0.1139  0.1008
   35MOL    H7611024   3.155   1.423   1.892 -3.4145  1.2337 -1.5601
   35MOL    H7711025   3.405   1.320   1.922 -2.2791 -0.1515 -1.3058
   35MOL    H7811026   3.455   1.335   1.742 -0.2934 -1.0987 -0.5392
   35MOL    H7911027   3.311   1.275   1.784 -1.2748  0.1987  0.0115
   35MOL    H8011028   3.346   1.689   1.727  0.0060  0.5076 -0.0082
   35MOL    H8111029   3.477   1.565   1.679  1.2233  0.9766  0.0897
   35MOL    C8211030   3.091   1.614   1.804 -0.1116 -0.0937  0.3933
   35MOL    C8311031   2.952   1.617   1.871 -0.4043 -0.1289  0.3164
   35MOL    C8411032   3.076   1.604   1.650  0.7506  0.2823  0.0340
   35MOL    C8511033   3.011   1.735   1.597  0.8383  0.1388 -0.2585
   35MOL    C8611034   3.114   1.832   1.551  0.4925 -0.2674 -0.4787
   35MOL    C8711035   2.881   1.747   1.557 -0.2533  0.0660 -0.1511
   35MOL    H8811036   3.123   1.718   1.805  0.8039 -0.2822 -3.1848
   35MOL    H8911037   2.880   1.670   1.809 -0.0687 -0.8030 -0.6447
   35MOL    H9011038   2.958   1.663   1.970 -2.6126  0.6154  0.1174
   35MOL    H9111039   2.920   1.514   1.883  0.2144 -0.2953  0.5784
   35MOL    H9211040   3.173   1.609   1.601  0.5111 -0.0062 -0.4702
   35MOL    H9311041   3.072   1.932   1.541  1.7065  0.3105  0.1841
   35MOL    H9411042   3.156   1.794   1.458 -0.2244 -0.0099 -0.9169
   35MOL    H9511043   3.196   1.844   1.621  0.0822  1.7459 -0.3144
   35MOL    H9611044   2.810   1.674   1.591  0.0502  0.5311  1.5154
   35MOL    H9711045   2.842   1.830   1.500 -2.2044  0.3281  1.5266
   35MOL    C9811046   3.008   1.472   1.589  0.2747 -0.2533  0.4158
   35MOL    C9911047   3.042   1.348   1.667  0.2060 -0.2284  1.1287
   35MOL   C10011048   3.003   1.450   1.432 -0.3853 -0.3135  0.0510
   35MOL   C10111049   2.858   1.412   1.394 -0.4464 -0.2872 -0.0691
   35MOL   C10211050   2.805   1.274   1.427  0.1005  0.5415 -0.0696
   35MOL   C10311051   2.777   1.506   1.337 -0.5768  0.1887 -0.1200
   35MOL   H10411052   2.908   1.483   1.632 -0.4737 -0.1953 -1.2897
   35MOL   H10511053   2.995   1.352   1.765  0.5663  1.1656  1.2553
   35MOL   H10611054   3.148   1.340   1.690  0.8138  3.0037 -0.2507
   35MOL   H10711055   3.013   1.251   1.627 -2.5968  1.6417 -1.6785
   35MOL   H10811056   3.016   1.551   1.393 -0.1435 -0.8466 -1.2893
   35MOL   H10911057   2.795   1.261   1.535  1.5367  1.5122  0.1947
   35MOL   H11011058   2.866   1.192   1.388  1.5919  1.2766  0.6799
   35MOL   H11111059   2.704   1.271   1.386  0.2674  0.3532 -0.4701
   35MOL   H11211060   2.822   1.603   1.323  0.1568 -0.0597  0.5043
   35MOL   H11311061   2.673   1.492   1.311 -0.9098  1.2326  0.5980
   35MOL   C11411062   3.110   1.361   1.363  0.2753 -0.4363  0.4452
   35MOL   C11511063   3.255   1.402   1.406 -0.5560 -0.3679  0.2812
   35MOL   C11611064   3.089   1.346   1.210 -0.1785 -0.3652  0.3975
   35MOL   C11711065   3.101   1.197   1.177  0.5885 -0.0549  0.6307
   35MOL   C11811066   2.975   1.130   1.119  0.1384 -0.5390 -0.0745
   35MOL   C11911067   3.211   1.127   1.201 -0.0813  0.2188 -0.8524
   35MOL   H12011068   3.082   1.269   1.413 -0.6570 -1.1387 -1.3192
   35MOL   H12111069   3.318   1.388   1.319 -0.9797 -2.0837  0.2253
   35MOL   H12211070   3.296   1.327   1.474  0.3860 -2.2951 -2.3140
   35MOL   H12311071   3.261   1.503   1.445 -0.5512 -0.6463  1.0089
   35MOL   H12411072   2.983   1.364   1.192  0.3561  2.0098 -0.4490
   35MOL   H12511073   2.967   1.025   1.148 -1.0842 -0.0720  1.2983
   35MOL   H12611074   2.982   1.133   1.010 -0.1557  0.2783 -0.0693
   35MOL   H12711075   2.890   1.193   1.145  0.5163 -0.0938  0.0920
   35MOL   H12811076   3.297   1.178   1.243 -0.5343  0.5457 -0.3115
   35MOL   H12911077   3.213   1.020   1.183  0.3289 -0.0655  0.7606
   35MOL   C13011078   3.170   1.433   1.104  0.1085  0.0720  0.1576
   35MOL   C13111079   3.214   1.574   1.148  0.4093  0.6023 -0.4569
   35MOL   C13211080   3.095   1.422   0.959 -0.1021  0.3079  0.0397
   35MOL   C13311081   3.204   1.403   0.848  0.0034 -0.4824  0.5439
   35MOL   C13411082   3.210   1.270   0.786 -0.4000 -0.2107 -0.3920
   35MOL   C13511083   3.297   1.501   0.817 -0.0583  0.0653  0.0879
   35MOL   H13611084   3.266   1.383   1.092  0.2824  0.0179  1.6321
   35MOL   H13711085   3.306   1.582   1.206 -0.7866  0.9160  1.4627
   35MOL   H13811086   3.132   1.636   1.183  0.8160  1.3380 -0.8046
   35MOL   H13911087   3.240   1.642   1.068 -0.9005  1.2342 -0.3548
   35MOL   H14011088   3.046   1.325   0.965  0.7506 -0.1548 -0.3752
   35MOL   H14111089   3.225   1.186   0.853  0.9373  0.7023  0.4924
   35MOL   H14211090   3.288   1.266   0.710 -0.3911 -1.3208 -0.3274
   35MOL   H14311091   3.114   1.261   0.735 -2.0567  0.6395  2.4496
   35MOL   H14411092   3.294   1.601   0.858  1.5853  0.1622  0.0207
   35MOL   H14511093   3.373   1.489   0.741 -0.6158  0.3512 -0.5317
   35MOL   C14611094   2.997   1.530   0.924 -0.2847  0.1877 -0.7662
   35MOL   C14711095   2.884   1.540   1.031  0.3997 -0.0295  0.3690
   35MOL   C14811096   2.944   1.534   0.777  0.1205 -0.1357  0.3448
   35MOL   C14911097   2.940   1.689   0.753 -0.2570 -0.6134 -0.1577
   35MOL   C15011098   3.066   1.755   0.696 -0.7524 -0.0070  0.3337
   35MOL   C15111099   2.830   1.763   0.776  0.5002  0.9717 -0.3797
   35MOL   H15211100   3.060   1.618   0.938 -0.1456 -0.3380  2.2021
   35MOL   H15311101   2.809   1.615   1.002 -1.5516 -2.4029 -0.9160
   35MOL   H15411102   2.928   1.568   1.126  4.7794 -2.5371 -0.8162
   35MOL   H15511103   2.823   1.450   1.041  0.6431 -0.6078 -2.8549
   35MOL   H15611104   3.018   1.505   0.702  1.1377 -1.9430  1.9870
   35MOL   H15711105   3.079   1.715   0.595  0.5561  1.2394 -0.0072
   35MOL   H15811106   3.163   1.749   0.745 -0.9292  2.4870  1.0646
   35MOL   H15911107   3.041   1.861   0.696 -2.1226 -0.3170  0.4884
   35MOL   H16011108   2.747   1.715   0.826  1.0558  0.0722 -0.3110
   35MOL   H16111109   2.811   1.867   0.755 -0.4304  1.0230  0.7030
   35MOL   C16211110   2.813   1.450   0.746 -1.1343  0.4057 -1.2292
   35MOL   C16311111   2.834   1.292   0.763 -0.4011 -0.3612  0.0439
   35MOL   C16411112   2.729   1.482   0.609  0.4159 -0.0636  0.3598
   35MOL   C16511113   2.819   1.517   0.491 -0.5617  0.0253 -0.3608
   35MOL   C16611114   2.893   1.395   0.441  0.2495  0.7594 -0.1208
   35MOL   C16711115   2.831   1.637   0.431  0.3394  0.6674 -0.5201
   35MOL   H16811116   2.749   1.483   0.829 -1.2337 -1.3268 -0.5958
   35MOL   H16911117   2.872   1.252   0.857  1.5316  0.7187 -0.2734
   35MOL   H17011118   2.904   1.252   0.689  1.0354  0.3941  0.9812
   35MOL   H17111119   2.737   1.244   0.747 -1.2663  1.1814  0.5563
   35MOL   H17211120   2.694   1.384   0.576 -1.4990  1.2389 -1.6375
   35MOL   H17311121   2.939   1.402   0.342 -3.8437  0.4641 -2.1416
   35MOL   H17411122   2.834   1.304   0.437  2.2668 -0.5510 -1.4252
   35MOL   H17511123   2.978   1.369   0.505  0.9888 -2.0160 -2.1407
   35MOL   H17611124   2.787   1.728   0.470  0.0592 -0.7272  2.5983
   35MOL   H17711125   2.889   1.647   0.341  0.5040  1.2331 -0.3532
   35MOL   C17811126   2.580   1.545   0.615 -0.3471 -0.3029  0.2909
   35MOL   C17911127   2.507   1.528   0.747  0.0855  0.2057 -0.3119
   35MOL   C18011128   2.491   1.522   0.484  0.2651  0.1849 -0.6683
   35MOL   C18111129   2.410   1.647   0.449 -0.7002  0.0354 -0.1099
   35MOL   C18211130   2.463   1.736   0.341 -0.2132  0.3891 -0.2174
   35MOL   C18311131   2.302   1.681   0.521  0.4681 -0.4804 -0.5775
   35MOL   H18411132   2.607   1.650   0.603  1.2336 -0.7135  0.0685
   35MOL   H18511133   2.468   1.429   0.771  2.7252 -0.5198  1.2960
   35MOL   H18611134   2.417   1.589   0.738 -1.1434 -1.6378 -0.7831
   35MOL   H18711135   2.566   1.556   0.834  0.7203  0.2780 -0.7672
   35MOL   H18811136   2.561   1.514   0.401  0.7320  0.8740 -0.3487
   35MOL   H18911137   2.505   1.671   0.265 -2.4193 -2.1555  0.6901
   35MOL   H19011138   2.527   1.816   0.379 -0.8906  1.0252 -0.3975
   35MOL   H19111139   2.376   1.783   0.296 -0.1761  0.8529  0.1867
   35MOL   H19211140   2.252   1.634   0.605 -0.0497  0.8082 -0.1494
   35MOL   H19311141   2.258   1.776   0.496  1.4198  0.3519  0.8274
   35MOL   C19411142   2.405   1.395   0.478  0.0450  0.2707 -0.5157
   35MOL   C19511143   2.475   1.255   0.522 -0.3336 -0.0313  0.1479
   35MOL   C19611144   2.322   1.378   0.348 -0.3485 -0.9855 -0.1548
   35MOL   C19711145   2.190   1.322   0.383  0.2907  0.1809  0.3592
   35MOL   C19811146   2.084   1.426   0.418  0.4343 -0.8315 -0.0245
   35MOL   C19911147   2.157   1.194   0.411  0.0061  0.4436  0.4782
   35MOL   H20011148   2.345   1.403   0.569  0.0951 -1.4171 -0.3123
   35MOL   H20111149   2.397   1.178   0.526  0.2715 -0.6762 -0.3387
   35MOL   H20211150   2.530   1.258   0.616  0.5231  0.1597 -0.3603
   35MOL   H20311151   2.557   1.239   0.453  1.6950  3.7598  1.5257
   35MOL   H20411152   2.312   1.479   0.310  1.1685 -1.0561 -0.7870
   35MOL   H20511153   2.111   1.529   0.394 -0.1239 -0.9204 -1.0370
   35MOL   H20611154   2.081   1.427   0.527  0.3740 -1.7468 -0.0102
   35MOL   H20711155   1.985   1.400   0.380  0.1509  0.1041  0.0697
   35MOL   H20811156   2.222   1.108   0.412 -0.4669  0.0883  0.9890
   35MOL   H20911157   2.054   1.176   0.437  0.1130  1.2341  1.4742
   35MOL   C21011158   2.396   1.303   0.226 -0.1132 -0.4891 -0.0349
   35MOL   C21111159   2.528   1.367   0.176  0.4126 -0.0505  0.1267
   35MOL   C21211160   2.307   1.265   0.101  0.8868 -0.7859 -0.2224
   35MOL   C21311161   2.339   1.123   0.055  0.7766  0.1416 -0.1257
   35MOL   C21411162   2.460   1.106   7.865  0.3292 -0.1916 -0.2778
   35MOL   C21511163   2.260   1.021   0.090  0.5340  0.7275 -0.1233
   35MOL   H21611164   2.420   1.208   0.273  0.2565  1.1969  3.3563
   35MOL   H21711165   2.553   1.330   0.077 -0.5073  1.1974 -0.5906
   35MOL   H21811166   2.608   1.337   0.244 -0.2232  2.0287  1.8510
   35MOL   H21911167   2.514   1.474   0.163 -1.6935 -0.1925  1.0194
   35MOL   H22011168   2.208   1.246   0.142  1.1695 -0.0050  0.8521
   35MOL   H22111169   2.542   1.136   0.037  0.1624  0.8771 -0.5528
   35MOL   H22211170   2.464   1.161   7.771 -2.0016 -0.4292 -0.5412
   35MOL   H22311171   2.477   0.998   7.856 -2.1073 -0.4975 -1.5437
   35MOL   H22411172   2.178   1.040   0.158  0.3989  0.6665 -0.2708
   35MOL   H22511173   2.272   0.918   0.061  0.8107  0.7571 -0.1200
   35MOL   C22611174   2.293   1.371   7.881 -0.0567  0.3685 -0.0311
   35MOL   C22711175   2.274   1.522   0.033  0.1655 -0.5463 -0.2141
   35MOL   C22811176   2.184   1.312   7.777 -0.7391  0.1514 -0.0330
   35MOL   C22911177   2.254   1.314   7.636 -0.4653  0.2356 -0.6587
   35MOL   C23011178   2.281   1.441   7.564 -0.3463 -0.4202 -0.1614
   35MOL   C23111179   2.285   1.202   7.577  0.1842  0.0504  0.1799
   35MOL   H23211180   2.386   1.371   7.824  0.4070 -2.4576  0.6336
   35MOL   H23311181   2.222   1.586   7.855 -2.3811 -2.5268 -0.1747
   35MOL   H23411182   2.372   1.569   0.021  0.2399  0.2321  2.9156
   35MOL   H23511183   2.222   1.527   0.129  0.8264  2.1025  0.0357
   35MOL   H23611184   2.175   1.204   7.787  0.0341  0.0175 -0.7015
   35MOL   H23711185   2.385   1.471   7.579 -0.2337 -0.6713 -0.4278
   35MOL   H23811186   2.223   1.522   7.609 -1.4414 -0.0437 -2.1812
   35MOL   H23911187   2.261   1.428   7.457 -0.0345  1.3457 -0.4536
   35MOL   H24011188   2.267   1.104   7.620 -2.0763 -0.1919 -1.2397
   35MOL   H24111189   2.334   1.199   7.480  0.7420 -1.7528  0.5031
   35MOL   C24211190   2.032   1.369   7.776  0.0112 -0.0025  0.3042
   35MOL   C24311191   1.968   1.358   0.026  0.4911  0.0766  0.6364
   35MOL   C24411192   1.940   1.303   7.665 -0.5577 -0.1585 -0.6911
   35MOL   C24511193   1.843   1.413   7.612 -0.3011 -0.5848 -0.2171
   35MOL   C24611194   1.885   1.476   7.483 -0.8929 -0.7765 -0.4326
   35MOL   C24711195   1.733   1.443   7.675 -0.2454  0.0029 -0.2444
   35MOL   H24811196   2.034   1.475   7.755  1.9752 -0.5507 -2.4724
   35MOL   H24911197   1.973   1.254   0.058  2.0745  0.8892  3.1404
   35MOL   H25011198   1.868   1.399   0.013  1.5297  2.0601 -1.4388
   35MOL   H25111199   2.022   1.417   0.098  0.3498 -2.4820  2.9232
   35MOL   H25211200   2.005   1.296   7.577  0.8943  0.6759  0.2928
   35MOL   H25311201   1.993   1.497   7.484 -1.0263 -0.0811  0.5383
   35MOL   H25411202   1.827   1.565   7.459  1.4367  1.2332  1.0615
   35MOL   H25511203   1.861   1.413   7.398 -1.7780 -1.2909  0.1923
   35MOL   H25611204   1.716   1.391   7.768  1.4369  1.1402  0.7217
   35MOL   H25711205   1.660   1.519   7.651  1.9729  2.6839  1.1448
   35MOL   C25811206   1.868   1.161   7.686  0.3707 -0.0666  0.0242
   35MOL   C25911207   1.955   1.046   7.736  0.4417 -1.0297 -0.2173
   35MOL   C26011208   1.768   1.121   7.566 -0.2511  0.7930  0.4659
   35MOL   C26111209   1.636   1.077   7.629  0.6800 -0.2820 -0.2640
   35MOL   C26211210   1.616   0.946   7.705  0.5791 -0.1367 -0.7440
   35MOL   C26311211   1.531   1.170   7.637  0.3301  0.2124 -0.0109
   35MOL   H26411212   1.806   1.184   7.773  1.3870  1.5903  0.3429
   35MOL   H26511213   2.052   1.035   7.687 -0.3824 -1.5827 -1.7574
   35MOL   H26611214   1.899   0.954   7.721  1.0096 -1.6955  1.5829
   35MOL   H26711215   1.973   1.061   7.842  0.9288 -0.0703 -0.4338
   35MOL   H26811216   1.751   1.209   7.504  0.4961  0.4841 -0.1866
   35MOL   H26911217   1.510   0.937   7.730  0.3123  0.2464 -1.7261
   35MOL   H27011218   1.679   0.952   7.794  0.7741  0.3093 -0.9110
   35MOL   H27111219   1.645   0.858   7.647 -0.0648 -0.0977 -1.1299
   35MOL   H27211220   1.545   1.265   7.586  2.9849  1.0212  2.1185
   35MOL   H27311221   1.442   1.164   7.697  0.0932  1.4860 -0.2159
   35MOL   C27411222   1.830   1.024   7.458 -0.1055  0.4048 -0.6320
   35MOL   C27511223   1.957   1.079   7.393  0.1163 -0.0481 -0.3912
   35MOL   C27611224   1.733   0.961   7.355 -0.0198 -0.7449  0.2089
   35MOL   C27711225   1.784   0.821   7.315  0.4385  0.0736  0.1866
   35MOL   C27811226   1.749   0.704   7.402  0.1159  0.0137  0.0679
   35MOL   C27911227   1.872   0.800   7.215  0.4302  0.8938  0.2186
   35MOL   H28011228   1.859   0.931   7.506 -2.6176 -0.6045 -0.9782
   35MOL   H28111229   2.008   1.005   7.331  0.5311  0.0357 -0.1564
   35MOL   H28211230   2.037   1.099   7.464  0.3223  1.7534 -1.1109
   35MOL   H28311231   1.943   1.175   7.344  1.6231  0.6313  0.4555
   35MOL   H28411232   1.639   0.945   7.407 -0.1182 -2.7541 -0.5294
   35MOL   H28511233   1.766   0.608   7.353 -0.2210  0.3506 -0.7265
   35MOL   H28611234   1.648   0.719   7.440  0.4837 -1.6033  1.7249
   35MOL   H28711235   1.817   0.705   7.486  0.0144  0.7368  0.1433
   35MOL   H28811236   1.889   0.884   7.150  1.8274 -0.5033 -1.2591
   35MOL   H28911237   1.906   0.698   7.201  1.4693  1.5216 -2.0205
   35MOL   C29011238   1.689   1.050   7.229 -0.1407 -0.0142  0.1028
   35MOL   C29111239   1.650   1.195   7.254 -0.4137  0.2745 -0.8664
   35MOL   C29211240   1.587   0.979   7.131 -0.3200 -0.2120 -0.0942
   35MOL   C29311241   1.646   0.988   6.983  0.4715  0.3079 -0.7300
   35MOL   C29411242   1.680   1.127   6.923  0.5628  0.0956  0.3552
   35MOL   C29511243   1.676   0.880   6.911 -0.0164 -0.3928 -0.9016
   35MOL   H29611244   1.778   1.069   7.169 -1.2940  0.2041 -1.5425
   35MOL   H29711245   1.728   1.254   7.302  0.7300 -1.0329 -1.0975
   35MOL   H29811246   1.558   1.187   7.313 -0.2920  0.3052 -0.6705
   35MOL   H29911247   1.626   1.238   7.157  0.4147  1.3752 -0.5819
   35MOL   H30011248   1.590   0.870   7.135 -1.6846 -0.2923 -0.8378
   35MOL   H30111249   1.758   1.186   6.971  0.7054 -0.2310  0.5236
   35MOL   H30211250   1.587   1.184   6.927 -0.0849 -0.9859  0.8543
   35MOL   H30311251   1.717   1.121   6.820 -0.8998  1.5915 -0.2761
   35MOL   H30411252   1.659   0.783   6.955  3.0625  0.0472  1.4098
   35MOL   H30511253   1.724   0.880   6.815  2.1067 -0.4631  0.1351
   35MOL   C30611254   1.440   1.013   7.135 -0.1908 -0.1624 -0.2357
   35MOL   C30711255   1.377   0.972   7.270  0.4316  0.1507  0.8846
   35MOL   C30811256   1.353   0.941   7.026 -0.4045 -0.2053  0.0078
   35MOL   C30911257   1.204   0.983   7.019  0.0078 -0.0129 -0.0139
   35MOL   C31011258   1.173   1.112   6.954 -0.0629 -0.1054  0.2792
   35MOL   C31111259   1.113   0.898   7.060 -0.5326  0.3903 -0.0731
   35MOL   H31211260   1.420   1.119   7.121  1.6415  0.4683  1.6423
   35MOL   H31311261   1.443   0.999   7.352  2.2301 -0.8572 -0.1945
   35MOL   H31411262   1.375   0.863   7.280 -0.8598  0.0457 -0.3344
   35MOL   H31511263   1.277   1.011   7.283 -0.4282 -0.5336 -2.9891
   35MOL   H31611264   1.400   0.962   6.930  0.6583 -1.0013  0.3475
   35MOL   H31711265   1.205   1.094   6.852 -0.8926 -1.9886  0.3321
   35MOL   H31811266   1.230   1.191   7.004 -1.0805  0.4064  0.6371
   35MOL   H31911267   1.068   1.139   6.965 -0.1837  0.6897 -2.3881
   35MOL   H32011268   1.143   0.801   7.099  1.2426  1.3434  0.9842
   35MOL   H32111269   1.009   0.926   7.062 -0.6119  0.1197 -0.4053
   35MOL   H32211270   1.367   0.833   7.031 -0.4281 -0.1926  0.3667
   36MOL     C111271   6.602   0.406   7.529  0.5434  0.3469 -1.0251
   36MOL     C211272   6.489   0.314   7.471 -0.9133  0.3792 -0.1943
   36MOL     C311273   6.576   0.558   7.524 -0.4429 -0.3013  0.1270
   36MOL     C411274   6.562   0.600   7.377  0.1167 -0.4084 -0.4771
   36MOL     C511275   6.681   0.592   7.280 -0.0863  0.5280  0.6918
   36MOL     C611276   6.437   0.640   7.338  0.2695 -0.0597 -0.2875
   36MOL     H711277   6.597   0.377   7.634 -1.6105 -3.7257 -2.1639
   36MOL     H811278   6.493   0.307   7.363 -1.6535 -3.3061 -0.0360
   36MOL     H911279   6.390   0.340   7.508 -1.2806 -1.4568  0.1598
   36MOL    H1011280   6.516   0.215   7.507 -1.4100  0.3608  0.1478
   36MOL    H1111281   6.478   0.562   7.572 -0.5478 -0.6998 -0.0526
   36MOL    H1211282   6.646   0.615   7.179  0.1303  0.6222  0.6399
   36MOL    H1311283   6.733   0.496   7.274 -1.5774 -0.2089 -1.3419
   36MOL    H1411284   6.750   0.669   7.313  1.8005 -0.1134 -1.6447
   36MOL    H1511285   6.348   0.639   7.399 -0.0766 -3.7714 -0.7195
   36MOL    H1611286   6.421   0.662   7.233  1.8422  1.8273 -0.1476
   36MOL    H1711287   6.699   0.382   7.486 -0.5869  0.7830 -3.9094
   36MOL    C1811288   6.693   0.637   7.600  0.2715  0.8195 -0.4138
   36MOL    C1911289   6.731   0.571   7.732 -0.0278 -0.1026  0.1666
   36MOL    C2011290   6.671   0.788   7.627  0.7527  0.0464 -0.1162
   36MOL    C2111291   6.810   0.858   7.636  0.3718 -0.6190  0.3855
   36MOL    C2211292   6.870   0.897   7.503 -0.0312 -0.5008 -0.3787
   36MOL    C2311293   6.876   0.892   7.747  0.3176 -0.2461 -0.3736
   36MOL    H2411294   6.780   0.639   7.534  0.1683 -0.0144 -0.5780
   36MOL    H2511295   6.652   0.538   7.799 -1.8000  0.1995 -1.7266
   36MOL    H2611296   6.813   0.628   7.777  1.7789 -0.7501 -2.1725
   36MOL    H2711297   6.794   0.484   7.713  1.0643  0.5012  0.9841
   36MOL    H2811298   6.628   0.835   7.538  1.9109  0.6049 -0.4042
   36MOL    H2911299   6.966   0.948   7.506  0.4080 -1.3178 -0.2797
   36MOL    H3011300   6.801   0.954   7.441 -0.3384 -1.3492 -0.8225
   36MOL    H3111301   6.904   0.810   7.446  2.2490  0.0074  0.1433
   36MOL    H3211302   6.843   0.880   7.849  1.0779  0.5345 -0.0238
   36MOL    H3311303   6.973   0.941   7.751  0.4761 -0.7504  2.8282
   36MOL    C3411304   6.578   0.835   7.749  0.4263  1.1320 -0.1710
   36MOL    C3511305   6.441   0.762   7.754 -0.4136 -0.6298 -0.3651
   36MOL    C3611306   6.558   0.994   7.763  0.2325  0.5961  0.5778
   36MOL    C3711307   6.566   1.038   0.019  0.0388  0.7907  0.6413
   36MOL    C3811308   6.450   1.012   0.111 -0.3070 -0.4174  0.9642
   36MOL    C3911309   6.678   1.088   0.069 -0.0446 -0.7289 -0.1174
   36MOL    H4011310   6.633   0.805   7.837  0.5225  0.8227 -0.3366
   36MOL    H4111311   6.368   0.814   7.816  0.9958  0.3575  0.4778
   36MOL    H4211312   6.459   0.664   7.798  1.9304  0.1323  0.4199
   36MOL    H4311313   6.390   0.744   7.659  1.9096  0.3674 -1.8459
   36MOL    H4411314   6.645   1.044   7.719 -0.2566  2.7404  1.9820
   36MOL    H4511315   6.434   0.911   0.148 -1.6738 -0.2137  0.9794
   36MOL    H4611316   6.360   1.053   0.064  0.6154  0.2086 -0.2964
   36MOL    H4711317   6.468   1.079   0.195 -1.1981 -0.1861  0.9853
   36MOL    H4811318   6.772   1.107   0.020  0.8443 -2.3427  0.8975
   36MOL    H4911319   6.673   1.122   0.172 -0.9387 -0.3481 -0.2810
   36MOL    C5011320   6.441   1.053   7.683  0.0579  0.4948 -0.3874
   36MOL    C5111321   6.426   1.018   7.532  0.0339 -0.4654  0.6716
   36MOL    C5211322   6.407   1.203   7.707 -0.3353  0.0509 -0.2291
   36MOL    C5311323   6.275   1.222   7.781  0.0156 -0.0667  0.1763
   36MOL    C5411324   6.275   1.334   7.884 -0.6053 -0.1726 -0.2380
   36MOL    C5511325   6.168   1.149   7.752 -0.8985 -0.0519  0.3348
   36MOL    H5611326   6.358   0.991   7.717  1.5844 -0.8002  1.0549
   36MOL    H5711327   6.325   1.046   7.501 -0.0321 -0.2238  1.0969
   36MOL    H5811328   6.431   0.913   7.504 -1.0854 -0.3245 -0.1002
   36MOL    H5911329   6.485   1.078   7.462 -1.1214  1.2461  1.1335
   36MOL    H6011330   6.479   1.229   7.784 -1.3233  0.0891  0.6878
   36MOL    H6111331   6.302   1.425   7.830  0.7074 -1.1284 -1.2422
   36MOL    H6211332   6.344   1.322   0.076 -0.0316  1.0891 -0.5259
   36MOL    H6311333   6.181   1.337   0.045 -1.6473 -0.4061 -2.0336
   36MOL    H6411334   6.166   1.071   7.676  0.9717 -0.2954  0.5039
   36MOL    H6511335   6.072   1.154   7.801 -1.0202 -0.1354  0.1036
   36MOL    C6611336   6.426   1.310   7.590 -0.4617 -0.1079  0.4272
   36MOL    C6711337   6.334   1.301   7.469  0.4445  0.6584  0.3021
   36MOL    C6811338   6.582   1.338   7.559  0.1422  0.0152  0.3316
   36MOL    C6911339   6.658   1.369   7.688 -0.6271 -0.6074  0.1259
   36MOL    C7011340   6.609   1.483   7.779 -0.7851 -0.1865 -0.3821
   36MOL    C7111341   6.771   1.307   7.716 -0.5453  0.3824 -0.4828
   36MOL    H7211342   6.390   1.401   7.637 -0.6077 -1.3302  2.7318
   36MOL    H7311343   6.315   1.394   7.416 -3.8771 -0.1958  0.1660
   36MOL    H7411344   6.237   1.265   7.503  0.2816  0.4565 -0.3894
   36MOL    H7511345   6.373   1.239   7.389  1.1205 -1.0438  1.8935
   36MOL    H7611346   6.609   1.235   7.537 -1.2360 -0.4711  0.8430
   36MOL    H7711347   6.502   1.505   7.778 -0.7196  0.1298 -0.6756
   36MOL    H7811348   6.664   1.577   7.767 -0.9630 -0.3752 -3.1855
   36MOL    H7911349   6.645   1.457   7.878  0.2058  1.2484 -0.3512
   36MOL    H8011350   6.812   1.233   7.649  2.3020  1.8207 -0.4088
   36MOL    H8111351   6.825   1.340   7.804 -0.2910 -0.9557 -0.1323
   36MOL    C8211352   6.615   1.453   7.457  0.3371 -0.5226 -0.0127
   36MOL    C8311353   6.535   1.582   7.480  0.4509  0.1889  0.1941
   36MOL    C8411354   6.607   1.410   7.307  0.1850  0.4102 -0.6731
   36MOL    C8511355   6.682   1.273   7.276  0.2660 -0.0978  0.0776
   36MOL    C8611356   6.631   1.197   7.152 -0.1224  0.0400  0.3026
   36MOL    C8711357   6.782   1.218   7.349 -1.0761 -0.0518  0.0318
   36MOL    H8811358   6.718   1.487   7.465  0.3267 -0.0599 -1.6793
   36MOL    H8911359   6.580   1.667   7.428 -0.1726  1.6221  1.9728
   36MOL    H9011360   6.522   1.617   7.582 -0.2583 -0.0695  0.1951
   36MOL    H9111361   6.434   1.557   7.448  0.2921  2.0948 -0.8523
   36MOL    H9211362   6.509   1.371   7.279  0.3737  0.5011 -1.4589
   36MOL    H9311363   6.594   1.097   7.173  1.1091 -0.5260 -0.1782
   36MOL    H9411364   6.714   1.190   7.082  0.1535 -2.2217  0.8284
   36MOL    H9511365   6.555   1.250   7.095  0.0621 -0.8847 -0.8115
   36MOL    H9611366   6.826   1.254   7.441 -2.2468 -2.6543  1.6942
   36MOL    H9711367   6.808   1.118   7.319  1.2279  0.4497  0.3076
   36MOL    C9811368   6.648   1.519   7.199  0.2182 -0.2782  0.6624
   36MOL    C9911369   6.557   1.515   7.076  0.4152 -0.0399  0.1798
   36MOL   C10011370   6.799   1.533   7.172  1.2492 -0.2618 -0.1948
   36MOL   C10111371   6.893   1.550   7.292 -0.3758  0.4818 -0.1772
   36MOL   C10211372   6.894   1.690   7.357  0.5556  0.5176  0.2726
   36MOL   C10311373   6.978   1.454   7.327  0.2340 -0.3944  0.4589
   36MOL   H10411374   6.624   1.617   7.239  0.5147  0.6885 -1.4696
   36MOL   H10511375   6.595   1.452   6.996  1.6282 -1.5789  1.9486
   36MOL   H10611376   6.547   1.614   7.032  0.7735 -0.2105 -0.2905
   36MOL   H10711377   6.457   1.474   7.088 -0.0860  0.8408 -0.8294
   36MOL   H10811378   6.825   1.437   7.127  1.3010  0.4503 -1.7338
   36MOL   H10911379   6.793   1.717   7.387  0.4297  0.9742 -0.5444
   36MOL   H11011380   6.943   1.770   7.300  2.1675 -0.7202 -0.0965
   36MOL   H11111381   6.950   1.681   7.449  1.1648  1.3932 -0.0033
   36MOL   H11211382   6.981   1.365   7.266 -0.2874  0.5096 -0.9010
   36MOL   H11311383   7.050   1.471   7.406 -1.6350 -0.2241  2.1617
   36MOL   C11411384   6.848   1.621   7.050 -0.1992  0.3730  1.1120
   36MOL   C11511385   6.781   1.758   7.057  0.4116  0.4392  0.1329
   36MOL   C11611386   6.864   1.551   6.905  0.3348 -0.1528 -0.4263
   36MOL   C11711387   6.949   1.418   6.904  0.1621  0.5747 -0.0881
   36MOL   C11811388   6.917   1.306   6.805  0.9191  1.1272 -0.1183
   36MOL   C11911389   7.055   1.394   6.981  0.4175 -0.2500 -0.7845
   36MOL   H12011390   6.953   1.644   7.068 -0.0048  1.0989 -0.7754
   36MOL   H12111391   6.780   1.799   7.158 -0.4720 -2.3381  1.2817
   36MOL   H12211392   6.678   1.766   7.022  0.2178  2.0020  0.9902
   36MOL   H12311393   6.849   1.828   7.008 -0.3573  1.0640 -0.0600
   36MOL   H12411394   6.763   1.523   6.874 -1.0833  2.3064  1.8110
   36MOL   H12511395   6.828   1.248   6.831  2.6177 -1.7475 -0.4056
   36MOL   H12611396   6.992   1.226   6.802  0.9040  1.0731  0.8528
   36MOL   H12711397   6.903   1.351   6.707 -1.8811 -0.3606 -0.4503
   36MOL   H12811398   7.100   1.466   7.047 -1.1596 -1.2840  1.4866
   36MOL   H12911399   7.104   1.297   6.979 -0.4173 -0.6704 -1.0908
   36MOL   C13011400   6.915   1.635   6.779 -0.2654 -0.0152 -0.2754
   36MOL   C13111401   7.048   1.705   6.822 -0.1099 -0.6848  0.2999
   36MOL   C13211402   6.820   1.742   6.709  0.2248  0.2141 -0.0361
   36MOL   C13311403   6.679   1.699   6.688 -0.8383  0.4650 -0.4329
   36MOL   C13411404   6.570   1.804   6.710 -1.0998 -0.0849 -0.1256
   36MOL   C13511405   6.639   1.576   6.643  0.1691  0.1208  0.3720
   36MOL   H13611406   6.939   1.568   6.697 -2.4255 -1.9920  0.6553
   36MOL   H13711407   7.102   1.659   6.905 -0.1562  1.4994  1.5953
   36MOL   H13811408   7.039   1.811   6.845 -1.0197 -0.4148 -1.2287
   36MOL   H13911409   7.114   1.719   6.737  0.7587 -0.8966  0.9367
   36MOL   H14011410   6.807   1.814   6.791  1.4838  0.9966 -0.4982
   36MOL   H14111411   6.562   1.846   6.810  1.6320  1.1974 -0.3916
   36MOL   H14211412   6.477   1.750   6.695 -0.2336 -1.2425 -1.5446
   36MOL   H14311413   6.578   1.886   6.638 -0.5577 -0.1968 -0.1992
   36MOL   H14411414   6.715   1.506   6.612  0.4382  1.6941 -2.6891
   36MOL   H14511415   6.541   1.538   6.623  0.4127  0.0172 -0.6220
   36MOL   C14611416   6.876   1.817   6.582 -0.1207 -0.6034  0.1104
   36MOL   C14711417   6.819   1.962   6.541  0.1776  0.4657 -0.5090
   36MOL   C14811418   6.922   1.726   6.457  0.0248  0.7243  0.1531
   36MOL   C14911419   7.068   1.754   6.432  0.5575  0.1703 -0.3189
   36MOL   C15011420   7.175   1.654   6.486  0.0933 -0.0966  0.2345
   36MOL   C15111421   7.106   1.858   6.358  0.0690 -0.0218  0.0936
   36MOL   H15211422   6.962   1.854   6.638 -3.0412  0.1025  4.3342
   36MOL   H15311423   6.893   1.998   6.470  2.3682 -0.8274  1.0874
   36MOL   H15411424   6.809   2.024   6.630  0.0382 -1.1166  0.6149
   36MOL   H15511425   6.722   1.954   6.491 -0.0158 -3.5492  0.3361
   36MOL   H15611426   6.916   1.622   6.487  1.4805  0.7449  0.5811
   36MOL   H15711427   7.222   1.704   6.571 -2.0164  4.3634 -1.1052
   36MOL   H15811428   7.254   1.655   6.412  0.2144  0.9010  0.3768
   36MOL   H15911429   7.133   1.554   6.502 -0.7046 -0.1999 -2.3527
   36MOL   H16011430   7.036   1.930   6.319  1.6014  1.7014  0.4299
   36MOL   H16111431   7.208   1.876   6.327 -0.0640  0.6850  0.0701
   36MOL   C16211432   6.837   1.740   6.325  0.0244  0.0103 -0.9266
   36MOL   C16311433   6.688   1.709   6.351 -0.0141 -0.3648  0.4808
   36MOL   C16411434   6.890   1.650   6.209  0.3321 -0.7370 -0.9821
   36MOL   C16511435   6.868   1.721   6.074 -0.2794 -0.0933  0.8914
   36MOL   C16611436   6.978   1.815   6.042 -0.2671 -0.1341  0.5538
   36MOL   C16711437   6.759   1.716   5.994 -0.5921 -0.2802  0.2617
   36MOL   H16811438   6.840   1.847   6.302  0.0653  0.7885  2.3854
   36MOL   H16911439   6.638   1.782   6.414  0.0567  3.6015 -3.7239
   36MOL   H17011440   6.666   1.611   6.393  3.2402 -0.9110  1.0431
   36MOL   H17111441   6.629   1.722   6.260 -1.3378  0.0573  1.3823
   36MOL   H17211442   6.997   1.638   6.223  0.9813  3.1246 -2.0396
   36MOL   H17311443   6.966   1.915   6.084  1.0438 -0.3745  1.5415
   36MOL   H17411444   6.976   1.840   5.936 -0.5959 -0.6545  0.4351
   36MOL   H17511445   7.080   1.784   6.065 -0.9850 -2.6061  0.5552
   36MOL   H17611446   6.667   1.662   6.011 -0.4418 -0.6958 -0.2437
   36MOL   H17711447   6.767   1.774   5.903  1.4896  0.2280  0.7386
   36MOL   C17811448   6.830   1.504   6.197  0.0689 -0.6226  0.9021
   36MOL   C17911449   6.865   1.418   6.318 -0.3624  0.6442  0.3773
   36MOL   C18011450   6.854   1.421   6.059  0.1057  0.3180 -0.0635
   36MOL   C18111451   6.736   1.322   6.036 -0.9771 -1.4945  0.1126
   36MOL   C18211452   6.752   1.182   6.091 -0.4275  0.1740 -0.7791
   36MOL   C18311453   6.620   1.372   5.981 -0.3776 -0.4098  0.3031
   36MOL   H18411454   6.723   1.527   6.197 -0.0362 -0.9988 -0.8060
   36MOL   H18511455   6.967   1.425   6.355  0.0227  0.6513 -0.6778
   36MOL   H18611456   6.859   1.313   6.289  0.3252  0.6300  0.2800
   36MOL   H18711457   6.810   1.449   6.407 -0.1367 -1.1448  1.1714
   36MOL   H18811458   6.842   1.490   5.976  1.4736  1.8382  0.9571
   36MOL   H18911459   6.708   1.108   6.023  1.6218 -0.8513 -1.0455
   36MOL   H19011460   6.703   1.163   6.186 -0.3865  1.3574 -0.5201
   36MOL   H19111461   6.854   1.145   6.101 -0.5017 -0.2666 -1.5883
   36MOL   H19211462   6.618   1.475   5.947 -0.0302 -0.6964 -0.6110
   36MOL   H19311463   6.529   1.317   5.963 -1.7933  2.4526 -1.6411
   36MOL   C19411464   7.005   1.366   6.029 -0.1986 -0.1316 -0.6106
   36MOL   C19511465   7.123   1.463   6.062 -0.3297  0.6549  0.3942
   36MOL   C19611466   7.026   1.309   5.882  0.8948 -0.1315  0.1866
   36MOL   C19711467   7.106   1.177   5.887 -0.2755  0.2742  0.2243
   36MOL   C19811468   7.262   1.184   5.879 -0.0628  0.1023 -0.0274
   36MOL   C19911469   7.044   1.059   5.876 -0.5766 -0.8603  0.1547
   36MOL   H20011470   7.018   1.273   6.086  1.0693 -0.3003 -1.1614
   36MOL   H20111471   7.139   1.470   6.170  0.1727 -2.7320  0.6139
   36MOL   H20211472   7.116   1.565   6.025  1.8275 -0.4913 -3.4730
   36MOL   H20311473   7.215   1.425   6.016 -1.1899 -0.8645 -0.0861
   36MOL   H20411474   6.924   1.279   5.856  0.5379 -0.3994  1.8371
   36MOL   H20511475   7.286   1.192   5.773 -2.3372 -0.8390 -0.6390
   36MOL   H20611476   7.305   1.090   5.913 -0.7379 -0.4748 -0.7814
   36MOL   H20711477   7.309   1.265   5.936 -1.7429  0.3575  1.0521
   36MOL   H20811478   6.937   1.069   5.868 -0.2213  1.6198 -2.1026
   36MOL   H20911479   7.100   0.967   5.875  0.7856 -0.0483  0.5156
   36MOL   C21011480   7.078   1.396   5.767 -0.6996 -0.5297  0.1645
   36MOL   C21111481   7.010   1.536   5.758  0.5148 -0.3455 -0.8222
   36MOL   C21211482   7.069   1.320   5.626 -0.9282  0.0801  0.4149
   36MOL   C21311483   7.214   1.298   5.561 -0.4575 -0.3049 -0.2380
   36MOL   C21411484   7.235   1.168   5.500  0.2144 -0.2183  0.0107
   36MOL   C21511485   7.320   1.383   5.566 -0.3522 -0.0329  0.2759
   36MOL   H21611486   7.181   1.415   5.796 -0.6014  1.2552 -1.2750
   36MOL   H21711487   7.028   1.596   5.847 -1.4826 -0.0679 -0.5693
   36MOL   H21811488   6.901   1.534   5.753  0.5395 -1.4025 -0.9762
   36MOL   H21911489   7.057   1.602   5.685  1.8008  1.4277  1.5369
   36MOL   H22011490   7.041   1.216   5.643  0.2247 -0.3034  0.0521
   36MOL   H22111491   7.326   1.160   5.440  0.0524 -0.9360 -0.1376
   36MOL   H22211492   7.157   1.152   5.427  1.6725  2.6120 -2.2825
   36MOL   H22311493   7.219   1.092   5.577  0.4588  0.5452  0.8289
   36MOL   H22411494   7.299   1.479   5.612 -1.1469 -0.0553 -0.0317
   36MOL   H22511495   7.421   1.358   5.537 -1.0847  0.7516 -3.0880
   36MOL   C22611496   6.960   1.352   5.511 -0.1980  0.3070 -0.2623
   36MOL   C22711497   6.969   1.497   5.450  0.0603 -0.5446  0.0597
   36MOL   C22811498   6.816   1.312   5.547  0.0617  0.1647  0.4227
   36MOL   C22911499   6.802   1.168   5.600 -0.5945 -0.1577 -0.4616
   36MOL   C23011500   6.858   1.058   5.507  0.3946 -0.2738  0.0831
   36MOL   C23111501   6.735   1.136   5.714  0.0912 -0.0358 -0.6855
   36MOL   H23211502   6.976   1.294   5.421  2.3947  0.9283 -0.2527
   36MOL   H23311503   6.907   1.559   5.515 -1.1749 -1.2637 -0.4324
   36MOL   H23411504   6.950   1.501   5.343  1.0287  0.4911 -0.0886
   36MOL   H23511505   7.071   1.536   5.457  0.5608 -1.2489 -2.9745
   36MOL   H23611506   6.794   1.382   5.628  1.9979  1.3511 -0.0216
   36MOL   H23711507   6.810   0.968   5.544  0.7679  0.1801  1.6964
   36MOL   H23811508   6.964   1.040   5.521  1.3382  4.1414 -0.4377
   36MOL   H23911509   6.847   1.072   5.399  0.5010 -1.2556 -0.0596
   36MOL   H24011510   6.679   1.214   5.763 -1.0780 -0.7697 -0.8241
   36MOL   H24111511   6.730   1.034   5.749 -1.3357  0.6175  1.0970
   36MOL   C24211512   6.700   1.335   5.436  0.4458 -0.6363  0.2588
   36MOL   C24311513   6.754   1.312   5.293 -0.0399  0.0083  0.0010
   36MOL   C24411514   6.636   1.477   5.439  0.8270 -0.2570  0.1851
   36MOL   C24511515   6.579   1.525   5.578 -0.6122  0.1251 -0.1562
   36MOL   C24611516   6.490   1.432   5.668 -1.3958 -0.0085  0.7072
   36MOL   C24711517   6.615   1.645   5.627  0.7353 -0.2351 -0.0524
   36MOL   H24811518   6.620   1.266   5.462  0.7792 -0.9937  0.3528
   36MOL   H24911519   6.830   1.237   5.274  0.6935  0.2027  2.0982
   36MOL   H25011520   6.804   1.398   5.248 -1.3074  2.4737  3.1746
   36MOL   H25111521   6.665   1.278   5.239  0.0256  0.7173 -0.5627
   36MOL   H25211522   6.714   1.550   5.416 -0.7724  1.5665  0.4371
   36MOL   H25311523   6.474   1.477   5.766 -0.1424  1.3143  0.3256
   36MOL   H25411524   6.538   1.336   5.686 -0.0883  0.6699  0.9397
   36MOL   H25511525   6.395   1.417   5.619 -1.0530  0.3598 -0.0769
   36MOL   H25611526   6.673   1.721   5.576  2.1355  0.8579  3.0763
   36MOL   H25711527   6.584   1.678   5.725  2.0110  2.6927 -0.5755
   36MOL   C25811528   6.522   1.505   5.334 -0.4529 -0.3842 -0.5964
   36MOL   C25911529   6.430   1.386   5.312 -0.3347 -0.7435  0.4239
   36MOL   C26011530   6.567   1.565   5.195  0.5816  0.2190  0.8211
   36MOL   C26111531   6.656   1.693   5.206  0.0573  0.1800  0.0563
   36MOL   C26211532   6.604   1.821   5.264  0.0742 -0.4126 -0.2163
   36MOL   C26311533   6.786   1.681   5.185  0.5262  0.2526  0.0050
   36MOL   H26411534   6.459   1.584   5.373 -0.2722 -0.4331 -0.2045
   36MOL   H26511535   6.393   1.336   5.401  0.3496  0.7652  1.5781
   36MOL   H26611536   6.472   1.312   5.243  1.3426 -1.0795  1.7813
   36MOL   H26711537   6.335   1.414   5.266  1.4753  2.9291 -1.2922
   36MOL   H26811538   6.630   1.486   5.155 -0.1099 -0.0912  0.3355
   36MOL   H26911539   6.683   1.890   5.294 -0.3096  0.8459 -2.0525
   36MOL   H27011540   6.544   1.793   5.351 -0.6388  1.1931 -0.1646
   36MOL   H27111541   6.549   1.873   5.186  0.6688  0.2813 -0.1746
   36MOL   H27211542   6.826   1.585   5.157  1.0291  0.0300  1.4744
   36MOL   H27311543   6.853   1.763   5.204  0.2439  0.1498  1.4983
   36MOL   C27411544   6.457   1.596   5.092 -0.2556  0.3451 -0.2398
   36MOL   C27511545   6.334   1.664   5.158 -0.2003  0.3940 -0.0021
   36MOL   C27611546   6.431   1.482   4.986  0.2864  0.4825  0.3255
   36MOL   C27711547   6.561   1.436   4.923  0.2228  0.3968 -0.1991
   36MOL   C27811548   6.573   1.286   4.909  0.3078 -0.1661 -0.1214
   36MOL   C27911549   6.658   1.517   4.872  0.1697  0.2678  0.2332
   36MOL   H28011550   6.497   1.678   5.032  2.6169  1.1655  2.6549
   36MOL   H28111551   6.364   1.721   5.245  0.0888 -1.1921  0.9495
   36MOL   H28211552   6.256   1.592   5.185 -0.2124  0.4514  0.1134
   36MOL   H28311553   6.300   1.730   5.078 -0.7691 -1.7957 -1.6405
   36MOL   H28411554   6.385   1.403   5.045 -1.3020  0.3684 -1.0097
   36MOL   H28511555   6.654   1.241   4.850  0.8353  0.1554  0.3548
   36MOL   H28611556   6.482   1.238   4.873  0.3544  1.4555 -2.5414
   36MOL   H28711557   6.577   1.248   5.011  0.9717 -0.8901 -0.4123
   36MOL   H28811558   6.647   1.623   4.857 -1.1687  0.0601 -0.3546
   36MOL   H28911559   6.747   1.476   4.826  0.6295  0.3325  1.0658
   36MOL   C29011560   6.319   1.517   4.876 -0.0136 -0.3639  0.2258
   36MOL   C29111561   6.351   1.650   4.796  0.1008  0.0283 -0.0187
   36MOL   C29211562   6.174   1.492   4.918 -0.1694  0.4104  0.3968
   36MOL   C29311563   6.145   1.369   5.013 -0.2030  0.7156  0.0296
   36MOL   C29411564   6.182   1.233   4.959 -0.5498 -0.4091  0.4941
   36MOL   C29511565   6.082   1.385   5.127  0.4316 -0.4970 -0.2603
   36MOL   H29611566   6.332   1.441   4.799  0.5872 -1.3274  1.2633
   36MOL   H29711567   6.287   1.661   4.708  0.5023 -1.5489 -0.5353
   36MOL   H29811568   6.452   1.630   4.761 -0.0896  0.5049 -0.8508
   36MOL   H29911569   6.353   1.744   4.851  0.5006 -0.5618  0.9806
   36MOL   H30011570   6.163   1.577   4.985 -2.9994  0.0862  0.4283
   36MOL   H30111571   6.272   1.229   4.898 -1.0423 -2.8053 -0.0955
   36MOL   H30211572   6.100   1.203   4.895 -0.9290  1.6914 -0.0541
   36MOL   H30311573   6.203   1.158   5.035  2.1488 -1.5640 -1.3267
   36MOL   H30411574   6.063   1.484   5.167  0.9208 -0.7152  0.5009
   36MOL   H30511575   6.056   1.305   5.194 -0.5413  0.0532  0.0383
   36MOL   C30611576   6.064   1.497   4.814 -1.0765  0.0080  0.4284
   36MOL   C30711577   6.114   1.455   4.674  0.0924 -0.2934  0.3235
   36MOL   C30811578   5.995   1.638   4.806  0.1642 -0.8978 -0.2727
   36MOL   C30911579   5.921   1.680   4.936  0.2053  0.2353 -1.5357
   36MOL   C31011580   5.987   1.763   5.039 -0.7664 -0.2183 -0.7048
   36MOL   C31111581   5.790   1.651   4.955 -0.3455  0.1122  0.5026
   36MOL   H31211582   5.987   1.426   4.846  0.6488 -2.4210 -0.6630
   36MOL   H31311583   6.025   1.428   4.618 -1.4423 -0.0074  2.5660
   36MOL   H31411584   6.187   1.374   4.673  0.2213 -0.2188 -3.7320
   36MOL   H31511585   6.159   1.529   4.608 -0.1639  0.1553  0.6463
   36MOL   H31611586   6.069   1.711   4.773  1.5757 -1.9127  0.5799
   36MOL   H31711587   6.054   1.714   5.110  0.3469  0.1765 -1.4722
   36MOL   H31811588   5.916   1.813   5.106  1.5190  2.9913 -0.5724
   36MOL   H31911589   6.047   1.841   4.993 -1.6558 -0.2808 -1.9751
   36MOL   H32011590   5.734   1.594   4.881  2.1214 -1.1669 -0.4277
   36MOL   H32111591   5.731   1.684   5.039  0.1776  0.9663  0.5407
   36MOL   H32211592   5.924   1.650   4.725 -3.0324  2.0086  2.7704
   37MOL     C111593   5.956   2.425   4.735  0.6154 -0.2514 -0.4603
   37MOL     C211594   5.944   2.461   4.581  0.2884 -0.5812 -0.0726
   37MOL     C311595   5.819   2.379   4.799 -0.6157 -0.6237  0.1362
   37MOL     C411596   5.703   2.480   4.787 -0.1145 -1.2459  0.0114
   37MOL     C511597   5.565   2.430   4.756 -0.0466 -0.0997 -0.2983
   37MOL     C611598   5.725   2.615   4.790 -0.4772 -0.7258  0.5324
   37MOL     H711599   6.038   2.353   4.736  2.0287  1.3369 -0.3440
   37MOL     H811600   5.893   2.377   4.534  1.7553 -0.6018 -1.6570
   37MOL     H911601   6.041   2.484   4.537  1.6859 -3.6605  1.2632
   37MOL    H1011602   5.883   2.551   4.571 -0.0869 -0.8453 -0.1649
   37MOL    H1111603   5.803   2.296   4.730  2.0766 -0.6056 -0.5673
   37MOL    H1211604   5.507   2.502   4.698 -0.2569  0.0043  0.0341
   37MOL    H1311605   5.507   2.405   4.845  1.9056  0.9200  1.2868
   37MOL    H1411606   5.571   2.342   4.692  0.3094 -1.1971  1.1988
   37MOL    H1511607   5.814   2.672   4.813  0.1063 -0.2837 -2.6444
   37MOL    H1611608   5.642   2.681   4.769  0.7846  0.7916  0.2755
   37MOL    H1711609   5.989   2.510   4.795  2.1380 -1.7715  0.9146
   37MOL    C1811610   5.835   2.331   4.948  0.4412 -0.3661  0.4424
   37MOL    C1911611   5.877   2.447   5.033 -0.0202 -0.5579  0.4373
   37MOL    C2011612   5.928   2.204   4.957  0.7005 -0.2988  0.3052
   37MOL    C2111613   5.913   2.097   4.850  0.2404  0.1405  0.1668
   37MOL    C2211614   5.783   2.025   4.835  0.1960 -0.1326 -0.1490
   37MOL    C2311615   6.015   2.068   4.770 -0.5995 -0.4901 -0.5260
   37MOL    H2411616   5.743   2.289   4.989 -0.0953 -1.4319 -1.7620
   37MOL    H2511617   5.857   2.424   5.138  1.8189  2.4151  1.5054
   37MOL    H2611618   5.816   2.537   5.027 -0.2167 -0.6933  0.4196
   37MOL    H2711619   5.979   2.484   5.021 -0.1046  0.1083  1.6893
   37MOL    H2811620   6.023   2.248   4.929  0.8479 -1.3244 -0.8519
   37MOL    H2911621   5.784   1.948   4.758  0.2316 -0.8892  0.6002
   37MOL    H3011622   5.696   2.089   4.819  0.5957  0.3734 -0.3235
   37MOL    H3111623   5.776   1.966   4.926  0.8976  0.3479  0.2288
   37MOL    H3211624   6.109   2.119   4.784  0.2889 -2.3222  0.3936
   37MOL    H3311625   6.012   1.993   4.693  1.2669 -1.2394  0.1169
   37MOL    C3411626   5.939   2.137   5.097 -0.5786  0.0524 -0.3225
   37MOL    C3511627   5.805   2.128   5.164 -0.6376  0.5548  0.4548
   37MOL    C3611628   6.060   2.193   5.184  0.9045  0.2581  1.3286
   37MOL    C3711629   6.189   2.226   5.107 -0.2583  0.4829  0.0108
   37MOL    C3811630   6.262   2.100   5.056 -0.3286 -0.0343  0.4195
   37MOL    C3911631   6.232   2.354   5.093  0.0017 -0.0052 -0.5325
   37MOL    H4011632   5.968   2.033   5.078  2.8036  1.0413 -0.7980
   37MOL    H4111633   5.764   2.223   5.198 -3.8679  0.3040 -2.5323
   37MOL    H4211634   5.806   2.054   5.244 -0.7727  0.8610  0.7399
   37MOL    H4311635   5.727   2.096   5.096  0.3305 -0.1514 -0.3313
   37MOL    H4411636   6.021   2.291   5.213  0.1610  0.0640  1.0077
   37MOL    H4511637   6.321   2.133   4.970 -1.7136  1.2598 -0.0640
   37MOL    H4611638   6.192   2.025   5.020 -2.2564  1.7157  0.4694
   37MOL    H4711639   6.311   2.063   5.145  0.7779 -1.8778 -0.9139
   37MOL    H4811640   6.176   2.439   5.127 -0.7804 -0.1970 -1.3240
   37MOL    H4911641   6.330   2.373   5.051  1.3741 -0.0276  2.5532
   37MOL    C5011642   6.101   2.117   5.319  0.5288  0.0574  0.2531
   37MOL    C5111643   6.107   1.962   5.313 -0.2499  0.1201 -0.3028
   37MOL    C5211644   6.004   2.157   5.437 -0.3339 -0.0592  0.3363
   37MOL    C5311645   5.955   2.301   5.441  0.8560  0.9749  0.0344
   37MOL    C5411646   6.054   2.405   5.494 -0.2122 -0.2721 -0.3452
   37MOL    C5511647   5.830   2.343   5.416  0.0126 -0.9045  0.0366
   37MOL    H5611648   6.202   2.150   5.344  0.5169 -0.5122  1.1029
   37MOL    H5711649   6.164   1.919   5.395 -1.5881  0.4761  0.8287
   37MOL    H5811650   6.154   1.930   5.219 -0.1011  0.0969 -0.2212
   37MOL    H5911651   6.015   1.904   5.317  0.7142 -1.3715  0.8737
   37MOL    H6011652   5.915   2.102   5.407 -1.7319  3.1866 -1.6732
   37MOL    H6111653   6.072   2.393   5.601  0.3061 -1.0437 -0.5208
   37MOL    H6211654   6.014   2.505   5.474 -0.7122 -0.2460  0.7288
   37MOL    H6311655   6.151   2.397   5.447  0.5958 -1.1836  1.4152
   37MOL    H6411656   5.747   2.281   5.385 -0.5074 -0.1654 -0.0688
   37MOL    H6511657   5.798   2.446   5.422 -0.5253 -1.1646  2.1865
   37MOL    C6611658   6.046   2.113   5.586 -0.5951 -0.0612  0.2907
   37MOL    C6711659   6.192   2.122   5.607 -0.0459 -0.6016  0.1092
   37MOL    C6811660   5.984   1.980   5.625  0.3376 -0.2947  1.2675
   37MOL    C6911661   5.838   1.959   5.591  0.5560 -0.5319  0.6302
   37MOL    C7011662   5.795   1.829   5.528 -0.5018 -0.6925 -0.3653
   37MOL    C7111663   5.746   2.059   5.602 -0.1629  0.1035  0.0392
   37MOL    H7211664   6.003   2.184   5.657  1.2636  0.5339  0.8808
   37MOL    H7311665   6.210   2.125   5.715  0.2086  0.8666  0.0399
   37MOL    H7411666   6.237   2.207   5.556 -0.2229 -1.6392 -1.8244
   37MOL    H7511667   6.256   2.047   5.561  3.5265  0.9317  2.3777
   37MOL    H7611668   6.036   1.917   5.552  0.1488  0.7601  0.2090
   37MOL    H7711669   5.836   1.741   5.578  0.9030  0.5907  0.7958
   37MOL    H7811670   5.829   1.834   5.424  1.6145  0.5319  0.3509
   37MOL    H7911671   5.687   1.828   5.531 -0.4520 -1.4880  1.6359
   37MOL    H8011672   5.777   2.156   5.638 -0.0580  0.5965 -1.3159
   37MOL    H8111673   5.641   2.054   5.576 -0.0669  1.3672 -0.6109
   37MOL    C8211674   6.016   1.935   5.773  0.2528 -0.0224 -0.6697
   37MOL    C8311675   5.977   2.044   5.875  0.5168 -0.0158  0.3644
   37MOL    C8411676   6.144   1.852   5.799 -0.2199  0.2730 -0.0144
   37MOL    C8511677   6.197   1.765   5.685 -0.1331 -0.3876  0.2080
   37MOL    C8611678   6.120   1.641   5.643 -0.4553  0.1320 -0.1934
   37MOL    C8711679   6.318   1.778   5.628 -0.1400  0.4288  0.6758
   37MOL    H8811680   5.926   1.877   5.795  0.2405 -0.1063 -0.9353
   37MOL    H8911681   5.883   2.094   5.851  1.2679  1.4552  0.4436
   37MOL    H9011682   6.047   2.126   5.886 -0.8741  1.4329 -1.2539
   37MOL    H9111683   5.970   2.005   5.976 -0.4761  1.0380  0.7062
   37MOL    H9211684   6.222   1.928   5.805 -1.2672  1.2492  1.5338
   37MOL    H9311685   6.013   1.654   5.656 -0.7188 -2.9060  1.0467
   37MOL    H9411686   6.149   1.558   5.707  2.0309  1.1592  0.0541
   37MOL    H9511687   6.146   1.628   5.538  1.4350  2.8147 -0.0952
   37MOL    H9611688   6.373   1.868   5.652  2.0158 -0.0881 -2.1257
   37MOL    H9711689   6.358   1.718   5.547 -1.2309  1.9819 -1.0445
   37MOL    C9811690   6.147   1.769   5.938 -0.5285  0.1419  0.2308
   37MOL    C9911691   6.015   1.702   5.969 -0.2398  0.9731 -0.2523
   37MOL   C10011692   6.224   1.851   6.051 -0.6992 -0.2308  0.8330
   37MOL   C10111693   6.363   1.919   6.003  0.2313  0.9990  0.4619
   37MOL   C10211694   6.398   2.051   6.065 -0.6262  0.3985 -0.3594
   37MOL   C10311695   6.452   1.869   5.911 -0.3421 -0.4428 -0.6353
   37MOL   H10411696   6.213   1.684   5.921  0.0642  0.3646  1.3586
   37MOL   H10511697   5.945   1.774   6.012 -2.5916 -1.3371 -0.0951
   37MOL   H10611698   6.021   1.616   6.036 -2.3367 -0.6099 -2.0135
   37MOL   H10711699   5.965   1.649   5.888  0.2913 -1.5914  1.0561
   37MOL   H10811700   6.167   1.942   6.070 -0.5509  0.1001 -0.2910
   37MOL   H10911701   6.349   2.133   6.012 -0.8533  0.8762  0.5852
   37MOL   H11011702   6.500   2.067   6.030 -0.5983 -1.3024 -1.1325
   37MOL   H11111703   6.398   2.058   6.173  1.6729 -2.5278 -0.1028
   37MOL   H11211704   6.426   1.776   5.862  1.0205 -1.0814 -0.1748
   37MOL   H11311705   6.540   1.918   5.874 -0.0538 -1.7204 -1.6915
   37MOL   C11411706   6.245   1.783   6.188 -0.6820  0.1780 -0.0924
   37MOL   C11511707   6.326   1.658   6.183 -0.3934 -0.0539  0.0526
   37MOL   C11611708   6.123   1.772   6.291  0.1288 -0.4421 -0.0022
   37MOL   C11711709   6.049   1.904   6.322 -0.3091 -1.1767 -0.5131
   37MOL   C11811710   5.902   1.898   6.353  0.1997  0.2416 -0.3045
   37MOL   C11911711   6.115   2.022   6.329  0.1570  0.7196  0.1405
   37MOL   H12011712   6.319   1.850   6.232 -0.8872  2.0079 -2.4025
   37MOL   H12111713   6.378   1.620   6.271  0.2036 -0.0669 -0.3016
   37MOL   H12211714   6.411   1.679   6.118 -2.3165  2.1729 -1.8263
   37MOL   H12311715   6.270   1.578   6.135 -0.3403  0.7671 -1.4117
   37MOL   H12411716   6.046   1.718   6.236 -1.4948  0.8802  0.9326
   37MOL   H12511717   5.871   2.001   6.367 -0.1732 -0.0719  1.2138
   37MOL   H12611718   5.882   1.839   6.442 -2.8996  3.7399  1.4403
   37MOL   H12711719   5.843   1.850   6.275  0.3444 -0.8477  0.2451
   37MOL   H12811720   6.222   2.024   6.316  0.1259  2.0892  0.0591
   37MOL   H12911721   6.066   2.115   6.351  2.4925  1.5605  1.9645
   37MOL   C13011722   6.151   1.713   6.429 -0.4605  0.1605  0.1060
   37MOL   C13111723   6.279   1.771   6.494 -0.0952  0.5283  0.5559
   37MOL   C13211724   6.141   1.555   6.444  0.3916 -0.2149  0.6134
   37MOL   C13311725   6.034   1.496   6.351 -0.1902 -0.1706  0.1856
   37MOL   C13411726   5.891   1.508   6.381  0.8999 -0.4513 -0.1156
   37MOL   C13511727   6.072   1.413   6.251  0.3052  0.3487  0.1233
   37MOL   H13611728   6.074   1.756   6.494  0.6122  1.9294  0.2433
   37MOL   H13711729   6.370   1.711   6.487 -0.9347 -0.8373  1.1902
   37MOL   H13811730   6.264   1.777   6.601  0.7483 -3.1339  0.9433
   37MOL   H13911731   6.308   1.873   6.468  0.7540  0.6944  2.1000
   37MOL   H14011732   6.238   1.525   6.405  0.3987 -1.1630  1.3484
   37MOL   H14111733   5.863   1.492   6.485  1.8229 -1.6769 -0.0570
   37MOL   H14211734   5.841   1.436   6.317 -0.8526  0.4030  0.2629
   37MOL   H14311735   5.873   1.613   6.355  1.9687 -0.0984  0.5309
   37MOL   H14411736   6.175   1.398   6.224  0.6775  0.5773  1.3695
   37MOL   H14511737   6.006   1.349   6.194  0.0395  1.0179 -0.3204
   37MOL   C14611738   6.137   1.485   6.586  0.0034  0.2972 -0.7864
   37MOL   C14711739   6.214   1.543   6.711 -0.1091  0.1652  0.5050
   37MOL   C14811740   6.140   1.326   6.571  0.5474 -0.1392  0.3291
   37MOL   C14911741   6.019   1.270   6.642 -0.6909 -0.7988  0.7487
   37MOL   C15011742   6.016   1.256   6.796 -0.4496  0.1237 -0.0296
   37MOL   C15111743   5.920   1.232   6.564  0.6838 -0.5026  0.0182
   37MOL   H15211744   6.033   1.508   6.606  0.1572  0.0237  0.3736
   37MOL   H15311745   6.190   1.470   6.789  0.3932  0.6799  1.1484
   37MOL   H15411746   6.173   1.636   6.748  0.5796  0.5189  0.4019
   37MOL   H15511747   6.320   1.549   6.686 -0.2238  0.1397  0.0067
   37MOL   H15611748   6.135   1.295   6.467  0.5566  1.0494 -0.0359
   37MOL   H15711749   6.110   1.212   6.829 -0.2482 -1.4298 -2.5369
   37MOL   H15811750   5.948   1.177   6.829  1.2198 -0.7196  1.5233
   37MOL   H15911751   6.010   1.351   6.848  0.1442  1.5010 -2.4216
   37MOL   H16011752   5.926   1.229   6.456  0.7111 -1.8144  0.0412
   37MOL   H16111753   5.835   1.189   6.614 -1.4516  1.6635 -1.6275
   37MOL   C16211754   6.284   1.263   6.603 -0.3679 -0.0603  0.4710
   37MOL   C16311755   6.379   1.304   6.487  0.0092  0.5670  0.3456
   37MOL   C16411756   6.291   1.110   6.637 -0.2452 -0.6733  0.2025
   37MOL   C16511757   6.406   1.081   6.743  0.8126 -0.6100 -0.1639
   37MOL   C16611758   6.553   1.090   6.706 -0.1955  0.6770  0.2628
   37MOL   C16711759   6.378   1.048   6.872  0.1046  0.6412  0.7647
   37MOL   H16811760   6.315   1.321   6.690  0.6685  0.8793 -0.5125
   37MOL   H16911761   6.476   1.276   6.529  0.8871  4.3919  1.0967
   37MOL   H17011762   6.391   1.411   6.468 -0.4675  0.4445 -0.6731
   37MOL   H17111763   6.367   1.253   6.391 -1.1230  0.3036  0.6253
   37MOL   H17211764   6.204   1.067   6.686  1.0273 -2.2062  1.1924
   37MOL   H17311765   6.575   1.046   6.609  1.5080  2.1311 -0.0381
   37MOL   H17411766   6.612   1.026   6.771 -1.3166 -0.0977  0.5324
   37MOL   H17511767   6.588   1.193   6.715  0.8890  0.2339  1.3098
   37MOL   H17611768   6.276   1.047   6.907 -0.0124  0.7427  0.4272
   37MOL   H17711769   6.458   1.041   6.945  1.3462  0.3149 -0.6111
   37MOL   C17811770   6.304   1.013   6.508  0.5550  0.4636  0.3049
   37MOL   C17911771   6.191   1.040   6.408  0.5526 -0.1931  0.1350
   37MOL   C18011772   6.323   0.865   6.538  0.6049 -0.0184  0.0967
   37MOL   C18111773   6.422   0.795   6.452  0.2108 -0.1039  0.8961
   37MOL   C18211774   6.391   0.786   6.303  0.2783 -0.4963 -0.2522
   37MOL   C18311775   6.535   0.752   6.504 -0.1002  0.1115  0.3530
   37MOL   H18411776   6.394   1.042   6.454  1.3639 -0.5015  1.0996
   37MOL   H18511777   6.097   1.069   6.455  1.0911  3.1146 -0.6895
   37MOL   H18611778   6.170   0.952   6.347  2.5587 -0.8285  0.3261
   37MOL   H18711779   6.221   1.111   6.331  1.3717  0.7252  1.2857
   37MOL   H18811780   6.367   0.853   6.636 -1.2027 -0.7735  0.8368
   37MOL   H18911781   6.297   0.731   6.297 -0.3248  0.5199 -0.1296
   37MOL   H19011782   6.470   0.723   6.261 -0.9558 -2.7043  0.6458
   37MOL   H19111783   6.404   0.881   6.251  1.1027 -1.3078 -1.5572
   37MOL   H19211784   6.558   0.769   6.608 -0.2159 -1.7589  0.7065
   37MOL   H19311785   6.605   0.694   6.445 -0.0315 -0.9576  1.4420
   37MOL   C19411786   6.196   0.769   6.554  0.2833  0.3860  0.1872
   37MOL   C19511787   6.085   0.833   6.639  0.4246  0.4413 -0.1742
   37MOL   C19611788   6.217   0.615   6.584 -0.8697  0.1990 -0.0773
   37MOL   C19711789   6.115   0.530   6.504  0.3174 -0.0368  0.4256
   37MOL   C19811790   6.161   0.495   6.360  0.1197  0.9583 -0.2039
   37MOL   C19911791   5.991   0.499   6.544  0.7058  0.0187  0.4682
   37MOL   H20011792   6.161   0.778   6.451 -0.7242 -0.0729  0.4800
   37MOL   H20111793   6.023   0.901   6.581 -2.1627 -1.8847 -0.2312
   37MOL   H20211794   6.112   0.873   6.737  0.7351  0.2304 -0.1748
   37MOL   H20311795   6.009   0.757   6.654  1.4408 -0.1918  1.9574
   37MOL   H20411796   6.313   0.592   6.540 -0.6307  0.3884  0.3429
   37MOL   H20511797   6.116   0.405   6.318  1.6057  0.8011 -1.5075
   37MOL   H20611798   6.270   0.489   6.357  0.3307  2.4069  2.7017
   37MOL   H20711799   6.132   0.582   6.301 -1.7957 -0.5475 -1.5789
   37MOL   H20811800   5.952   0.537   6.637  0.1375  1.2817 -0.2799
   37MOL   H20911801   5.935   0.439   6.474 -0.9246  1.3471  0.6147
   37MOL   C21011802   6.227   0.573   6.739 -0.1767 -0.2773 -0.3840
   37MOL   C21111803   6.315   0.671   6.818 -0.0386 -0.6684  0.0992
   37MOL   C21211804   6.263   0.423   6.773  0.0630  0.6504  0.2970
   37MOL   C21311805   6.348   0.350   6.669  0.9062  1.0077  0.1031
   37MOL   C21411806   6.497   0.365   6.682 -0.3557 -0.0383  0.1817
   37MOL   C21511807   6.294   0.258   6.585  0.2918 -0.3562 -0.5320
   37MOL   H21611808   6.122   0.583   6.767  0.0335  0.9070 -0.0176
   37MOL   H21711809   6.313   0.647   6.925  1.1717 -1.5221 -0.0538
   37MOL   H21811810   6.273   0.770   6.806 -2.0782 -1.8348 -2.6616
   37MOL   H21911811   6.419   0.663   6.785 -0.1482  2.2841 -1.0462
   37MOL   H22011812   6.335   0.434   6.854  0.0149 -1.9523  0.7095
   37MOL   H22111813   6.546   0.315   6.599 -1.0155 -3.1434  1.5941
   37MOL   H22211814   6.533   0.332   6.779 -0.3434  0.4350  0.3363
   37MOL   H22311815   6.516   0.471   6.667 -0.4051 -0.5643 -4.3997
   37MOL   H22411816   6.186   0.256   6.582  0.2765  0.1107 -0.2572
   37MOL   H22511817   6.347   0.200   6.512 -0.4097  0.3646 -1.6360
   37MOL   C22611818   6.155   0.337   6.842 -0.2640  0.3418 -0.0216
   37MOL   C22711819   6.083   0.405   6.956 -0.2579  0.3125 -0.2441
   37MOL   C22811820   6.202   0.189   6.885 -0.3480 -0.2200  0.4377
   37MOL   C22911821   6.089   0.089   6.855  0.6296 -0.4267 -0.4823
   37MOL   C23011822   5.973   0.096   6.948 -0.7904  0.6089  0.4282
   37MOL   C23111823   6.106   0.000   6.755 -0.0953  0.7704 -0.1959
   37MOL   H23211824   6.082   0.324   6.762 -1.1714 -0.3701  0.9111
   37MOL   H23311825   6.037   0.329   7.019 -0.4422  1.0703  0.5393
   37MOL   H23411826   6.001   0.470   6.925  0.1721 -0.2357 -2.6230
   37MOL   H23511827   6.151   0.473   7.008 -2.3310  1.3774  1.1196
   37MOL   H23611828   6.287   0.166   6.820  0.0214  1.3493  0.3388
   37MOL   H23711829   5.995   0.074   7.052  0.7343 -1.0487 -0.2181
   37MOL   H23811830   5.907   0.010   6.930  0.0612 -0.3579  1.8355
   37MOL   H23911831   5.913   0.187   6.947  0.0328  1.1467 -1.1756
   37MOL   H24011832   6.191   7.883   6.689  0.3249 -0.9670  0.5683
   37MOL   H24111833   6.025   7.824   6.736  0.8629 -0.3647 -0.2576
   37MOL   C24211834   6.257   0.171   7.031  0.0545 -0.2300 -0.3582
   37MOL   C24311835   6.359   0.280   7.074 -0.0790 -0.6180  0.3371
   37MOL   C24411836   6.302   0.027   7.073  0.2822 -0.2470 -0.4738
   37MOL   C24511837   6.215   7.851   7.179  0.4742  0.4911  0.5528
   37MOL   C24611838   6.181   7.704   7.168  0.1582 -0.4461  0.5472
   37MOL   C24711839   6.158   0.022   7.284 -0.0807 -0.3089 -0.1257
   37MOL   H24811840   6.175   0.197   7.098 -1.3424 -0.8835 -1.7836
   37MOL   H24911841   6.456   0.270   7.024 -0.0313  2.3614 -0.2123
   37MOL   H25011842   6.368   0.286   7.182 -1.7618 -0.4501  0.4719
   37MOL   H25111843   6.315   0.377   7.052  1.4440 -0.3943 -1.8838
   37MOL   H25211844   6.264   7.862   6.989 -0.0372 -1.0096  0.1904
   37MOL   H25311845   6.078   7.671   7.158  0.4329 -1.8377  1.9849
   37MOL   H25411846   6.222   7.649   7.254 -0.6480 -0.7415  0.7466
   37MOL   H25511847   6.231   7.654   7.085 -0.7196 -0.8678  0.2689
   37MOL   H25611848   6.180   0.127   7.290  0.3724 -0.4128  0.0418
   37MOL   H25711849   6.085   7.879   7.355 -0.0642  0.3081  0.2038
   37MOL   C25811850   6.451   7.882   7.079 -0.2986 -0.0926  0.1806
   37MOL   C25911851   6.515   0.052   7.214 -0.2201  0.7544 -0.0373
   37MOL   C26011852   6.540   0.011   6.949 -0.4581 -0.3041 -0.5736
   37MOL   C26111853   6.481   7.851   6.815 -0.1881  0.5392  0.7277
   37MOL   C26211854   6.417   7.711   6.821 -0.5502 -0.3209  0.0529
   37MOL   C26311855   6.490   0.024   6.695 -0.2573  0.4330  0.2314
   37MOL   H26411856   6.444   7.775   7.099 -0.2418 -0.3618 -1.1880
   37MOL   H26511857   6.601   7.885   7.245 -2.0108 -1.2199  1.3273
   37MOL   H26611858   6.451   0.046   7.303  0.5972 -0.2996  0.4906
   37MOL   H26711859   6.551   0.152   7.190 -2.4201  1.3052 -1.1881
   37MOL   H26811860   6.526   0.117   6.931 -1.0481 -0.0295  1.3518
   37MOL   H26911861   6.310   7.712   6.841 -0.8052  3.0414 -1.1332
   37MOL   H27011862   6.474   7.648   6.889 -1.7465 -0.3536  1.0458
   37MOL   H27111863   6.433   7.676   6.719  0.2242  1.2828 -0.4001
   37MOL   H27211864   6.550   0.114   6.704  1.9021 -1.2114  2.9387
   37MOL   H27311865   6.451   7.874   6.603 -1.2004 -1.0831  1.3117
   37MOL   C27411866   6.697   0.004   6.964  0.4727 -0.0151  0.0375
   37MOL   C27511867   6.780   0.103   6.882  0.1651 -0.0878  0.4923
   37MOL   C27611868   6.757   7.750   6.973 -0.3228  0.3878  0.3138
   37MOL   C27711869   6.820   7.733   7.113  0.0231  0.1279 -0.4167
   37MOL   C27811870   6.955   7.801   7.130  0.2671 -0.3322 -0.3297
   37MOL   C27911871   6.755   7.679   7.215  0.3719 -0.5881 -0.6026
   37MOL   H28011872   6.710   0.045   7.064 -2.2662 -1.2284  0.9285
   37MOL   H28111873   6.884   0.081   6.906  0.2138 -0.1142  0.2620
   37MOL   H28211874   6.759   0.207   6.908 -0.1853  0.1451 -0.6921
   37MOL   H28311875   6.758   0.087   6.777  0.1861 -0.9188  0.6153
   37MOL   H28411876   6.668   7.688   6.962 -0.6055  1.1449 -1.8062
   37MOL   H28511877   7.003   7.793   7.228 -0.5360  0.8328  0.1693
   37MOL   H28611878   6.939   0.014   7.107  1.5636 -0.0313  0.1402
   37MOL   H28711879   7.022   7.768   7.051  0.6150  0.4196 -0.3459
   37MOL   H28811880   6.657   7.635   7.222 -0.1388  0.5774 -0.3613
   37MOL   H28911881   6.807   7.694   7.309 -1.8202  2.0606  0.2376
   37MOL   C29011882   6.846   7.700   6.856 -0.3377  0.3976 -0.6536
   37MOL   C29111883   6.759   7.663   6.731  0.0496 -0.5740  0.2900
   37MOL   C29211884   6.945   7.573   6.880  0.2402 -0.5884 -0.5306
   37MOL   C29311885   7.079   7.599   6.815 -0.3490 -0.3799  0.5242
   37MOL   C29411886   7.096   7.620   6.671  0.5659  0.0293 -0.2980
   37MOL   C29511887   7.192   7.619   6.885  0.0521 -0.5637  0.1566
   37MOL   H29611888   6.922   7.773   6.829  1.7388 -2.0143 -1.5598
   37MOL   H29711889   6.671   7.601   6.748  0.6607 -1.3981  0.5335
   37MOL   H29811890   6.808   7.626   6.641  2.3799  0.0204  1.2692
   37MOL   H29911891   6.711   7.756   6.701  2.1127 -0.8739 -4.2826
   37MOL   H30011892   6.973   7.569   6.985 -0.0668  2.9658 -0.2299
   37MOL   H30111893   7.042   7.543   6.616  1.0980 -0.0773 -0.6704
   37MOL   H30211894   7.200   7.623   6.641  0.7807 -0.1423  0.4174
   37MOL   H30311895   7.055   7.719   6.649  2.5556  0.7708 -0.7122
   37MOL   H30411896   7.181   7.627   6.993 -1.3043 -0.1170 -0.0044
   37MOL   H30511897   7.292   7.626   6.846 -0.4110 -0.8868 -1.1117
   37MOL   C30611898   6.893   7.434   6.844  0.1827 -0.3117 -0.2206
   37MOL   C30711899   6.764   7.399   6.930 -0.5691  0.1067  1.0703
   37MOL   C30811900   7.003   7.322   6.858 -0.0980 -0.4305  0.4220
   37MOL   C30911901   6.974   7.200   6.768  0.4438 -0.4996  0.5867
   37MOL   C31011902   7.010   7.215   6.623 -0.5952 -0.5071 -0.3102
   37MOL   C31111903   6.917   7.090   6.820  1.2267 -0.0112  0.6437
   37MOL   H31211904   6.862   7.428   6.740  0.0011 -2.0816 -0.0792
   37MOL   H31311905   6.730   7.300   6.898  0.2541  0.3006 -0.4742
   37MOL   H31411906   6.674   7.459   6.922  0.8682  2.1812 -0.0790
   37MOL   H31511907   6.795   7.397   7.034  1.8241 -0.7567  0.3883
   37MOL   H31611908   7.107   7.352   6.843 -0.1000 -0.6530 -0.0554
   37MOL   H31711909   7.118   7.200   6.619 -0.3808  0.4761  1.2781
   37MOL   H31811910   6.973   7.307   6.579 -0.0311  0.0211  0.3169
   37MOL   H31911911   6.965   7.133   6.567 -0.4058 -1.0309  0.3022
   37MOL   H32011912   6.882   7.104   6.920 -0.2804 -1.2308  0.3055
   37MOL   H32111913   6.899   7.001   6.760  1.0074  1.6342 -1.8288
   37MOL   H32211914   7.007   7.290   6.962  1.9822 -0.1081  0.4712
   38MOL     C111915   6.906   5.923   3.115 -0.8118 -0.5572  0.0912
   38MOL     C211916   7.012   5.816   3.121 -0.0687 -0.1146  0.1949
   38MOL     C311917   6.790   5.892   3.011 -0.8530  0.7766 -0.2550
   38MOL     C411918   6.835   5.904   2.865 -0.2489 -0.4535  0.0192
   38MOL     C511919   6.769   5.807   2.771  0.2475 -0.3130 -0.2895
   38MOL     C611920   6.928   5.984   2.815 -0.0306 -0.5408  0.3113
   38MOL     H711921   6.853   5.918   3.210 -1.0640 -1.0120 -0.0692
   38MOL     H811922   7.074   5.810   3.031  0.5219  1.9733  0.4510
   38MOL     H911923   6.972   5.715   3.138  0.0895 -0.4333 -1.2457
   38MOL    H1011924   7.084   5.831   3.200 -0.3085 -0.7326  0.5348
   38MOL    H1111925   6.760   5.788   3.025 -0.2999  0.4936 -1.1797
   38MOL    H1211926   6.787   5.700   2.780 -0.0032 -0.3802 -0.5914
   38MOL    H1311927   6.784   5.839   2.668  2.5230  0.5576  0.2875
   38MOL    H1411928   6.661   5.814   2.789  0.4446 -0.8444  1.2436
   38MOL    H1511929   6.982   6.050   2.881  0.7588  0.2772 -1.1088
   38MOL    H1611930   6.954   5.990   2.710 -0.7883 -1.0984  0.0857
   38MOL    H1711931   6.956   6.017   3.093 -0.6344 -0.6714  0.0086
   38MOL    C1811932   6.660   5.975   3.034  0.3662 -0.4717 -0.0720
   38MOL    C1911933   6.699   6.122   3.049 -0.6158 -0.6226  0.7022
   38MOL    C2011934   6.568   5.936   3.164 -0.3305 -0.3087  0.5809
   38MOL    C2111935   6.532   5.788   3.157 -0.1961  0.3813  0.4467
   38MOL    C2211936   6.491   5.726   3.023 -0.0518 -0.3218 -0.2261
   38MOL    C2311937   6.559   5.714   3.267 -0.1388 -0.1610  0.0622
   38MOL    H2411938   6.590   5.967   2.951 -0.5948 -2.4308  0.8740
   38MOL    H2511939   6.750   6.175   2.969  0.5914  1.3008  2.6899
   38MOL    H2611940   6.753   6.143   3.141  1.2064 -2.0370 -0.0064
   38MOL    H2711941   6.610   6.184   3.061 -1.5353 -1.5288 -1.1687
   38MOL    H2811942   6.641   5.938   3.245  0.8811 -1.7918 -0.4455
   38MOL    H2911943   6.570   5.711   2.950  1.7062  0.4187  1.4944
   38MOL    H3011944   6.418   5.794   2.979  0.8257  0.6287 -0.2116
   38MOL    H3111945   6.438   5.632   3.036  0.3983 -0.9087 -2.4087
   38MOL    H3211946   6.605   5.751   3.358 -0.2037 -0.5080  0.2364
   38MOL    H3311947   6.538   5.609   3.254 -0.9419  0.2122 -1.8120
   38MOL    C3411948   6.434   6.021   3.206 -0.2732 -0.3708  0.8426
   38MOL    C3511949   6.359   6.075   3.084 -1.0008 -0.0384 -0.2495
   38MOL    C3611950   6.453   6.128   3.316  0.1173 -0.0874  0.5730
   38MOL    C3711951   6.519   6.082   3.448  0.1862  0.6996  0.5677
   38MOL    C3811952   6.631   6.177   3.505  0.0837  0.2587  0.1043
   38MOL    C3911953   6.502   5.968   3.511  0.5408 -0.0973  0.0066
   38MOL    H4011954   6.361   5.955   3.254 -0.3580  1.7987  3.8683
   38MOL    H4111955   6.393   6.175   3.055 -2.2902  0.4878  0.0251
   38MOL    H4211956   6.253   6.084   3.109 -0.3803 -0.5238  2.6275
   38MOL    H4311957   6.378   6.000   3.007  0.8000  1.7051 -1.5814
   38MOL    H4411958   6.525   6.194   3.266 -0.3035  1.1350  1.5683
   38MOL    H4511959   6.691   6.208   3.419  0.9102  0.0025  0.5860
   38MOL    H4611960   6.701   6.124   3.570 -1.4074  0.1536  1.6670
   38MOL    H4711961   6.591   6.244   3.581  0.4036 -0.2988  0.7707
   38MOL    H4811962   6.427   5.899   3.475  1.0114  0.4720 -2.2002
   38MOL    H4911963   6.561   5.941   3.598  0.4862  0.2447  0.1489
   38MOL    C5011964   6.335   6.235   3.346  0.1270 -0.1370  0.4142
   38MOL    C5111965   6.211   6.169   3.407  0.0905  0.6334 -0.5813
   38MOL    C5211966   6.308   6.346   3.245  0.2392  0.4911 -0.1574
   38MOL    C5311967   6.425   6.427   3.184  0.2132  0.1177  0.0186
   38MOL    C5411968   6.409   6.490   3.050  0.5927 -0.1745 -0.6411
   38MOL    C5511969   6.546   6.444   3.248 -0.6001 -0.0266 -0.3538
   38MOL    H5611970   6.385   6.293   3.423  1.0875  0.3483 -0.5511
   38MOL    H5711971   6.145   6.133   3.328  2.5574 -1.6765 -1.6584
   38MOL    H5811972   6.150   6.240   3.463 -0.5447 -0.2169 -0.1990
   38MOL    H5911973   6.233   6.087   3.474  2.4884  0.0035 -2.0648
   38MOL    H6011974   6.265   6.295   3.159 -0.8682  0.4864  0.3963
   38MOL    H6111975   6.391   6.409   2.979  0.5654 -1.3249  0.6522
   38MOL    H6211976   6.501   6.545   3.032 -0.3974  0.9763 -2.2938
   38MOL    H6311977   6.324   6.557   3.059  1.6597  1.0862  0.1095
   38MOL    H6411978   6.572   6.419   3.350 -1.4461  1.0984  0.1437
   38MOL    H6511979   6.630   6.493   3.202 -1.2008  1.1047 -0.2495
   38MOL    C6611980   6.198   6.452   3.282 -0.1474 -0.0668  0.3156
   38MOL    C6711981   6.233   6.509   3.425 -0.1654  0.4717  0.0769
   38MOL    C6811982   6.045   6.405   3.263  0.2111  0.2445  0.4572
   38MOL    C6911983   6.022   6.340   3.132  0.2011 -0.2834 -0.0843
   38MOL    C7011984   5.920   6.227   3.134  0.2505  0.4132 -0.4175
   38MOL    C7111985   6.062   6.389   3.016  1.2377  0.7977  0.1793
   38MOL    H7211986   6.217   6.535   3.215  0.6529  0.2328  0.9047
   38MOL    H7311987   6.340   6.523   3.440 -0.8102  2.8212  3.0535
   38MOL    H7411988   6.191   6.447   3.504 -0.3686 -2.2337 -2.0756
   38MOL    H7511989   6.191   6.610   3.430  0.2591  0.7829 -2.1970
   38MOL    H7611990   6.031   6.328   3.340  0.9394 -1.6936 -1.3106
   38MOL    H7711991   5.820   6.269   3.125 -0.4619 -1.3209 -0.7925
   38MOL    H7811992   5.922   6.170   3.227  2.1821  0.0939 -0.6260
   38MOL    H7911993   5.933   6.158   3.051 -0.8019 -0.7913  0.3884
   38MOL    H8011994   6.129   6.474   3.017  0.3199  1.5519 -0.5815
   38MOL    H8111995   6.020   6.350   2.925 -1.3874  3.7157  0.0251
   38MOL    C8211996   5.932   6.516   3.288 -0.1590  0.7867  0.6745
   38MOL    C8311997   5.964   6.639   3.203 -0.1216 -0.3239 -0.0446
   38MOL    C8411998   5.887   6.550   3.436 -0.5699  0.8119 -0.1993
   38MOL    C8511999   5.868   6.431   3.526  0.3476  0.9760 -0.0237
   38MOL    C8612000   5.750   6.341   3.488 -0.3563  0.2809  0.6494
   38MOL    C8712001   5.942   6.412   3.635  0.2894 -1.0046 -0.1485
   38MOL    H8812002   5.841   6.470   3.249  0.9790 -0.1529 -0.9202
   38MOL    H8912003   5.986   6.622   3.098  0.8923 -0.6859  0.2185
   38MOL    H9012004   6.041   6.706   3.243 -1.4284  0.1787  1.7018
   38MOL    H9112005   5.882   6.710   3.210 -0.7571 -1.1720  1.2959
   38MOL    H9212006   5.971   6.609   3.472 -0.5830  0.8293 -0.1978
   38MOL    H9312007   5.757   6.314   3.382  0.3447 -1.8900  1.2216
   38MOL    H9412008   5.651   6.384   3.502 -0.5135  0.4456 -0.8421
   38MOL    H9512009   5.754   6.247   3.543 -1.9350  0.5147  1.1915
   38MOL    H9612010   6.026   6.476   3.661 -1.2742  0.9611  0.1797
   38MOL    H9712011   5.927   6.321   3.691 -0.4635  1.0084  3.0963
   38MOL    C9812012   5.762   6.647   3.460 -0.4459 -0.0052 -0.7040
   38MOL    C9912013   5.650   6.629   3.352  0.0639 -0.1523  0.3069
   38MOL   C10012014   5.803   6.801   3.469  0.0711  0.2992 -0.2432
   38MOL   C10112015   5.894   6.823   3.591 -0.1969 -0.2603  0.5086
   38MOL   C10212016   6.016   6.915   3.565 -0.1311 -0.1481  0.4599
   38MOL   C10312017   5.886   6.760   3.711 -0.1249  0.2471  0.1437
   38MOL   H10412018   5.723   6.614   3.556 -0.1339  0.9304 -0.2565
   38MOL   H10512019   5.571   6.701   3.372  1.3941  1.8580 -1.5092
   38MOL   H10612020   5.614   6.526   3.349  1.4630 -0.6552  0.4018
   38MOL   H10712021   5.675   6.648   3.248  1.1507 -3.3938 -0.0801
   38MOL   H10812022   5.851   6.826   3.374 -0.1452 -0.0339 -0.4392
   38MOL   H10912023   6.082   6.855   3.502 -1.4328  0.9912 -2.0579
   38MOL   H11012024   6.066   6.923   3.661  0.1693  0.9014  0.2187
   38MOL   H11112025   5.994   7.013   3.524  0.7520  0.8843  2.4274
   38MOL   H11212026   5.800   6.700   3.737  0.9836 -1.8123 -0.8659
   38MOL   H11312027   5.960   6.773   3.788  0.5497  0.5542 -0.5543
   38MOL   C11412028   5.695   6.916   3.480 -0.1012  0.0628 -0.1913
   38MOL   C11512029   5.583   6.879   3.584  0.0235 -0.0599 -0.7837
   38MOL   C11612030   5.631   6.982   3.353  0.0065 -0.3998 -0.1263
   38MOL   C11712031   5.719   6.960   3.225 -0.0098  0.3367  0.5506
   38MOL   C11812032   5.846   7.044   3.214  0.4446  0.2853  0.0133
   38MOL   C11912033   5.676   6.888   3.121  0.0143  0.0045 -0.0043
   38MOL   H12012034   5.747   7.003   3.520  0.2692 -0.6843  1.0058
   38MOL   H12112035   5.554   6.776   3.565 -0.5335 -0.3622  1.5295
   38MOL   H12212036   5.489   6.934   3.590  0.4797  0.5250  2.2052
   38MOL   H12312037   5.620   6.883   3.687  1.2441  3.4811 -1.2742
   38MOL   H12412038   5.542   6.924   3.328  0.5353 -0.9370 -0.7633
   38MOL   H12512039   5.936   6.997   3.253 -0.4857 -1.0355  0.5968
   38MOL   H12612040   5.831   7.146   3.250 -0.9324  0.1359 -0.1020
   38MOL   H12712041   5.861   7.063   3.107  1.0665  0.4776  0.1309
   38MOL   H12812042   5.581   6.836   3.125  0.9502 -1.6851  0.6991
   38MOL   H12912043   5.736   6.869   3.034  1.2838 -1.2421  1.1156
   38MOL   C13012044   5.601   7.135   3.366 -0.1757  0.0456 -0.1963
   38MOL   C13112045   5.537   7.173   3.490  0.3558  0.6043  0.4488
   38MOL   C13212046   5.528   7.204   3.235  0.6715 -0.6434  0.4836
   38MOL   C13312047   5.565   7.351   3.230  0.3463 -0.6635 -0.3629
   38MOL   C13412048   5.703   7.382   3.172 -0.2420 -0.9660 -0.3810
   38MOL   C13512049   5.495   7.457   3.283 -0.0225  0.1064 -0.7993
   38MOL   H13612050   5.700   7.178   3.378 -0.3396  0.0844  1.0048
   38MOL   H13712051   5.434   7.139   3.501  0.8756 -1.4084 -0.6291
   38MOL   H13812052   5.537   7.281   3.504  1.2620  0.6853 -0.1634
   38MOL   H13912053   5.585   7.135   3.580  0.3636 -1.1880 -0.3086
   38MOL   H14012054   5.567   7.171   3.138 -0.2610 -1.3490  0.3537
   38MOL   H14112055   5.714   7.490   3.160  2.0318 -1.1270 -0.0116
   38MOL   H14212056   5.722   7.324   3.082  2.2420 -2.0140  0.7491
   38MOL   H14312057   5.783   7.353   3.240 -1.1949 -1.8854  0.3631
   38MOL   H14412058   5.402   7.443   3.336  0.1837 -0.9538 -0.7117
   38MOL   H14512059   5.549   7.550   3.273  0.7455 -0.3525 -1.0275
   38MOL   C14612060   5.380   7.181   3.226  0.0407 -0.2239 -0.1433
   38MOL   C14712061   5.329   7.038   3.256 -0.1267  0.2311  0.0601
   38MOL   C14812062   5.319   7.245   3.089  0.4142  0.3245  0.5147
   38MOL   C14912063   5.199   7.327   3.116  0.6786  0.0122  0.1627
   38MOL   C15012064   5.095   7.265   3.203  0.0870  0.3545  0.1881
   38MOL   C15112065   5.183   7.456   3.085  0.6697  0.6271 -0.6095
   38MOL   H15212066   5.339   7.230   3.314 -0.0151  1.4943 -1.1110
   38MOL   H15312067   5.329   7.013   3.362  2.6839  2.6837  0.7117
   38MOL   H15412068   5.387   6.962   3.203 -0.8111  0.6283 -1.2702
   38MOL   H15512069   5.224   7.014   3.243  0.0030 -0.4991  0.3279
   38MOL   H15612070   5.388   7.308   3.032  1.0832 -1.5729 -0.8087
   38MOL   H15712071   5.015   7.338   3.207 -0.6453 -0.2949 -2.0835
   38MOL   H15812072   5.135   7.243   3.302  1.7095 -3.1311 -1.1409
   38MOL   H15912073   5.060   7.178   3.148 -0.5027  0.4844  0.3641
   38MOL   H16012074   5.271   7.503   3.044  1.7069 -1.5196 -0.9199
   38MOL   H16112075   5.107   7.529   3.109 -1.1131 -1.3685 -0.0157
   38MOL   C16212076   5.290   7.141   2.966 -0.0535 -0.2197  0.0972
   38MOL   C16312077   5.411   7.051   2.934  0.0059  0.2860  0.3781
   38MOL   C16412078   5.220   7.202   2.836 -1.0060 -0.5847  0.1203
   38MOL   C16512079   5.132   7.093   2.782  0.3840  0.5149 -0.7455
   38MOL   C16612080   4.986   7.096   2.828 -0.7231 -0.2961  0.0866
   38MOL   C16712081   5.171   7.000   2.695 -0.0700 -0.0307 -0.7183
   38MOL   H16812082   5.215   7.072   3.006 -1.2336  0.9912  0.0115
   38MOL   H16912083   5.506   7.105   2.942  0.6650 -0.6271 -0.9412
   38MOL   H17012084   5.412   6.996   2.840  1.7134  1.3855 -0.2795
   38MOL   H17112085   5.421   6.973   3.009 -1.5289  1.3833  1.7567
   38MOL   H17212086   5.148   7.279   2.867 -0.2471  1.1706 -2.3269
   38MOL   H17312087   4.931   7.029   2.762 -1.1999  0.0899  0.0899
   38MOL   H17412088   4.934   7.192   2.825  1.7870  1.1810  1.7444
   38MOL   H17512089   4.994   7.041   2.922  0.3973  0.8357  0.6783
   38MOL   H17612090   5.271   6.996   2.656 -0.8086 -0.8747 -2.5397
   38MOL   H17712091   5.094   6.936   2.654 -2.0784  1.5020  0.5395
   38MOL   C17812092   5.317   7.260   2.723 -0.0407 -0.2491  0.9657
   38MOL   C17912093   5.418   7.368   2.765  0.2276 -0.2989  0.4783
   38MOL   C18012094   5.260   7.306   2.587 -0.2946 -0.6684 -0.0605
   38MOL   C18112095   5.345   7.262   2.469  0.5034 -0.3057 -0.1968
   38MOL   C18212096   5.462   7.344   2.423 -0.0884 -0.3642  0.5647
   38MOL   C18312097   5.329   7.141   2.416 -0.1182 -0.1679 -0.7318
   38MOL   H18412098   5.379   7.176   2.691  0.4378  1.9344 -4.3671
   38MOL   H18512099   5.373   7.458   2.806 -1.9581 -1.7739  1.4012
   38MOL   H18612100   5.480   7.405   2.683  3.4268 -0.3512  2.8011
   38MOL   H18712101   5.489   7.331   2.838 -0.3140 -1.7546  0.2795
   38MOL   H18812102   5.168   7.250   2.576 -1.2954  0.9850 -0.2260
   38MOL   H18912103   5.543   7.301   2.482  0.0484  0.4493  0.9870
   38MOL   H19012104   5.458   7.451   2.444 -1.3322 -0.4275  0.6835
   38MOL   H19112105   5.493   7.326   2.320 -0.7388 -1.6088  0.5852
   38MOL   H19212106   5.245   7.083   2.449 -1.6697  2.8087  0.8335
   38MOL   H19312107   5.391   7.100   2.338  0.3837 -0.7488 -0.0343
   38MOL   C19412108   5.193   7.450   2.583 -0.1616 -0.8723 -0.6033
   38MOL   C19512109   5.079   7.469   2.691  0.1718  0.6166  1.1808
   38MOL   C19612110   5.163   7.520   2.441  0.2917  0.7065 -0.0138
   38MOL   C19712111   5.220   7.663   2.432  0.3029 -0.0839  0.3701
   38MOL   C19812112   5.170   7.778   2.517 -0.5171  0.3805 -0.0333
   38MOL   C19912113   5.320   7.689   2.348 -0.0004 -0.1925  0.4158
   38MOL   H20012114   5.271   7.519   2.617 -0.7952 -0.3810 -0.1352
   38MOL   H20112115   5.011   7.552   2.669  1.6300  1.5445  0.0935
   38MOL   H20212116   5.130   7.497   2.784 -0.4012  2.4144  0.9835
   38MOL   H20312117   5.021   7.377   2.696 -0.1729  0.8139  0.8436
   38MOL   H20412118   5.220   7.465   2.367  0.5937  1.5268 -0.4045
   38MOL   H20512119   5.198   7.756   2.620 -1.7051  1.0380  0.4384
   38MOL   H20612120   5.064   7.799   2.503 -1.1661 -1.8344  1.2765
   38MOL   H20712121   5.221   7.869   2.486 -2.0316  1.4885  0.7058
   38MOL   H20812122   5.362   7.614   2.281 -0.6999 -0.6834  0.5232
   38MOL   H20912123   5.371   7.784   2.339  1.2224 -0.8042  0.7309
   38MOL   C21012124   5.021   7.505   2.377 -0.1763  0.2032 -0.4491
   38MOL   C21112125   4.948   7.378   2.402  0.2812  0.6169 -0.4858
   38MOL   C21212126   5.023   7.549   2.221  0.5890  0.6094 -1.3005
   38MOL   C21312127   4.915   7.658   2.204 -0.4777 -0.8264  0.2757
   38MOL   C21412128   4.768   7.629   2.217 -0.0173  0.3577 -0.5436
   38MOL   C21512129   4.948   7.790   2.205  0.8924 -0.4341  0.3324
   38MOL   H21612130   4.957   7.575   2.431  0.0668 -0.1570  0.3137
   38MOL   H21712131   4.919   7.371   2.507 -0.5030  1.7387 -0.6261
   38MOL   H21812132   5.002   7.291   2.365  0.7176  1.3314 -1.5315
   38MOL   H21912133   4.856   7.390   2.346  0.0879  3.0141  0.3092
   38MOL   H22012134   5.114   7.604   2.195  0.4199  0.1239 -2.9438
   38MOL   H22112135   4.746   7.577   2.311  0.8024  0.6657 -0.1806
   38MOL   H22212136   4.715   7.580   2.135 -1.9852  1.1086  0.2384
   38MOL   H22312137   4.724   7.727   2.231 -1.2404 -0.5618  2.6363
   38MOL   H22412138   5.051   7.823   2.198  1.0273 -1.1616 -1.4133
   38MOL   H22512139   4.879   7.873   2.200  1.1180 -0.3149 -1.0337
   38MOL   C22612140   5.020   7.427   2.109  0.6507 -0.1145  0.3927
   38MOL   C22712141   5.125   7.318   2.125  0.3893 -0.4483  0.1773
   38MOL   C22812142   5.017   7.483   1.960 -0.3885 -0.2750 -0.6360
   38MOL   C22912143   4.938   7.376   1.879  0.2653  0.2164 -0.3185
   38MOL   C23012144   4.787   7.401   1.888 -0.0244 -0.2704  0.4393
   38MOL   C23112145   4.991   7.274   1.810 -0.1688 -0.2390  0.0324
   38MOL   H23212146   4.925   7.377   2.127  0.8793 -0.7973 -0.2711
   38MOL   H23312147   5.211   7.336   2.061 -0.9208  0.9071 -1.2323
   38MOL   H23412148   5.088   7.219   2.098  1.0662  0.5506 -4.7278
   38MOL   H23512149   5.177   7.317   2.221 -1.3570  0.1590  1.1613
   38MOL   H23612150   4.945   7.563   1.972 -0.9166 -1.1768  2.7330
   38MOL   H23712151   4.720   7.336   1.834  0.5967  0.2960 -1.0338
   38MOL   H23812152   4.772   7.503   1.851  0.2198 -0.0078  1.0516
   38MOL   H23912153   4.744   7.380   1.986  0.3739  0.8048  0.8584
   38MOL   H24012154   5.098   7.264   1.795 -0.0766 -1.3069  1.3923
   38MOL   H24112155   4.927   7.201   1.763  0.5240 -2.7313  2.8382
   38MOL   C24212156   5.151   7.527   1.885 -0.1360 -0.2400 -0.6366
   38MOL   C24312157   5.246   7.613   1.972  0.2634 -0.0555  0.3044
   38MOL   C24412158   5.136   7.562   1.732  0.1607 -0.1365 -0.3096
   38MOL   C24512159   5.243   7.493   1.641 -0.6762 -0.5610 -0.4261
   38MOL   C24612160   5.390   7.526   1.679 -0.1967 -0.1033 -0.5159
   38MOL   C24712161   5.219   7.406   1.543  0.7086 -0.8283 -0.2205
   38MOL   H24812162   5.214   7.437   1.881 -0.3667 -0.5056  1.1194
   38MOL   H24912163   5.338   7.641   1.920  0.8327  0.9409  1.7999
   38MOL   H25012164   5.269   7.561   2.065 -0.8533  0.7368  1.0363
   38MOL   H25112165   5.214   7.713   2.002 -2.5790 -0.0258 -2.5832
   38MOL   H25212166   5.042   7.519   1.700 -0.5851  0.0121  1.6434
   38MOL   H25312167   5.452   7.490   1.597 -0.9585  0.8619 -1.5292
   38MOL   H25412168   5.421   7.461   1.761 -0.4621 -3.2218 -2.8091
   38MOL   H25512169   5.407   7.633   1.693 -1.2665  0.2515 -1.7945
   38MOL   H25612170   5.123   7.370   1.509 -1.0631  2.8900  0.5644
   38MOL   H25712171   5.297   7.357   1.486  0.1820 -1.3495 -0.4924
   38MOL   C25812172   5.130   7.719   1.706 -0.3995  0.0267 -0.7932
   38MOL   C25912173   5.017   7.795   1.774 -0.5004  0.0969  0.2249
   38MOL   C26012174   5.156   7.778   1.560 -0.3520 -0.0511 -0.7181
   38MOL   C26112175   5.238   0.012   1.563  0.5904  0.1857  0.2044
   38MOL   C26212176   5.185   0.135   1.639  0.9231 -1.0060 -0.4268
   38MOL   C26312177   5.370   0.017   1.529 -0.4369  0.5330 -0.9298
   38MOL   H26412178   5.220   7.755   1.757 -0.5785  0.3856 -0.7286
   38MOL   H26512179   4.932   7.727   1.768 -0.7260  0.3310  0.7438
   38MOL   H26612180   4.976   7.892   1.744 -0.0593  0.7911  1.8185
   38MOL   H26712181   5.045   7.801   1.879 -0.2275  0.8489  0.1135
   38MOL   H26812182   5.228   7.702   1.526 -0.8839 -0.4042 -1.0635
   38MOL   H26912183   5.240   0.227   1.620  0.4700 -0.9227 -1.4081
   38MOL   H27012184   5.191   0.118   1.746  0.5380 -0.4459 -0.3147
   38MOL   H27112185   5.079   0.146   1.617  0.9451 -2.8276 -1.5840
   38MOL   H27212186   5.421   7.821   1.493 -1.1548  0.5236 -1.9461
   38MOL   H27312187   5.434   0.101   1.549  1.4082 -0.6935 -1.5233
   38MOL   C27412188   5.046   7.784   1.461  0.5721  0.2980 -0.6363
   38MOL   C27512189   4.949   7.667   1.457 -0.2719  0.5260  0.0980
   38MOL   C27612190   5.083   7.827   1.315 -0.4849 -0.1570 -0.1580
   38MOL   C27712191   4.969   0.012   1.250  0.4582 -0.1879  0.3944
   38MOL   C27812192   4.986   0.161   1.290 -0.2774  0.0716 -0.2581
   38MOL   C27912193   4.886   7.856   1.163 -0.0157  0.0804 -0.3772
   38MOL   H28012194   4.983   7.866   1.496 -0.0955 -0.0901 -0.9152
   38MOL   H28112195   4.993   7.571   1.428 -0.4436  0.3044  0.5741
   38MOL   H28212196   4.869   7.690   1.386 -0.4115 -0.4914 -0.0887
   38MOL   H28312197   4.907   7.658   1.557 -0.0961  0.2316  0.1443
   38MOL   H28412198   5.160   0.012   1.323  1.5793 -2.2299  0.2976
   38MOL   H28512199   5.074   0.210   1.248  1.3873 -0.8594  2.0535
   38MOL   H28612200   4.994   0.163   1.399  1.3084  0.5600 -0.3805
   38MOL   H28712201   4.896   0.215   1.262  1.5144  2.8573 -0.7816
   38MOL   H28812202   4.895   7.752   1.135  2.3840 -0.3552  1.8329
   38MOL   H28912203   4.804   0.020   1.122  0.6117  0.7200 -0.7563
   38MOL   C29012204   5.150   7.727   1.219  0.3827  0.9623  0.1905
   38MOL   C29112205   5.256   7.647   1.288 -0.4385 -0.5531  0.3727
   38MOL   C29212206   5.202   7.789   1.084  0.1026  0.2023 -1.0499
   38MOL   C29312207   5.140   7.718   0.966  0.5359 -0.2980 -0.1798
   38MOL   C29412208   5.156   7.564   0.964  0.3852  0.1090 -0.2949
   38MOL   C29512209   5.070   7.783   0.875 -0.1248 -0.4153 -0.2097
   38MOL   H29612210   5.078   7.649   1.194 -0.1901  1.2019  1.0793
   38MOL   H29712211   5.335   7.701   1.339 -2.7975  2.2266  1.2376
   38MOL   H29812212   5.315   7.582   1.223 -3.2114 -0.8099 -2.0254
   38MOL   H29912213   5.205   7.581   1.358 -3.5470  0.9807 -0.3528
   38MOL   H30012214   5.166   7.891   1.071  0.1640  0.7136  2.1604
   38MOL   H30112215   5.258   7.529   0.977  0.4876  0.7563  0.7047
   38MOL   H30212216   5.124   7.531   0.865  1.4707 -1.5079 -0.1208
   38MOL   H30312217   5.092   7.517   1.039  0.7078  0.7842  0.4190
   38MOL   H30412218   5.055   7.890   0.883 -2.9457 -0.7167 -0.9869
   38MOL   H30512219   5.017   7.729   0.798  0.0062 -1.1097  0.1788
   38MOL   C30612220   5.361   7.810   1.064  0.0904 -1.1812 -0.1025
   38MOL   C30712221   5.405   0.033   1.151  0.3542 -0.4786 -0.6067
   38MOL   C30812222   5.409   7.821   0.914  0.6819  0.2606  0.5041
   38MOL   C30912223   5.542   7.886   0.904 -0.6078  1.1217 -0.2295
   38MOL   C31012224   5.657   7.794   0.926 -0.2564 -0.2489 -0.2266
   38MOL   C31112225   5.552   0.127   0.891 -0.1461  0.3403 -0.1749
   38MOL   H31212226   5.412   7.722   1.102  2.2921 -0.4587 -1.3114
   38MOL   H31312227   5.510   0.062   1.138  0.1459 -0.7069 -2.9750
   38MOL   H31412228   5.384   0.012   1.256 -0.6336  1.2729 -0.4358
   38MOL   H31512229   5.345   0.123   1.138 -0.1370 -0.3717  2.0036
   38MOL   H31612230   5.406   7.720   0.873 -1.1065 -0.3921  2.1395
   38MOL   H31712231   5.653   7.727   0.840  1.6064  2.6044 -2.6308
   38MOL   H31812232   5.648   7.745   1.023 -0.6004  0.0762 -0.0957
   38MOL   H31912233   5.751   7.848   0.916  0.8807 -2.2239 -0.2706
   38MOL   H32012234   5.473   0.201   0.897  0.0396  0.4300  1.4173
   38MOL   H32112235   5.652   0.166   0.881 -0.0202 -0.4226 -2.0187
   38MOL   H32212236   5.335   7.870   0.851 -0.8806 -1.4304  0.9733
   39MOL     C112237   0.989   6.009   0.337 -0.1346 -0.4613 -0.5516
   39MOL     C212238   0.985   5.996   0.186 -0.5619 -0.1978 -0.0711
   39MOL     C312239   0.889   5.919   0.420 -0.1768 -0.1061  0.0273
   39MOL     C412240   0.743   5.942   0.385  0.4876 -0.5507  0.2345
   39MOL     C512241   0.689   6.072   0.426 -0.4192  0.4481 -0.3447
   39MOL     C612242   0.678   5.855   0.310  0.4463 -0.3048 -0.0837
   39MOL     H712243   1.089   5.994   0.377 -0.7295  0.9337  1.5867
   39MOL     H812244   1.075   6.042   0.145 -1.9326  2.3340 -0.3289
   39MOL     H912245   0.908   6.068   0.159 -0.0131 -0.1621 -1.5948
   39MOL    H1012246   0.973   5.900   0.136 -1.2210  1.1357 -2.5632
   39MOL    H1112247   0.913   5.820   0.382  1.4107  1.0148 -2.0476
   39MOL    H1212248   0.693   6.069   0.535  0.7145  1.1375 -0.3521
   39MOL    H1312249   0.589   6.100   0.394  0.1151  0.7356 -1.8327
   39MOL    H1412250   0.751   6.155   0.391 -1.1903  1.0538 -0.3014
   39MOL    H1512251   0.730   5.766   0.277 -0.3648 -1.0121  0.5292
   39MOL    H1612252   0.575   5.876   0.284  0.7708  0.1823 -1.0029
   39MOL    H1712253   0.952   6.111   0.353  0.2642 -0.2985 -0.6775
   39MOL    C1812254   0.911   5.917   0.580  0.3332  0.1659 -0.1151
   39MOL    C1912255   0.969   6.050   0.626  0.1999 -0.7081  0.0501
   39MOL    C2012256   0.991   5.799   0.647 -0.0820 -0.1576  0.1178
   39MOL    C2112257   1.140   5.785   0.581  0.2488  0.4282  0.1849
   39MOL    C2212258   1.146   5.694   0.462 -0.5462  0.2517  0.5119
   39MOL    C2312259   1.258   5.816   0.645  0.6976  0.2742  0.5138
   39MOL    H2412260   0.811   5.904   0.621  0.4631 -1.8919 -0.4098
   39MOL    H2512261   0.915   6.138   0.592  3.0868  0.8666 -0.5750
   39MOL    H2612262   1.075   6.057   0.602 -0.0603  1.9801 -0.4539
   39MOL    H2712263   0.972   6.068   0.734  1.5048 -2.4227  0.3231
   39MOL    H2812264   1.031   5.839   0.740 -1.1092  2.4531 -0.4941
   39MOL    H2912265   1.097   5.739   0.375  1.3598  0.1729 -0.6244
   39MOL    H3012266   1.099   5.597   0.469 -1.0768  0.3104 -1.7750
   39MOL    H3112267   1.249   5.680   0.428 -1.9993 -2.2685 -3.1026
   39MOL    H3212268   1.259   5.852   0.747 -0.4236  1.1599  0.2332
   39MOL    H3312269   1.354   5.791   0.602  0.6521  0.2329  0.4370
   39MOL    C3412270   0.913   5.671   0.683  0.5602  0.0165 -0.5749
   39MOL    C3512271   0.830   5.609   0.567 -0.9966 -0.6470 -0.9094
   39MOL    C3612272   0.824   5.680   0.812  0.6863 -0.3336 -0.2330
   39MOL    C3712273   0.893   5.746   0.938  0.5586 -0.9451  0.2836
   39MOL    C3812274   1.009   5.670   1.002  0.1065  0.3783  0.4936
   39MOL    C3912275   0.845   5.860   0.994 -0.1686 -0.0209  0.7047
   39MOL    H4012276   0.976   5.589   0.717  0.3247  0.4176  0.8800
   39MOL    H4112277   0.739   5.662   0.539 -0.0114  1.0963 -0.8836
   39MOL    H4212278   0.826   5.500   0.576 -0.1618 -0.5808  0.3554
   39MOL    H4312279   0.882   5.628   0.473 -0.1286 -0.8726 -0.4847
   39MOL    H4412280   0.757   5.762   0.789  0.9679 -0.3485 -1.1018
   39MOL    H4512281   0.974   5.571   1.031 -0.0311 -0.2892 -1.7906
   39MOL    H4612282   1.055   5.712   1.091  1.2354 -0.2114  0.1956
   39MOL    H4712283   1.090   5.652   0.931 -2.2537 -1.6568 -1.7966
   39MOL    H4812284   0.765   5.917   0.947  0.3839  0.4046  0.2719
   39MOL    H4912285   0.886   5.895   1.087  0.2593 -0.0456  0.5252
   39MOL    C5012286   0.734   5.551   0.853 -0.5016 -0.5391  0.0780
   39MOL    C5112287   0.813   5.414   0.852 -0.6614 -0.0830  0.1893
   39MOL    C5212288   0.595   5.544   0.794  1.1312  0.3318 -0.1583
   39MOL    C5312289   0.509   5.669   0.826 -0.0270 -0.5367 -0.0385
   39MOL    C5412290   0.417   5.716   0.717  0.3853 -0.0787  0.7523
   39MOL    C5512291   0.515   5.735   0.944  0.0956 -0.0592  0.0120
   39MOL    H5612292   0.722   5.555   0.962  0.6429  1.9299  0.1291
   39MOL    H5712293   0.919   5.427   0.874 -0.4225 -0.3223 -0.7812
   39MOL    H5812294   0.807   5.381   0.748  1.1702  0.2523 -0.0339
   39MOL    H5912295   0.778   5.344   0.928  0.7383  1.0759  1.9377
   39MOL    H6012296   0.613   5.549   0.686 -1.0499  1.7748 -0.4842
   39MOL    H6112297   0.314   5.702   0.748 -1.1576  4.0216 -2.1599
   39MOL    H6212298   0.440   5.675   0.619  1.2265 -0.6171  1.1644
   39MOL    H6312299   0.439   5.823   0.721 -0.8202  0.2030 -0.0447
   39MOL    H6412300   0.578   5.715   1.030 -1.2938  0.4007  1.1724
   39MOL    H6512301   0.445   5.817   0.956  0.5893  0.0817  2.3231
   39MOL    C6612302   0.511   5.416   0.839 -0.6746 -0.7888  0.1198
   39MOL    C6712303   0.482   5.407   0.995 -0.0364  0.1452  0.5208
   39MOL    C6812304   0.533   5.288   0.750 -0.3748 -0.7732 -0.6246
   39MOL    C6912305   0.555   5.322   0.602  0.7894 -0.2108  0.2996
   39MOL    C7012306   0.447   5.396   0.521 -0.4554 -0.4001 -0.3398
   39MOL    C7112307   0.665   5.283   0.531  0.6785 -0.4062 -0.2224
   39MOL    H7212308   0.409   5.437   0.809 -1.5449 -3.8314  0.8130
   39MOL    H7312309   0.395   5.343   1.010 -0.4051  0.9984  2.1364
   39MOL    H7412310   0.459   5.492   1.059 -0.6553 -0.3023  0.8918
   39MOL    H7512311   0.571   5.365   1.042  0.4416  1.9569  1.2900
   39MOL    H7612312   0.625   5.235   0.770 -0.5897 -0.1034  2.3286
   39MOL    H7712313   0.484   5.457   0.439  0.6025 -1.6536 -0.8239
   39MOL    H7812314   0.391   5.461   0.589  0.5254 -0.8291  0.9104
   39MOL    H7912315   0.378   5.319   0.486 -2.4289  1.9747 -1.7988
   39MOL    H8012316   0.743   5.229   0.583  0.6049  0.8120  1.1950
   39MOL    H8112317   0.677   5.313   0.428  0.5141  1.8187  0.3780
   39MOL    C8212318   0.419   5.175   0.759 -0.4196  0.7953 -0.2705
   39MOL    C8312319   0.274   5.242   0.767 -0.1721 -0.3884  0.0325
   39MOL    C8412320   0.452   5.080   0.880  1.0678  0.2697 -0.3263
   39MOL    C8512321   0.588   5.012   0.857 -0.3506  0.3564  0.7636
   39MOL    C8612322   0.596   4.901   0.747 -0.0132 -0.1132 -0.4668
   39MOL    C8712323   0.687   5.027   0.943 -0.9100  0.1299  0.3626
   39MOL    H8812324   0.424   5.112   0.670 -1.8049  0.3489 -0.0476
   39MOL    H8912325   0.244   5.274   0.866 -1.0750 -0.3902 -0.2360
   39MOL    H9012326   0.192   5.176   0.739 -0.2472 -0.8173  1.2481
   39MOL    H9112327   0.272   5.336   0.713 -1.5655 -0.7280 -0.5435
   39MOL    H9212328   0.456   5.140   0.971  0.8194 -0.7599  0.3639
   39MOL    H9312329   0.541   4.932   0.659  1.3944  1.1051 -0.9394
   39MOL    H9412330   0.558   4.805   0.783 -1.7900  1.0995  0.9848
   39MOL    H9512331   0.697   4.889   0.708 -0.4301 -1.2692 -1.2205
   39MOL    H9612332   0.694   5.102   1.021  0.9046 -0.5485  0.8627
   39MOL    H9712333   0.770   4.961   0.925  1.1623  2.3669  1.4617
   39MOL    C9812334   0.333   4.973   0.926  0.2604 -0.8811  0.6746
   39MOL    C9912335   0.258   4.895   0.813 -0.4076  0.2681  0.5365
   39MOL   C10012336   0.234   5.025   1.041  0.2628  0.5014 -0.5601
   39MOL   C10112337   0.305   5.108   1.150  0.0624 -0.7314  0.1580
   39MOL   C10212338   0.215   5.220   1.205 -0.8408 -0.4710 -0.0795
   39MOL   C10312339   0.428   5.086   1.198  0.3302  0.5539 -0.3451
   39MOL   H10412340   0.397   4.896   0.969  1.7099  0.7075  1.3766
   39MOL   H10512341   0.337   4.837   0.767  0.2523  0.1195  1.8174
   39MOL   H10612342   0.207   4.952   0.735  2.3043  1.8643 -0.1402
   39MOL   H10712343   0.189   4.818   0.846 -0.9123  0.5334  0.1155
   39MOL   H10812344   0.170   5.093   0.985 -0.7872  0.4741  0.5643
   39MOL   H10912345   0.277   5.286   1.266 -1.2357 -0.2469  0.0863
   39MOL   H11012346   0.134   5.183   1.269  0.4440 -1.2831  1.1022
   39MOL   H11112347   0.185   5.276   1.116  0.2839  1.7061  0.8592
   39MOL   H11212348   0.498   5.011   1.164  0.8315  1.1361 -0.6304
   39MOL   H11312349   0.465   5.158   1.270  0.7394 -1.0565  1.0919
   39MOL   C11412350   0.144   4.913   1.117 -0.5021  0.5680 -0.5382
   39MOL   C11512351   0.230   4.793   1.163  0.4400 -0.1557  0.1208
   39MOL   C11612352   0.018   4.863   1.053  0.4278 -0.3790  0.3981
   39MOL   C11712353   7.848   4.975   0.968 -0.6842 -0.6687  0.5342
   39MOL   C11812354   7.792   5.096   1.037  0.4003  1.1674  0.1749
   39MOL   C11912355   7.830   4.957   0.837 -0.7012  0.6636 -0.0232
   39MOL   H12012356   0.111   4.963   1.208 -0.0487 -2.3403  1.3004
   39MOL   H12112357   0.261   4.730   1.080  0.3500  2.3857 -1.8955
   39MOL   H12212358   0.174   4.737   1.238 -2.2431  0.7755 -1.1294
   39MOL   H12312359   0.327   4.825   1.203  0.2028  1.2572 -0.4251
   39MOL   H12412360   0.039   4.776   0.992 -0.4369 -1.1072  1.1205
   39MOL   H12512361   7.731   5.161   0.973 -0.0920 -0.7616 -1.3756
   39MOL   H12612362   7.867   5.160   1.084 -0.2190 -0.0391  2.8920
   39MOL   H12712363   7.718   5.076   1.115  0.1936  1.2307 -0.0041
   39MOL   H12812364   7.862   4.872   0.779 -0.5446  0.5281  0.2581
   39MOL   H12912365   7.776   5.029   0.779 -0.2861  1.2701  0.3364
   39MOL   C13012366   7.790   4.801   1.144 -0.0994  0.3017  0.5417
   39MOL   C13112367   7.788   4.833   1.291  0.4109 -0.0911  0.3185
   39MOL   C13212368   7.776   4.643   1.134 -0.5032  1.1324 -0.0721
   39MOL   C13312369   0.006   4.552   1.144  0.1923  0.4435  0.3460
   39MOL   C13412370   0.077   4.512   1.016  0.8827 -0.8822 -0.1635
   39MOL   C13512371   0.036   4.486   1.255  0.1807 -0.1280 -0.1898
   39MOL   H13612372   7.693   4.835   1.108 -0.5168 -3.1053 -1.7856
   39MOL   H13712373   7.695   4.813   1.344  0.3328  2.2723  1.1722
   39MOL   H13812374   7.788   4.939   1.320 -3.1820 -0.5191  2.1150
   39MOL   H13912375   7.867   4.778   1.343 -0.0500 -0.2857  0.8136
   39MOL   H14012376   7.731   4.616   1.229 -0.8872  3.2780  0.3718
   39MOL   H14112377   0.144   4.430   1.042 -0.3956 -1.6834  0.7273
   39MOL   H14212378   0.129   4.595   0.969  1.7080 -0.9275  0.6499
   39MOL   H14312379   0.009   4.471   0.942  0.2728  0.5206 -0.3910
   39MOL   H14412380   7.872   4.500   1.346  1.2818  0.9410  0.3491
   39MOL   H14512381   0.113   4.411   1.244  0.1056 -0.0386 -1.3238
   39MOL   C14612382   7.677   4.584   1.027  0.0564 -0.7627  0.2604
   39MOL   C14712383   7.688   4.648   0.886 -0.2423  0.4188  0.0659
   39MOL   C14812384   7.533   4.592   1.099 -0.2794 -0.0726 -0.1196
   39MOL   C14912385   7.528   4.495   1.224 -0.5506 -0.2290  0.3124
   39MOL   C15012386   7.471   4.555   1.346 -0.1526  0.7113 -0.4232
   39MOL   C15112387   7.576   4.368   1.214  0.6339 -0.0676 -0.5945
   39MOL   H15212388   7.702   4.478   1.019  0.0464 -0.5881 -2.9283
   39MOL   H15312389   7.611   4.623   0.814  0.0601 -0.4470  0.0401
   39MOL   H15412390   7.782   4.620   0.838 -1.0774 -0.9223 -0.7973
   39MOL   H15512391   7.686   4.756   0.899 -1.8442  0.2279  1.5343
   39MOL   H15612392   7.529   4.696   1.133  1.4662  0.1805 -0.6392
   39MOL   H15712393   7.467   4.475   1.420  2.3517  0.3814 -0.5926
   39MOL   H15812394   7.371   4.596   1.334 -0.5001  0.7035  2.1878
   39MOL   H15912395   7.534   4.638   1.376  0.1916  0.3157 -0.0441
   39MOL   H16012396   7.619   4.336   1.121 -1.6996  0.3819 -1.8722
   39MOL   H16112397   7.567   4.307   1.303 -0.5759  1.0931  0.1112
   39MOL   C16212398   7.402   4.567   1.017  0.0093 -0.5924  0.0030
   39MOL   C16312399   7.421   4.454   0.912  0.0897  0.2303  0.6440
   39MOL   C16412400   7.350   4.697   0.951 -0.2316  0.2288  0.2410
   39MOL   C16512401   7.326   4.804   1.055  0.0458  0.2588 -0.4428
   39MOL   C16612402   7.379   4.947   1.031 -0.1697 -0.5906 -0.3436
   39MOL   C16712403   7.251   4.778   1.163 -0.4614  0.3859 -0.4821
   39MOL   H16812404   7.321   4.526   1.077 -0.3411 -0.4083 -0.3398
   39MOL   H16912405   7.506   4.394   0.943 -0.4957  0.3386  2.5092
   39MOL   H17012406   7.444   4.484   0.809  0.5495  1.2327  1.0304
   39MOL   H17112407   7.338   4.383   0.917 -0.1316  0.5278  1.2454
   39MOL   H17212408   7.431   4.747   0.897 -0.1173  0.2151  0.3993
   39MOL   H17312409   7.363   5.008   1.121  0.5423  0.9438 -1.2363
   39MOL   H17412410   7.316   4.989   0.953 -2.2354 -1.1686  0.9689
   39MOL   H17512411   7.483   4.944   0.998  0.0026 -0.4963  0.1718
   39MOL   H17612412   7.217   4.678   1.184  0.5437  0.2691  0.7015
   39MOL   H17712413   7.224   4.856   1.233  1.9924 -2.2521  3.6325
   39MOL   C17812414   7.228   4.689   0.847 -0.6178 -0.1970 -0.3604
   39MOL   C17912415   7.119   4.594   0.902  0.7540 -0.4712 -0.1848
   39MOL   C18012416   7.268   4.659   0.702  0.2890 -0.4457 -0.4765
   39MOL   C18112417   7.395   4.723   0.649 -0.5210 -0.1657 -0.3156
   39MOL   C18212418   7.401   4.877   0.636  0.3837  0.0886  0.4605
   39MOL   C18312419   7.504   4.659   0.596  0.7351  0.4775 -0.0266
   39MOL   H18412420   7.193   4.791   0.834  0.0403 -0.0512 -1.0453
   39MOL   H18512421   7.021   4.625   0.866  0.5944 -0.0563  0.5747
   39MOL   H18612422   7.105   4.598   1.010  1.6531 -0.3428 -0.0713
   39MOL   H18712423   7.138   4.494   0.864  2.3304  0.1915 -1.1751
   39MOL   H18812424   7.297   4.554   0.706  3.3734  0.3446 -0.5211
   39MOL   H18912425   7.300   4.916   0.650  0.2672  1.0769 -2.7495
   39MOL   H19012426   7.428   4.903   0.534 -2.4451  0.7708 -0.1595
   39MOL   H19112427   7.465   4.924   0.711  0.8805 -0.9881  0.7281
   39MOL   H19212428   7.507   4.551   0.592  1.5157  0.5054 -0.3783
   39MOL   H19312429   7.594   4.697   0.550  0.8588  0.1433 -0.0642
   39MOL   C19412430   7.157   4.680   0.594  0.5690  0.3839 -0.3113
   39MOL   C19512431   7.047   4.792   0.619 -0.4520 -0.4748  0.0787
   39MOL   C19612432   7.098   4.551   0.529  0.0517 -0.4402  0.5565
   39MOL   C19712433   7.030   4.447   0.619 -0.1543 -0.0677 -0.0663
   39MOL   C19812434   6.883   4.476   0.659  0.4769  0.4873 -0.2881
   39MOL   C19912435   7.091   4.335   0.665 -0.8438 -0.8244 -0.0121
   39MOL   H20012436   7.211   4.725   0.511  1.5004 -0.2131 -0.0390
   39MOL   H20112437   7.089   4.888   0.651  0.1012 -1.2109  1.6661
   39MOL   H20212438   6.981   4.773   0.704  0.3277 -1.1791  0.5390
   39MOL   H20312439   6.992   4.811   0.527  1.9071  0.5526 -1.1661
   39MOL   H20412440   7.008   4.602   0.495  1.2663  0.7096 -0.9722
   39MOL   H20512441   6.821   4.493   0.570  0.0785  2.0379  0.2708
   39MOL   H20612442   6.879   4.571   0.713  0.4956  0.6164 -0.5101
   39MOL   H20712443   6.838   4.407   0.730 -0.5309 -0.2004 -1.5749
   39MOL   H20812444   7.191   4.307   0.636 -0.9265 -0.5453 -0.5709
   39MOL   H20912445   7.037   4.273   0.735  0.8037 -1.3186  0.8429
   39MOL   C21012446   7.168   4.488   0.400 -0.1083 -0.1384 -0.1861
   39MOL   C21112447   7.291   4.569   0.337 -0.0673  0.4811  0.6045
   39MOL   C21212448   7.060   4.458   0.291  0.4634  0.5850  0.1942
   39MOL   C21312449   7.083   4.320   0.227  0.3296  0.6439  0.5820
   39MOL   C21412450   7.023   4.200   0.300  0.2459  0.9061  0.0738
   39MOL   C21512451   7.161   4.306   0.111  0.0383  0.5652  0.2499
   39MOL   H21612452   7.214   4.397   0.436 -0.1725 -1.6148 -3.6797
   39MOL   H21712453   7.275   4.671   0.301 -1.4061  0.3613  0.8255
   39MOL   H21812454   7.335   4.521   0.249 -0.0762  1.1347  0.2378
   39MOL   H21912455   7.374   4.584   0.406  0.6881  2.2180 -0.6306
   39MOL   H22012456   6.970   4.438   0.350  0.7798 -0.5150  0.3015
   39MOL   H22112457   6.916   4.198   0.320  0.1457 -1.3805 -0.5622
   39MOL   H22212458   7.078   4.179   0.392  0.7285  2.1580  0.0819
   39MOL   H22312459   7.048   4.116   0.236 -1.7614 -0.0982  0.5461
   39MOL   H22412460   7.198   4.392   0.057 -1.4022  0.2387 -1.3013
   39MOL   H22512461   7.195   4.217   0.061  0.0132 -1.1793  3.2180
   39MOL   C22612462   7.013   4.569   0.188  0.5696  0.0048  0.2379
   39MOL   C22712463   6.990   4.707   0.262 -0.0920  0.3529 -0.1866
   39MOL   C22812464   6.903   4.527   0.084 -0.0620 -0.1715 -0.5300
   39MOL   C22912465   6.926   4.604   7.844 -0.1765  0.5914  0.1098
   39MOL   C23012466   6.874   4.749   7.834  0.7372 -0.0135 -0.2051
   39MOL   C23112467   6.989   4.549   7.740 -0.5181  0.5824 -0.2679
   39MOL   H23212468   7.104   4.595   0.134 -0.0278  2.3980  0.2997
   39MOL   H23312469   7.075   4.726   0.327  1.4191 -2.4406 -1.2870
   39MOL   H23412470   6.905   4.695   0.330 -0.1029 -1.9139 -0.5617
   39MOL   H23512471   6.978   4.792   0.195 -0.3344  0.8322  0.4698
   39MOL   H23612472   6.920   4.421   0.063 -0.7080 -0.2925 -0.4523
   39MOL   H23712473   6.957   4.819   7.827  0.7332  0.1040  0.7718
   39MOL   H23812474   6.819   4.773   0.033  1.0681 -1.9889  0.5447
   39MOL   H23912475   6.803   4.766   7.754  0.4172  1.2776  0.3463
   39MOL   H24012476   7.017   4.446   7.756 -0.7311  0.3999 -1.0635
   39MOL   H24112477   7.013   4.585   7.641  0.5189  2.8250  0.7739
   39MOL   C24212478   6.757   4.534   0.131  0.6613 -0.4159  0.3351
   39MOL   C24312479   6.733   4.440   0.252 -0.3316 -0.5285 -0.4404
   39MOL   C24412480   6.642   4.512   0.019 -0.2417 -0.4318  0.3992
   39MOL   C24512481   6.543   4.622   0.047  0.1284  0.2353 -0.2746
   39MOL   C24612482   6.445   4.590   0.156 -0.3608  0.2908 -0.5299
   39MOL   C24712483   6.538   4.739   7.872  0.1216  0.2055  0.6683
   39MOL   H24812484   6.738   4.629   0.182 -1.6673 -0.9793  0.5765
   39MOL   H24912485   6.779   4.342   0.239  1.4977  0.3549 -0.6694
   39MOL   H25012486   6.629   4.407   0.258  0.0319 -1.7240 -0.4260
   39MOL   H25112487   6.767   4.482   0.346  2.5501 -1.2462 -1.1264
   39MOL   H25212488   6.691   4.547   7.821  1.4501  1.6922  2.0878
   39MOL   H25312489   6.493   4.578   0.253  3.1455 -1.6552 -2.3821
   39MOL   H25412490   6.392   4.496   0.140 -1.5773  0.3874  2.4952
   39MOL   H25512491   6.362   4.661   0.160 -0.1792  0.4527  0.4949
   39MOL   H25612492   6.607   4.769   7.794  2.6102  0.1352  2.7718
   39MOL   H25712493   6.465   4.811   0.013  1.1440  0.0176  3.4130
   39MOL   C25812494   6.586   4.364   7.889  0.3805  0.0557  0.4425
   39MOL   C25912495   6.684   4.248   7.863  0.3053 -0.2580  0.7033
   39MOL   C26012496   6.475   4.352   7.775 -0.0215  0.1007 -0.3663
   39MOL   C26112497   6.390   4.224   7.802 -0.2195 -0.6866  0.4376
   39MOL   C26212498   6.264   4.243   7.883 -0.1571 -0.0514  0.2032
   39MOL   C26312499   6.422   4.107   7.741 -0.1442 -0.0139  0.3423
   39MOL   H26412500   6.536   4.341   0.090  0.2186 -1.3977  0.0014
   39MOL   H26512501   6.769   4.255   0.038  0.1898 -0.6088  0.8852
   39MOL   H26612502   6.731   4.265   7.766 -1.0536  0.5093  0.1633
   39MOL   H26712503   6.634   4.152   7.867  0.4563 -0.3768 -0.2692
   39MOL   H26812504   6.403   4.432   7.794  0.0776  0.2591 -0.6571
   39MOL   H26912505   6.246   4.149   0.043  2.4767 -0.5622  0.3025
   39MOL   H27012506   6.179   4.276   7.825 -0.3400 -0.7074  0.0892
   39MOL   H27112507   6.281   4.309   0.076  1.1945  1.1484 -0.9653
   39MOL   H27212508   6.513   4.090   7.685 -0.1165 -2.3784  1.0406
   39MOL   H27312509   6.344   4.033   7.749 -0.8780  0.9387  2.3263
   39MOL   C27412510   6.528   4.367   7.619  0.0439 -0.0032 -0.4740
   39MOL   C27512511   6.643   4.463   7.586  0.2377 -0.1242 -0.1412
   39MOL   C27612512   6.403   4.386   7.519 -0.2595  0.1181 -0.2737
   39MOL   C27712513   6.424   4.287   7.403  0.1293  0.0929  0.3438
   39MOL   C27812514   6.542   4.315   7.310 -0.2479  0.3726  0.4632
   39MOL   C27912515   6.352   4.175   7.396 -0.2812  0.2489  0.5930
   39MOL   H28012516   6.577   4.276   7.584 -1.6104 -1.0336 -0.1641
   39MOL   H28112517   6.612   4.563   7.614  1.8668  0.7598 -1.4046
   39MOL   H28212518   6.665   4.468   7.479  2.1662  3.3501  0.3278
   39MOL   H28312519   6.737   4.439   7.637  0.2224  0.1893  0.0373
   39MOL   H28412520   6.317   4.338   7.567  1.6904 -1.3176  1.9247
   39MOL   H28512521   6.636   4.316   7.366  0.6236 -3.1509 -0.8024
   39MOL   H28612522   6.534   4.417   7.272  1.4569  0.5165  0.4347
   39MOL   H28712523   6.555   4.240   7.232  1.6780  0.5925  0.5337
   39MOL   H28812524   6.278   4.146   7.469  0.6689 -3.0363  0.3505
   39MOL   H28912525   6.365   4.110   7.310  0.7760  2.5610 -1.0402
   39MOL   C29012526   6.372   4.537   7.475  0.7096 -0.2879  0.2338
   39MOL   C29112527   6.325   4.619   7.595 -1.2016 -0.2845 -0.7513
   39MOL   C29212528   6.283   4.561   7.346  0.5219  0.4092 -0.1771
   39MOL   C29312529   6.332   4.701   7.289 -0.0206 -0.2541 -0.1375
   39MOL   C29412530   6.451   4.702   7.192  0.2118  0.4144 -0.0663
   39MOL   C29512531   6.289   4.819   7.330  0.2136 -0.5986 -0.6903
   39MOL   H29612532   6.463   4.590   7.448  0.2200  0.7337  0.5690
   39MOL   H29712533   6.223   4.613   7.633 -0.9884 -1.0787 -0.2787
   39MOL   H29812534   6.330   4.725   7.571 -0.0902 -0.4529 -1.2971
   39MOL   H29912535   6.391   4.603   7.680 -0.7020  1.7029 -0.7466
   39MOL   H30012536   6.293   4.488   7.267  0.6743  1.1933 -0.8854
   39MOL   H30112537   6.457   4.798   7.140 -2.2738  1.0061  0.6399
   39MOL   H30212538   6.430   4.623   7.120  0.9248  0.4810 -0.3463
   39MOL   H30312539   6.542   4.673   7.245 -0.0193  0.2485  0.2393
   39MOL   H30412540   6.207   4.836   7.398  0.4545  0.9708 -0.7724
   39MOL   H30512541   6.342   4.907   7.298  2.0667 -0.4804  2.4776
   39MOL   C30612542   6.133   4.557   7.356 -0.3150 -0.1868 -0.5660
   39MOL   C30712543   6.082   4.431   7.426  0.0070 -0.2603  0.8587
   39MOL   C30812544   6.063   4.579   7.220  0.0316 -0.1373  0.6101
   39MOL   C30912545   5.917   4.624   7.223  0.6087  0.4048 -0.3398
   39MOL   C31012546   5.892   4.770   7.258  0.6413  0.1966  0.2984
   39MOL   C31112547   5.821   4.536   7.199 -0.1847 -1.0773  0.1368
   39MOL   H31212548   6.100   4.637   7.423 -0.3820 -1.8050  1.4100
   39MOL   H31312549   6.113   4.339   7.376  0.9933  0.7096 -0.3632
   39MOL   H31412550   5.975   4.428   7.444 -0.4392  1.9046 -1.2484
   39MOL   H31512551   6.121   4.418   7.527  1.8601  0.2076  0.2306
   39MOL   H31612552   6.109   4.644   7.145 -0.7124  0.4387  0.6456
   39MOL   H31712553   5.891   4.778   7.367  2.2993  0.3119  0.3292
   39MOL   H31812554   5.793   4.797   7.223 -0.4852 -3.7101  0.2223
   39MOL   H31912555   5.973   4.826   7.211  2.5081 -2.1841  0.5398
   39MOL   H32012556   5.852   4.435   7.173  2.1382 -0.1885 -0.6327
   39MOL   H32112557   5.718   4.568   7.205 -0.5076 -2.0242 -0.2343
   39MOL   H32212558   6.066   4.483   7.168 -1.7874  0.3902 -0.5166
   40MOL     C112559   1.120   6.250   3.235 -0.1223  0.3792 -0.0827
   40MOL     C212560   0.996   6.341   3.246  0.5920 -0.1253 -0.1445
   40MOL     C312561   1.264   6.316   3.255 -0.0104 -0.0641 -0.0625
   40MOL     C412562   1.370   6.236   3.194 -0.2443 -0.3641 -0.1800
   40MOL     C512563   1.381   6.252   3.045 -0.1476  0.2516  0.5349
   40MOL     C612564   1.456   6.159   3.260 -0.3427  0.5239  0.2231
   40MOL     H712565   1.102   6.168   3.304 -2.0250  1.3251  0.5855
   40MOL     H812566   0.988   6.366   3.352 -1.5010  1.2867 -0.5975
   40MOL     H912567   0.902   6.289   3.225 -0.0078  0.7298  0.3903
   40MOL    H1012568   1.010   6.438   3.198 -0.3336  0.0186 -0.1383
   40MOL    H1112569   1.255   6.401   3.188  0.2860  0.5351  0.6448
   40MOL    H1212570   1.332   6.167   2.998  0.2073 -0.3020  1.1652
   40MOL    H1312571   1.486   6.270   3.019 -0.1783  2.1144  1.5932
   40MOL    H1412572   1.327   6.341   3.011 -3.7652 -1.0022  2.8069
   40MOL    H1512573   1.453   6.138   3.366 -4.2088 -2.5104 -0.3720
   40MOL    H1612574   1.530   6.101   3.207 -0.5747  0.4680 -0.0384
   40MOL    H1712575   1.116   6.202   3.137  2.4537 -1.9095  0.8825
   40MOL    C1812576   1.298   6.368   3.408  0.3227 -0.3084 -1.0182
   40MOL    C1912577   1.232   6.279   3.516 -0.2956  0.6726 -0.0609
   40MOL    C2012578   1.271   6.525   3.424  0.1199 -0.3001 -0.6748
   40MOL    C2112579   1.320   6.612   3.306  0.0336  0.1329  0.3203
   40MOL    C2212580   1.255   6.746   3.280 -0.7706 -0.0680  0.1224
   40MOL    C2312581   1.429   6.575   3.236 -0.6422 -0.7405  0.0852
   40MOL    H2412582   1.405   6.350   3.417  0.1799 -0.7864 -0.1996
   40MOL    H2512583   1.241   6.173   3.493 -0.2238  0.7491 -0.3872
   40MOL    H2612584   1.125   6.295   3.526 -0.0528  0.5790  3.3238
   40MOL    H2712585   1.281   6.305   3.610 -0.4032  3.1821 -0.6588
   40MOL    H2812586   1.162   6.530   3.421  0.1214 -0.5817 -1.3077
   40MOL    H2912587   1.151   6.744   3.311 -1.3467 -0.1723 -1.7476
   40MOL    H3012588   1.265   6.777   3.176 -0.6347 -1.1741 -0.2080
   40MOL    H3112589   1.312   6.818   3.338 -0.6327  0.0305 -0.1308
   40MOL    H3212590   1.473   6.477   3.255 -1.5033 -0.6932  2.5858
   40MOL    H3312591   1.478   6.633   3.160  2.4022 -2.7644  0.3985
   40MOL    C3412592   1.316   6.598   3.554  0.5984  0.3337  0.0767
   40MOL    C3512593   1.463   6.546   3.599 -0.1759 -0.2606 -1.0650
   40MOL    C3612594   1.197   6.584   3.669  0.1987  0.5023  0.2302
   40MOL    C3712595   1.052   6.620   3.629  0.5352 -1.0631 -0.0814
   40MOL    C3812596   1.028   6.757   3.576  0.0759  0.0751  0.2845
   40MOL    C3912597   0.955   6.527   3.646  0.6654 -0.9698 -0.3569
   40MOL    H4012598   1.326   6.705   3.536  1.8855 -0.0541 -1.6619
   40MOL    H4112599   1.464   6.442   3.631  0.6226  0.4897  1.4818
   40MOL    H4212600   1.504   6.620   3.668 -0.2981  0.3609 -1.6623
   40MOL    H4312601   1.524   6.553   3.509 -1.6914  5.5207 -1.8127
   40MOL    H4412602   1.197   6.481   3.702 -0.1893  0.1304 -0.8930
   40MOL    H4512603   1.010   6.822   3.661 -1.3611  0.8156 -0.5697
   40MOL    H4612604   0.945   6.774   3.508  1.6221 -1.0491 -1.9564
   40MOL    H4712605   1.118   6.792   3.525 -0.2306 -0.2868 -0.5241
   40MOL    H4812606   0.977   6.426   3.676  0.1508 -0.8033  0.5967
   40MOL    H4912607   0.854   6.544   3.612  0.8601  0.2092 -0.3973
   40MOL    C5012608   1.240   6.651   3.805  0.1095 -0.4715 -0.8233
   40MOL    C5112609   1.297   6.791   3.773 -0.0106  0.2312 -0.4439
   40MOL    C5212610   1.314   6.550   3.897 -0.0947  0.7502 -0.2966
   40MOL    C5312611   1.241   6.412   3.925  0.4114 -0.1964 -0.2952
   40MOL    C5412612   1.106   6.416   3.990  0.0216  0.1900  0.2640
   40MOL    C5512613   1.289   6.294   3.875  0.4416 -0.4865  0.4341
   40MOL    H5612614   1.146   6.664   3.859  1.0382 -1.4295  1.0558
   40MOL    H5712615   1.312   6.851   3.863 -0.7896  1.9050 -1.4131
   40MOL    H5812616   1.237   6.852   3.705 -0.6880  0.4247  0.3126
   40MOL    H5912617   1.398   6.792   3.734 -0.2009 -0.6747 -0.9743
   40MOL    H6012618   1.407   6.512   3.855  0.4254  1.9032 -0.2355
   40MOL    H6112619   1.127   6.410   4.097  1.3529  0.2331  0.0159
   40MOL    H6212620   1.038   6.333   3.971  0.4249 -0.2361  0.6856
   40MOL    H6312621   1.042   6.502   3.974 -1.5952 -0.8259  1.0748
   40MOL    H6412622   1.385   6.289   3.824  0.1935 -2.9646  0.1793
   40MOL    H6512623   1.239   6.199   3.883  0.7324 -0.6742  0.0152
   40MOL    C6612624   1.368   6.613   4.031 -0.7728 -0.6338  1.2636
   40MOL    C6712625   1.262   6.689   4.116  0.3390 -0.3389  0.6155
   40MOL    C6812626   1.504   6.692   4.016 -0.3588  0.0176  0.3228
   40MOL    C6912627   1.621   6.613   3.947 -0.5957 -0.6718 -0.4495
   40MOL    C7012628   1.723   6.700   3.871 -0.3239  0.0346 -0.2491
   40MOL    C7112629   1.631   6.475   3.951 -0.5226 -0.5091  0.5495
   40MOL    H7212630   1.400   6.525   4.087  0.4434 -2.0199 -1.5289
   40MOL    H7312631   1.259   6.795   4.091  0.6363 -1.4368 -4.5125
   40MOL    H7412632   1.302   6.693   4.217  0.2137 -0.7899  0.6868
   40MOL    H7512633   1.163   6.642   4.118 -0.8522  2.0921  1.0080
   40MOL    H7612634   1.493   6.780   3.952 -1.2349 -0.2401  0.1133
   40MOL    H7712635   1.672   6.783   3.822 -1.7809 -1.0354 -0.5877
   40MOL    H7812636   1.783   6.650   3.795  0.2254  0.1287  0.1262
   40MOL    H7912637   1.803   6.737   3.934 -1.0512  2.0012 -0.4366
   40MOL    H8012638   1.557   6.421   4.008  0.1044 -0.7704  1.1237
   40MOL    H8112639   1.711   6.428   3.896  1.5601 -0.4862  3.4635
   40MOL    C8212640   1.570   6.753   4.152  0.6143 -0.1635 -0.2031
   40MOL    C8312641   1.588   6.646   4.259  0.5954  0.1265  0.2794
   40MOL    C8412642   1.509   6.890   4.211  0.7092 -0.5577  0.1069
   40MOL    C8512643   1.486   6.994   4.104  0.9811  0.4451 -0.0564
   40MOL    C8612644   1.355   7.071   4.107  0.2152 -0.2431  0.1578
   40MOL    C8712645   1.573   7.027   4.007  0.4300 -0.2749 -0.1498
   40MOL    H8812646   1.672   6.785   4.132  0.4858 -0.7000 -1.7983
   40MOL    H8912647   1.668   6.675   4.327  0.1115 -0.7859  1.2644
   40MOL    H9012648   1.624   6.550   4.221  0.0473 -0.0972  0.3065
   40MOL    H9112649   1.495   6.636   4.316 -0.0252 -0.0734 -0.7426
   40MOL    H9212650   1.408   6.875   4.248  0.6192  0.4194  0.2462
   40MOL    H9312651   1.366   7.163   4.050  1.0096 -0.6173 -0.2921
   40MOL    H9412652   1.327   7.101   4.208 -1.1704 -0.6850 -0.0853
   40MOL    H9512653   1.268   7.020   4.066  0.6914 -0.7950 -0.1767
   40MOL    H9612654   1.666   6.976   3.988  0.2090 -1.3502  1.5713
   40MOL    H9712655   1.552   7.103   3.933 -0.5629  0.4795  0.9062
   40MOL    C9812656   1.568   6.949   4.344  0.0298 -0.2670 -0.9939
   40MOL    C9912657   1.719   6.978   4.331  0.3141  0.1700  0.0663
   40MOL   C10012658   1.518   6.880   4.483 -0.0769 -0.3304 -0.1492
   40MOL   C10112659   1.363   6.860   4.492 -0.2492  0.0302 -0.2417
   40MOL   C10212660   1.311   6.721   4.538 -0.4458 -0.1923 -0.3111
   40MOL   C10312661   1.272   6.960   4.473 -0.2959 -0.3908  0.0675
   40MOL   H10412662   1.530   7.051   4.349 -0.5539 -0.4173 -2.2444
   40MOL   H10512663   1.773   7.030   4.410 -0.9358  0.4444  0.7593
   40MOL   H10612664   1.743   7.030   4.238  0.7883 -0.3634 -0.1120
   40MOL   H10712665   1.773   6.884   4.323  0.3289  0.0200  1.7824
   40MOL   H10812666   1.554   6.778   4.473  1.4842  0.2635 -0.8371
   40MOL   H10912667   1.203   6.717   4.546 -0.3959  0.4302  0.8300
   40MOL   H11012668   1.343   6.703   4.641  0.3577  0.1116 -0.4990
   40MOL   H11112669   1.342   6.632   4.484 -1.6241 -0.7249 -0.1267
   40MOL   H11212670   1.303   7.053   4.428 -0.3116 -0.8484 -0.8893
   40MOL   H11312671   1.170   6.941   4.504 -0.0883  0.4544  1.3252
   40MOL   C11412672   1.566   6.935   4.628  0.2989  0.1461  0.2577
   40MOL   C11512673   1.537   7.086   4.637  0.6150  0.1554 -0.0550
   40MOL   C11612674   1.708   6.894   4.664  0.3454  0.4137  0.6465
   40MOL   C11712675   1.751   6.752   4.631  0.1616  0.0614 -0.3291
   40MOL   C11812676   1.679   6.641   4.710 -0.5770  0.7613  0.0887
   40MOL   C11912677   1.851   6.730   4.545 -0.2889  0.4094  0.8518
   40MOL   H12012678   1.500   6.884   4.698 -1.2301  1.1977 -0.4091
   40MOL   H12112679   1.576   7.141   4.552 -0.9058  4.1084  1.6857
   40MOL   H12212680   1.573   7.126   4.732 -0.0850 -1.1141  0.7696
   40MOL   H12312681   1.430   7.104   4.626  0.9066  1.5569 -0.6007
   40MOL   H12412682   1.770   6.955   4.598 -0.2371  1.1445  0.7736
   40MOL   H12512683   1.722   6.631   4.810  0.1991 -0.0877 -0.3325
   40MOL   H12612684   1.694   6.544   4.663 -3.0691  2.0304 -3.5435
   40MOL   H12712685   1.571   6.655   4.722 -0.5186  1.1954  0.1157
   40MOL   H12812686   1.903   6.814   4.502 -1.7684  0.7590 -0.3040
   40MOL   H12912687   1.892   6.633   4.521 -0.3131  0.1291  1.9072
   40MOL   C13012688   1.758   6.938   4.812 -0.4251  0.5994 -0.5708
   40MOL   C13112689   1.658   6.912   4.926  0.5022 -0.6023 -0.5457
   40MOL   C13212690   1.841   7.078   4.831  0.3374 -0.0669 -0.0588
   40MOL   C13312691   1.954   7.080   4.725  0.5031  0.2949 -0.3289
   40MOL   C13412692   1.968   7.206   4.644  0.3293 -0.1208 -0.2018
   40MOL   C13512693   2.022   6.969   4.697  0.2443  0.2634 -0.2809
   40MOL   H13612694   1.824   6.857   4.842  3.7424  3.3799 -1.8798
   40MOL   H13712695   1.611   6.815   4.907 -1.5996  0.3080 -0.1704
   40MOL   H13812696   1.575   6.982   4.929 -0.1947 -1.4100 -0.4498
   40MOL   H13912697   1.706   6.911   5.024 -0.4583 -0.6622 -0.0618
   40MOL   H14012698   1.785   7.168   4.806  1.4415  0.7458  0.3727
   40MOL   H14112699   1.879   7.213   4.582 -0.7281  1.6823  1.4424
   40MOL   H14212700   2.042   7.198   4.564  0.5139 -0.2369 -0.0214
   40MOL   H14312701   1.987   7.298   4.701  2.0284 -0.5559 -0.0265
   40MOL   H14412702   2.003   6.879   4.754  1.2387  0.2874  0.1143
   40MOL   H14512703   2.090   6.964   4.613 -0.6013  1.1559 -1.0162
   40MOL   C14612704   1.879   7.136   4.968  0.1151 -1.3139 -0.8527
   40MOL   C14712705   1.980   7.045   5.041 -0.0049  0.7528  0.4013
   40MOL   C14812706   1.771   7.210   5.055 -0.1730  0.8835 -0.3019
   40MOL   C14912707   1.690   7.325   4.990  0.9144 -0.1078 -0.0532
   40MOL   C15012708   1.541   7.333   5.032 -0.0233 -0.4709 -0.0333
   40MOL   C15112709   1.749   7.423   4.921 -0.1203 -0.5583  0.3493
   40MOL   H15212710   1.930   7.223   4.927  1.8225 -1.1366  1.5354
   40MOL   H15312711   1.928   6.952   5.067  0.6776  0.7095  1.6738
   40MOL   H15412712   2.027   7.097   5.124 -1.0106  1.2507  0.6723
   40MOL   H15512713   2.067   7.020   4.981 -1.0294 -0.2014 -0.7349
   40MOL   H15612714   1.691   7.137   5.066  1.0808 -0.7278 -1.6745
   40MOL   H15712715   1.495   7.426   5.000 -0.8385 -0.5517  0.8814
   40MOL   H15812716   1.533   7.333   5.140 -0.8453  0.5863 -0.0799
   40MOL   H15912717   1.490   7.255   4.975 -0.8963  0.4081 -0.4792
   40MOL   H16012718   1.857   7.423   4.912 -0.0401  1.2429  1.0209
   40MOL   H16112719   1.686   7.504   4.887 -0.0979 -1.1287 -1.0839
   40MOL   C16212720   1.807   7.242   5.209  0.5746 -0.0615 -0.0661
   40MOL   C16312721   1.931   7.339   5.214  0.6125  0.3763  0.3903
   40MOL   C16412722   1.815   7.130   5.318  0.2037 -0.2774  0.1443
   40MOL   C16512723   1.735   7.006   5.303 -0.5620 -0.1354  0.3967
   40MOL   C16612724   1.803   6.867   5.310 -0.7245 -0.8112 -0.3250
   40MOL   C16712725   1.603   7.015   5.289  0.4300 -0.0551  0.4927
   40MOL   H16812726   1.726   7.302   5.250  0.2999 -0.6195  0.2102
   40MOL   H16912727   1.943   7.391   5.309  1.3070 -1.5660  1.3850
   40MOL   H17012728   1.930   7.406   5.128 -0.6472 -1.6915 -1.2544
   40MOL   H17112729   2.026   7.286   5.208  0.3817 -0.0085  0.1895
   40MOL   H17212730   1.908   7.081   5.289  0.6615  1.1822 -0.9373
   40MOL   H17312731   1.726   6.793   5.288  0.2718 -1.9328 -0.1007
   40MOL   H17412732   1.841   6.855   5.412  1.2274  0.3484 -0.8929
   40MOL   H17512733   1.878   6.848   5.234  0.0423 -1.6618  0.6382
   40MOL   H17612734   1.551   7.109   5.280  0.8150  0.2094  1.0219
   40MOL   H17712735   1.537   6.931   5.276 -2.0533  2.2115 -2.2215
   40MOL   C17812736   1.825   7.183   5.467  0.2169 -0.5252 -0.2926
   40MOL   C17912737   1.926   7.108   5.553 -0.1964 -0.1194 -0.2740
   40MOL   C18012738   1.690   7.223   5.539  0.1393  0.4082  0.0173
   40MOL   C18112739   1.698   7.372   5.580  0.0812 -0.4425 -0.2854
   40MOL   C18212740   1.626   7.471   5.496  0.7135  0.0064  0.2959
   40MOL   C18312741   1.764   7.413   5.690 -0.5453  0.0576  0.0745
   40MOL   H18412742   1.890   7.269   5.459  1.0180 -1.0172  0.8045
   40MOL   H18512743   2.014   7.088   5.493  0.1090  1.6982 -0.4494
   40MOL   H18612744   1.898   7.011   5.596  0.0734 -1.5469 -3.2357
   40MOL   H18712745   1.951   7.169   5.640 -0.8153 -0.0836 -0.1145
   40MOL   H18812746   1.612   7.234   5.463 -1.4749 -0.0548  1.5723
   40MOL   H18912747   1.681   7.566   5.491 -0.4029  0.5912 -1.3042
   40MOL   H19012748   1.531   7.494   5.542  0.6165 -0.9589  0.5870
   40MOL   H19112749   1.603   7.437   5.395  2.2816  0.5679 -0.2766
   40MOL   H19212750   1.824   7.362   5.764  1.6047  3.3266  0.7159
   40MOL   H19312751   1.764   7.520   5.702 -0.5414  0.4144 -2.7804
   40MOL   C19412752   1.645   7.133   5.655  0.2775 -0.1688 -0.2131
   40MOL   C19512753   1.609   6.981   5.618 -0.5583  0.4028  0.5683
   40MOL   C19612754   1.537   7.190   5.755  0.3076 -0.5513  0.3449
   40MOL   C19712755   1.573   7.168   5.901 -0.3086 -0.1222  0.8093
   40MOL   C19812756   1.580   7.021   5.951 -1.2511 -0.7661 -0.2086
   40MOL   C19912757   1.610   7.268   5.985 -0.2580 -0.0813 -0.5706
   40MOL   H20012758   1.731   7.127   5.721  1.6845  2.3309 -1.7538
   40MOL   H20112759   1.575   6.926   5.706  0.2096  0.0628  0.6479
   40MOL   H20212760   1.693   6.929   5.573 -1.1992  1.2959 -1.7769
   40MOL   H20312761   1.529   6.956   5.548 -0.9733  0.0258  1.1710
   40MOL   H20412762   1.539   7.299   5.756  0.5403 -0.5621  0.8248
   40MOL   H20512763   1.668   6.972   5.909 -2.1180 -0.5705 -2.3379
   40MOL   H20612764   1.488   6.963   5.945 -1.9057  0.2547 -0.2142
   40MOL   H20712765   1.609   7.026   6.056 -2.5845  0.1116  0.1313
   40MOL   H20812766   1.611   7.373   5.960  2.0184 -0.1403 -0.8096
   40MOL   H20912767   1.649   7.239   6.082  1.4660  2.2848 -0.4979
   40MOL   C21012768   1.385   7.152   5.732 -0.0764 -0.5668  0.2303
   40MOL   C21112769   1.339   7.177   5.587  0.7390 -0.3007 -0.9013
   40MOL   C21212770   1.277   7.199   5.837 -0.3013  0.3357 -0.7711
   40MOL   C21312771   1.182   7.084   5.879 -0.7442  0.5172 -0.2421
   40MOL   C21412772   1.061   7.056   5.789  0.0970 -0.2874 -0.1738
   40MOL   C21512773   1.197   7.012   5.991 -0.3793 -0.6987  0.3773
   40MOL   H21612774   1.392   7.044   5.737  1.3895 -0.5208 -0.4432
   40MOL   H21712775   1.233   7.156   5.574  1.0133 -1.2216 -1.7236
   40MOL   H21812776   1.401   7.121   5.517  1.0972 -1.7646  0.5362
   40MOL   H21912777   1.343   7.278   5.548 -0.2289 -0.9042 -2.6266
   40MOL   H22012778   1.329   7.220   5.931 -0.4960 -1.9124 -0.1415
   40MOL   H22112779   1.092   7.007   5.696  0.0623 -2.6057  0.9951
   40MOL   H22212780   0.997   7.142   5.771  2.2567  1.2175 -0.7832
   40MOL   H22312781   1.002   6.980   5.840  0.2645 -0.5223 -0.3294
   40MOL   H22412782   1.285   7.017   6.053  0.0246 -1.2737 -0.1355
   40MOL   H22512783   1.121   6.940   6.018 -0.6797 -0.5346 -0.0279
   40MOL   C22612784   1.224   7.345   5.810 -0.5779 -0.3336  0.6539
   40MOL   C22712785   1.327   7.465   5.798 -0.3575 -0.0235  0.0415
   40MOL   C22812786   1.098   7.390   5.899  0.6499  0.3939  0.5524
   40MOL   C22912787   0.977   7.439   5.812  0.0689 -0.4137 -0.9253
   40MOL   C23012788   1.000   7.545   5.704  0.4687  0.0660  0.0193
   40MOL   C23112789   0.858   7.378   5.821  0.1476  0.4346 -0.3973
   40MOL   H23212790   1.170   7.330   5.716  0.3943 -2.6850  0.4362
   40MOL   H23312791   1.279   7.563   5.807  2.7205  1.3359  2.8265
   40MOL   H23412792   1.380   7.461   5.703 -1.2066  1.6179 -0.5240
   40MOL   H23512793   1.401   7.464   5.878 -2.8411  2.5105  2.4854
   40MOL   H23612794   1.051   7.306   5.950  1.0203 -1.0413 -1.4348
   40MOL   H23712795   0.909   7.599   5.679 -1.0446 -2.2060  0.5085
   40MOL   H23812796   1.042   7.492   5.619 -0.3999 -0.0493 -0.3453
   40MOL   H23912797   1.067   7.629   5.725 -0.9051  1.6601 -1.7634
   40MOL   H24012798   0.851   7.291   5.885 -0.0271  0.3057 -0.5915
   40MOL   H24112799   0.772   7.410   5.764 -0.0295  0.3005 -0.2051
   40MOL   C24212800   1.129   7.476   6.026  0.0560 -0.0002  0.0405
   40MOL   C24312801   1.216   7.396   6.119 -0.5335 -0.8521 -0.2873
   40MOL   C24412802   1.004   7.544   6.098 -0.5956 -0.4368 -0.5894
   40MOL   C24512803   0.962   7.673   6.024  0.3991  0.0248 -0.2276
   40MOL   C24612804   1.062   7.792   6.014 -0.4148 -0.5117 -0.1186
   40MOL   C24712805   0.841   7.687   5.973 -0.6094  0.3026  0.1390
   40MOL   H24812806   1.191   7.560   5.993 -1.6847  0.8108 -1.1988
   40MOL   H24912807   1.311   7.379   6.069 -0.2499 -2.0452  0.6343
   40MOL   H25012808   1.166   7.305   6.152 -0.3074 -0.6637  0.5731
   40MOL   H25112809   1.243   7.453   6.208 -0.7204  0.6869 -1.1972
   40MOL   H25212810   0.922   7.475   6.078 -0.5453 -0.4273 -0.8297
   40MOL   H25312811   1.153   7.757   5.965 -0.3377 -1.5478  0.7488
   40MOL   H25412812   1.092   7.832   6.111  0.4086  1.2850 -1.0755
   40MOL   H25512813   1.016   7.874   5.959  1.3550  0.8018  0.3112
   40MOL   H25612814   0.759   7.616   5.978 -0.2608 -0.5334 -4.4171
   40MOL   H25712815   0.800   7.772   5.921 -0.2678 -0.1184 -0.8171
   40MOL   C25812816   1.017   7.566   6.251  0.2212 -0.4339 -0.0733
   40MOL   C25912817   1.141   7.650   6.306 -0.7825 -0.0918 -0.7283
   40MOL   C26012818   0.964   7.442   6.340 -0.2748 -0.6007 -0.3417
   40MOL   C26112819   0.836   7.380   6.286  0.2429 -0.1830 -0.4841
   40MOL   C26212820   0.716   7.464   6.288  0.0492 -0.2657  0.2844
   40MOL   C26312821   0.835   7.250   6.256 -0.8797  0.2338 -0.0216
   40MOL   H26412822   0.936   7.636   6.271  0.9709  0.9818 -1.8682
   40MOL   H26512823   1.119   7.753   6.331 -0.2441 -0.7298  2.5231
   40MOL   H26612824   1.221   7.653   6.232 -1.1714  2.2726 -1.0952
   40MOL   H26712825   1.198   7.609   6.389  0.7593  1.8927 -0.7799
   40MOL   H26812826   1.039   7.365   6.327  0.5094  0.0416  0.3538
   40MOL   H26912827   0.694   7.496   6.390  0.3358 -1.8131  0.8522
   40MOL   H27012828   0.620   7.425   6.254 -0.1122 -0.4372  0.9241
   40MOL   H27112829   0.741   7.553   6.231  2.1801 -1.9387 -1.4368
   40MOL   H27212830   0.920   7.183   6.249 -1.0486 -0.1898  1.6666
   40MOL   H27312831   0.735   7.214   6.235 -0.3530  0.3840 -2.9884
   40MOL   C27412832   0.956   7.444   6.499  0.3790 -0.2625  0.3203
   40MOL   C27512833   0.933   7.591   6.549 -0.1034  0.2184  0.0399
   40MOL   C27612834   1.072   7.383   6.582  0.2743  0.0035  0.0237
   40MOL   C27712835   1.093   7.236   6.544 -0.3956  0.1531  1.2490
   40MOL   C27812836   1.231   7.206   6.495 -0.3098  0.1281  0.1840
   40MOL   C27912837   0.999   7.143   6.536  0.7962 -0.4744 -0.5143
   40MOL   H28012838   0.865   7.392   6.528 -0.6090  1.2837  0.0919
   40MOL   H28112839   1.030   7.638   6.531 -0.1067 -0.4738 -1.9901
   40MOL   H28212840   0.925   7.608   6.656 -0.0170 -2.4781  0.4989
   40MOL   H28312841   0.858   7.650   6.497  0.8838  0.8664 -0.6821
   40MOL   H28412842   1.166   7.428   6.552  0.0499 -0.0023 -0.6925
   40MOL   H28512843   1.235   7.217   6.386  1.8288 -0.1773  0.1994
   40MOL   H28612844   1.274   7.108   6.517  4.4077  1.5421 -1.8838
   40MOL   H28712845   1.298   7.281   6.537  0.6499  0.4689 -1.8713
   40MOL   H28812846   0.898   7.160   6.568  0.8763 -0.6042 -0.1857
   40MOL   H28912847   1.025   7.049   6.490 -1.5560 -0.3639 -2.1374
   40MOL   C29012848   1.058   7.392   6.741 -0.1484 -0.0145 -0.1001
   40MOL   C29112849   0.912   7.370   6.791  0.6468  0.9071 -0.6083
   40MOL   C29212850   1.125   7.520   6.812  0.2438 -0.0592  0.2071
   40MOL   C29312851   1.271   7.537   6.769  0.0452 -0.7116 -0.0533
   40MOL   C29412852   1.379   7.437   6.811  0.0704 -0.0167  0.0196
   40MOL   C29512853   1.304   7.641   6.694  0.0275 -1.1027 -0.2634
   40MOL   H29612854   1.109   7.303   6.778  1.0673 -0.1845 -2.1256
   40MOL   H29712855   0.878   7.275   6.750 -1.4443  0.8713  1.1175
   40MOL   H29812856   0.842   7.453   6.783 -1.4522 -0.8612 -1.2659
   40MOL   H29912857   0.922   7.352   6.898 -0.7913  0.3230 -0.5606
   40MOL   H30012858   1.079   7.614   6.780  1.0385  0.1505 -0.3517
   40MOL   H30112859   1.340   7.339   6.783  0.9600  0.1183 -1.7875
   40MOL   H30212860   1.399   7.427   6.917  1.1704  1.1758 -0.0706
   40MOL   H30312861   1.470   7.454   6.753 -0.6787  3.0704 -0.2951
   40MOL   H30412862   1.224   7.709   6.666  0.8881  0.2326  0.4600
   40MOL   H30512863   1.405   7.648   6.656  0.5158  0.5859  1.2794
   40MOL   C30612864   1.104   7.543   6.962 -0.4685  0.1559  0.2194
   40MOL   C30712865   1.154   7.672   7.012 -0.2070  0.3940 -0.7800
   40MOL   C30812866   1.152   7.434   7.063 -0.5277  0.5063  0.7513
   40MOL   C30912867   1.092   7.434   7.205  0.6991 -0.3387 -0.3445
   40MOL   C31012868   0.945   7.448   7.231 -1.0895  0.9844 -0.7204
   40MOL   C31112869   1.175   7.408   7.308 -0.3293 -0.3167  0.5235
   40MOL   H31212870   0.995   7.535   6.971 -0.3064 -1.4911  0.9212
   40MOL   H31312871   1.110   7.758   6.960 -1.0246  0.2015 -0.4171
   40MOL   H31412872   1.262   7.687   7.003 -0.4839  1.7259 -2.0425
   40MOL   H31512873   1.131   7.705   7.113 -0.0306  1.7076 -1.1487
   40MOL   H31612874   1.138   7.336   7.017  0.6138  1.6127 -2.0371
   40MOL   H31712875   0.913   7.414   7.329  0.3369  1.9742  0.1087
   40MOL   H31812876   0.888   7.395   7.154  0.2959  0.0003 -1.0848
   40MOL   H31912877   0.908   7.549   7.213 -3.3460  0.1294 -1.0631
   40MOL   H32012878   1.280   7.394   7.285 -0.4031  0.5953 -0.4085
   40MOL   H32112879   1.131   7.414   7.406 -0.9546  0.4656  0.2086
   40MOL   H32212880   1.261   7.434   7.075 -0.5593 -0.7711  1.0850
   41MOL     C112881   2.265   0.277   0.434  0.7823 -0.7411 -0.7877
   41MOL     C212882   2.285   0.125   0.409  0.2668 -0.2777  0.0028
   41MOL     C312883   2.394   0.364   0.424  0.0345 -0.1674 -0.0359
   41MOL     C412884   2.509   0.297   0.492 -0.5988  1.1598 -0.1912
   41MOL     C512885   2.612   0.218   0.411  0.3318  0.3992 -0.0302
   41MOL     C612886   2.525   0.304   0.627  0.9547  0.7416  0.3269
   41MOL     H712887   2.182   0.322   0.379 -0.4392 -0.7144  1.0335
   41MOL     H812888   2.300   0.118   0.301  2.6427  0.1727  0.2627
   41MOL     H912889   2.194   0.067   0.419 -0.1388  0.5969  1.4738
   41MOL    H1012890   2.360   0.086   0.478  0.9054  2.3285  0.8655
   41MOL    H1112891   2.428   0.362   0.320  0.5148 -1.2617  0.1334
   41MOL    H1212892   2.595   0.111   0.418  2.1843  0.2409  2.8276
   41MOL    H1312893   2.708   0.226   0.461 -1.1560  2.4924  2.7107
   41MOL    H1412894   2.617   0.251   0.308 -2.0826 -2.4984 -1.1565
   41MOL    H1512895   2.460   0.357   0.695  1.5535  1.9649 -0.0459
   41MOL    H1612896   2.602   0.252   0.682 -0.1437  2.5941  3.7697
   41MOL    H1712897   2.230   0.285   0.537  0.3028 -0.2654 -0.9834
   41MOL    C1812898   2.367   0.509   0.467  0.4284 -0.3026  0.2456
   41MOL    C1912899   2.246   0.579   0.407  0.3654 -0.1861  0.5518
   41MOL    C2012900   2.485   0.615   0.470 -0.0527  0.0022 -0.5625
   41MOL    C2112901   2.457   0.724   0.577  0.0231 -0.2442 -0.3571
   41MOL    C2212902   2.462   0.688   0.727  0.0153  0.2705  0.0331
   41MOL    C2312903   2.421   0.846   0.547 -0.8765 -0.1974  0.6904
   41MOL    H2412904   2.347   0.495   0.573  2.9237 -0.0553  0.7945
   41MOL    H2512905   2.148   0.544   0.439 -0.6947  3.1674  1.2128
   41MOL    H2612906   2.245   0.568   0.299  3.4274  0.3522  0.4333
   41MOL    H2712907   2.244   0.683   0.440 -0.8700 -0.4114  1.2131
   41MOL    H2812908   2.562   0.560   0.525  0.4561 -0.7167 -1.9461
   41MOL    H2912909   2.380   0.624   0.759  0.9297 -1.0700 -0.2724
   41MOL    H3012910   2.478   0.771   0.797 -0.3757  0.6498 -0.3225
   41MOL    H3112911   2.553   0.629   0.736  0.0509  0.3339  0.0938
   41MOL    H3212912   2.412   0.881   0.445 -0.3656 -0.3492  0.5909
   41MOL    H3312913   2.397   0.916   0.626 -1.5162  1.3997 -0.8813
   41MOL    C3412914   2.548   0.664   0.341 -0.1707  0.4127 -0.1137
   41MOL    C3512915   2.562   0.568   0.217  0.1501  0.5352 -0.4994
   41MOL    C3612916   2.684   0.747   0.361 -0.1985  0.1654 -0.8300
   41MOL    C3712917   2.700   0.867   0.257  0.6969 -0.0742  0.0097
   41MOL    C3812918   2.635   0.999   0.299 -0.0685 -0.1863 -0.2923
   41MOL    C3912919   2.755   0.862   0.135  0.0061 -0.0474 -0.2169
   41MOL    H4012920   2.469   0.729   0.304 -2.3784 -1.5723  0.9957
   41MOL    H4112921   2.462   0.550   0.177 -0.2319 -0.5076  0.9131
   41MOL    H4212922   2.612   0.479   0.254 -2.7901 -0.7814  0.4936
   41MOL    H4312923   2.615   0.613   0.133  0.2274 -0.7584 -1.1469
   41MOL    H4412924   2.669   0.788   0.460 -2.3222 -2.8853  0.1676
   41MOL    H4512925   2.671   1.082   0.237 -0.5219  0.5320  0.4005
   41MOL    H4612926   2.659   1.028   0.402 -1.6320  1.9504 -0.4946
   41MOL    H4712927   2.527   1.002   0.288 -0.2617 -4.0587 -0.0900
   41MOL    H4812928   2.793   0.776   0.083  1.1618  0.4389 -0.1988
   41MOL    H4912929   2.754   0.952   0.076 -1.2207 -0.1305 -0.3222
   41MOL    C5012930   2.817   0.662   0.376 -0.3160  0.0870 -0.0929
   41MOL    C5112931   2.823   0.528   0.450 -0.0037  0.7271  0.0266
   41MOL    C5212932   2.941   0.748   0.429 -0.2814  0.0014  0.0501
   41MOL    C5312933   2.903   0.863   0.527  0.6174 -0.2478  0.4059
   41MOL    C5412934   2.905   0.823   0.672 -0.2857  0.8096 -0.9667
   41MOL    C5512935   2.895   0.991   0.502 -0.5400 -0.7456 -0.4603
   41MOL    H5612936   2.833   0.622   0.276  0.1724 -1.7422  0.6944
   41MOL    H5712937   2.739   0.461   0.428 -0.1566  0.2627  1.9242
   41MOL    H5812938   2.810   0.555   0.555 -0.4427  3.7604 -0.7584
   41MOL    H5912939   2.918   0.476   0.440  0.4129  1.6554 -0.8941
   41MOL    H6012940   2.999   0.676   0.487  3.9026  2.5070 -0.8082
   41MOL    H6112941   3.008   0.798   0.698 -0.6507 -1.1002 -1.2845
   41MOL    H6212942   2.831   0.745   0.688  0.9447 -0.4360 -1.3057
   41MOL    H6312943   2.872   0.902   0.740 -0.3937 -0.5380  0.5790
   41MOL    H6412944   2.905   1.036   0.405  1.9286 -1.4707 -0.5693
   41MOL    H6512945   2.878   1.056   0.586 -2.5636 -1.1818 -0.4910
   41MOL    C6612946   3.038   0.817   0.319  0.2375  0.6788 -0.1634
   41MOL    C6712947   3.063   0.714   0.206 -0.0541  0.5185 -0.0430
   41MOL    C6812948   3.175   0.868   0.370 -0.4655  0.0221  0.6539
   41MOL    C6912949   3.227   0.977   0.269 -0.8433  0.0695 -0.7675
   41MOL    C7012950   3.146   1.105   0.277  0.2723  0.3809  0.0732
   41MOL    C7112951   3.324   0.961   0.178  0.4852 -0.5438  0.3335
   41MOL    H7212952   2.980   0.899   0.278 -0.9750  0.2479  0.6672
   41MOL    H7312953   2.974   0.676   0.156  1.2421 -0.9019 -1.2985
   41MOL    H7412954   3.117   0.623   0.234  0.0458  0.5074 -0.2753
   41MOL    H7512955   3.113   0.759   0.121 -1.5904  1.2848 -0.5577
   41MOL    H7612956   3.141   0.917   0.461 -0.1466  1.2622  0.1258
   41MOL    H7712957   3.205   1.180   0.223  2.1864 -1.9040 -1.0972
   41MOL    H7812958   3.120   1.138   0.378 -0.0280 -1.4572  0.6123
   41MOL    H7912959   3.054   1.099   0.220 -0.6854  2.2873  1.3746
   41MOL    H8012960   3.377   0.868   0.164 -1.8428 -1.8708  0.0305
   41MOL    H8112961   3.348   1.044   0.112 -0.3302 -2.7771 -2.8870
   41MOL    C8212962   3.298   0.771   0.405 -0.8044 -0.0226  0.1460
   41MOL    C8312963   3.255   0.655   0.486 -0.4526 -0.1099  0.8850
   41MOL    C8412964   3.430   0.837   0.460 -0.2290 -1.2797  0.1086
   41MOL    C8512965   3.558   0.779   0.401 -0.7163 -0.1319 -0.7374
   41MOL    C8612966   3.575   0.630   0.418 -0.3058  0.5509 -0.4243
   41MOL    C8712967   3.647   0.846   0.330 -0.0793 -0.2239 -0.1337
   41MOL    H8812968   3.328   0.727   0.310  0.0911  1.0048 -0.0517
   41MOL    H8912969   3.338   0.597   0.527  0.8340  1.5789  0.7287
   41MOL    H9012970   3.182   0.583   0.449 -3.6744  2.8683  1.1119
   41MOL    H9112971   3.198   0.687   0.573 -1.0554  1.7703 -0.1728
   41MOL    H9212972   3.421   0.932   0.406 -0.0533 -2.4110 -1.9752
   41MOL    H9312973   3.576   0.597   0.522 -1.0892  0.7064 -0.3662
   41MOL    H9412974   3.672   0.601   0.378 -0.3335  1.9644 -1.5500
   41MOL    H9512975   3.500   0.580   0.358  0.5511  2.0783 -2.8207
   41MOL    H9612976   3.629   0.950   0.304  1.5906 -0.3965 -2.2158
   41MOL    H9712977   3.739   0.798   0.299 -0.5536 -0.0086 -1.9510
   41MOL    C9812978   3.438   0.871   0.618  0.1635  0.4164  0.5332
   41MOL    C9912979   3.314   0.946   0.659  0.1184 -0.5828 -0.7140
   41MOL   C10012980   3.581   0.911   0.667  0.5128 -0.3096  0.1110
   41MOL   C10112981   3.615   0.831   0.793  0.7788  0.2873 -0.4070
   41MOL   C10212982   3.723   0.724   0.780  0.0589  0.3122 -0.1057
   41MOL   C10312983   3.548   0.850   0.907  0.8588  0.2943 -0.3747
   41MOL   H10412984   3.420   0.771   0.658  0.7950 -0.0260 -0.2608
   41MOL   H10512985   3.233   0.874   0.645  0.7954 -1.3700 -0.6152
   41MOL   H10612986   3.285   1.024   0.589  0.1252  0.2873  0.2428
   41MOL   H10712987   3.313   0.980   0.763  1.7121 -2.5783  0.0020
   41MOL   H10812988   3.660   0.881   0.598  0.1127 -1.3943  0.1016
   41MOL   H10912989   3.730   0.658   0.866  1.0615  2.6316  1.6262
   41MOL   H11012990   3.821   0.763   0.754 -0.2191  1.0647 -0.0117
   41MOL   H11112991   3.703   0.660   0.694  1.2424 -0.1860 -0.0167
   41MOL   H11212992   3.471   0.924   0.923 -0.5119 -1.2423  0.2417
   41MOL   H11312993   3.578   0.788   0.990  0.2894 -1.0401 -1.1461
   41MOL   C11412994   3.604   1.068   0.688 -0.0517  0.5877 -0.6836
   41MOL   C11512995   3.574   1.158   0.574  0.5030 -0.6587  0.0843
   41MOL   C11612996   3.752   1.102   0.755  0.2862  0.2559  0.5046
   41MOL   C11712997   3.734   1.196   0.878  1.4343 -0.3621  0.5824
   41MOL   C11812998   3.695   1.339   0.853 -0.1207  0.1850 -0.7671
   41MOL   C11912999   3.755   1.155   0.998  0.1064  0.3553 -0.0938
   41MOL   H12013000   3.529   1.095   0.763  1.7153  1.5529  0.7695
   41MOL   H12113001   3.606   1.258   0.603 -0.2865 -0.9512  2.0595
   41MOL   H12213002   3.466   1.165   0.566  0.3586  1.3126  2.9167
   41MOL   H12313003   3.620   1.122   0.482  0.4603 -0.1801 -0.1275
   41MOL   H12413004   3.791   1.010   0.798  1.6924  0.7274  0.2592
   41MOL   H12513005   3.755   1.400   0.920  2.1945  0.4507 -2.9862
   41MOL   H12613006   3.592   1.352   0.886 -0.7485 -2.6304 -1.5414
   41MOL   H12713007   3.704   1.371   0.749 -0.7707  1.0801 -0.5583
   41MOL   H12813008   3.795   1.056   1.013 -0.1972  0.0701 -1.1099
   41MOL   H12913009   3.737   1.227   1.076  2.4675 -0.0537  0.8803
   41MOL   C13013010   3.859   1.156   0.650 -0.6390  0.4338  0.3612
   41MOL   C13113011   3.895   1.052   0.541 -0.3540 -0.4064 -0.7840
   41MOL   C13213012   3.991   1.221   0.712 -0.0813 -0.1218  0.4969
   41MOL   C13313013   4.030   1.343   0.635  0.0671 -0.1120 -0.2510
   41MOL   C13413014   4.005   1.474   0.704  0.0056 -0.8870 -0.1978
   41MOL   C13513015   4.063   1.343   0.509  0.4210  0.0905  0.0485
   41MOL   H13613016   3.819   1.241   0.595  2.9261  0.9774 -1.5019
   41MOL   H13713017   3.892   0.950   0.579  0.0995  0.1175  0.6877
   41MOL   H13813018   3.997   1.069   0.509  0.0073  1.5584  1.2567
   41MOL   H13913019   3.828   1.048   0.455  0.1754  1.0476 -1.2717
   41MOL   H14013020   3.963   1.256   0.811  0.7613  0.6978  0.4464
   41MOL   H14113021   3.899   1.498   0.710  0.2503  0.1113  0.1696
   41MOL   H14213022   4.062   1.551   0.652 -2.2033  0.4208 -0.7467
   41MOL   H14313023   4.039   1.482   0.807 -1.0974  0.5601  0.0715
   41MOL   H14413024   4.078   1.248   0.460 -1.5046 -0.7120  0.9629
   41MOL   H14513025   4.069   1.438   0.458  1.4056  0.2011  0.3660
   41MOL   C14613026   4.104   1.118   0.753 -0.0512 -0.1878 -0.3255
   41MOL   C14713027   4.051   1.000   0.843  0.8887  0.3691  0.4062
   41MOL   C14813028   4.241   1.177   0.795  0.0985  0.8369 -0.0624
   41MOL   C14913029   4.353   1.111   0.718  0.5681  0.7283 -0.4248
   41MOL   C15013030   4.379   0.966   0.749  0.4051 -0.4947 -0.7861
   41MOL   C15113031   4.404   1.182   0.618 -0.2329  0.0434  0.2311
   41MOL   H15213032   4.137   1.070   0.660  1.1688 -0.0743  0.0406
   41MOL   H15313033   3.977   0.935   0.798  1.2405  2.0957 -2.7808
   41MOL   H15413034   4.005   1.038   0.935 -1.1565  1.0029 -0.8542
   41MOL   H15513035   4.128   0.925   0.864 -0.0819 -1.0018 -0.8409
   41MOL   H15613036   4.239   1.282   0.764  1.2537  1.5384  2.1127
   41MOL   H15713037   4.301   0.906   0.703 -0.7754  0.9334 -0.6923
   41MOL   H15813038   4.392   0.961   0.857  2.7715  2.7507 -0.8372
   41MOL   H15913039   4.471   0.928   0.705  0.5462  1.3011 -2.0871
   41MOL   H16013040   4.371   1.285   0.613  2.4118  0.8760 -0.5239
   41MOL   H16113041   4.474   1.150   0.543  1.0227 -0.2338  1.5130
   41MOL   C16213042   4.260   1.198   0.952  0.0095  0.2952 -0.2984
   41MOL   C16313043   4.159   1.293   1.013  0.7820  0.1718  0.5586
   41MOL   C16413044   4.401   1.204   1.019 -0.5704 -0.2919  0.0272
   41MOL   C16513045   4.404   1.123   1.153  0.1908  0.3797  0.3636
   41MOL   C16613046   4.407   0.967   1.141  0.7701  0.1659  0.3308
   41MOL   C16713047   4.388   1.182   1.268  1.0597 -0.1651 -0.1216
   41MOL   H16813048   4.233   1.104   0.999  2.2539 -0.9736 -1.4425
   41MOL   H16913049   4.161   1.296   1.122  1.4073  0.1152  0.5533
   41MOL   H17013050   4.054   1.264   1.005  0.6138  0.4293  1.6253
   41MOL   H17113051   4.165   1.399   0.989  0.0109 -0.4330 -2.5552
   41MOL   H17213052   4.460   1.138   0.956 -1.5765 -0.5522 -0.6541
   41MOL   H17313053   4.320   0.930   1.086 -0.5653  2.1123  1.0782
   41MOL   H17413054   4.404   0.925   1.241  0.6349 -1.0061 -0.1580
   41MOL   H17513055   4.487   0.923   1.082 -1.7775 -2.3162 -1.3761
   41MOL   H17613056   4.379   1.286   1.295 -0.1908 -1.0859  3.2484
   41MOL   H17713057   4.384   1.128   1.361  1.4607  1.2135  0.7137
   41MOL   C17813058   4.467   1.347   1.014  0.3086  0.3298 -0.0321
   41MOL   C17913059   4.449   1.422   0.881  0.1483 -0.3037  0.7907
   41MOL   C18013060   4.618   1.361   1.060 -0.0151 -0.0426 -0.4478
   41MOL   C18113061   4.652   1.500   1.117 -0.8435 -0.5993 -0.4249
   41MOL   C18213062   4.613   1.519   1.260 -1.0974 -0.2868  0.6414
   41MOL   C18313063   4.700   1.608   1.049 -0.6276  1.1663  1.1531
   41MOL   H18413064   4.401   1.401   1.081  1.3014  1.8360 -0.2501
   41MOL   H18513065   4.485   1.525   0.883 -2.1498  0.4901  2.6310
   41MOL   H18613066   4.346   1.445   0.856 -0.0310 -0.2125  1.6248
   41MOL   H18713067   4.499   1.371   0.798  0.7719  2.1448 -0.3965
   41MOL   H18813068   4.624   1.284   1.137  2.4285 -0.0263 -0.5855
   41MOL   H18913069   4.506   1.535   1.274 -1.0611  1.3039 -0.8329
   41MOL   H19013070   4.663   1.605   1.305  1.4622 -0.7636 -1.1888
   41MOL   H19113071   4.633   1.437   1.330  2.3402  1.2996  1.5798
   41MOL   H19213072   4.711   1.590   0.943 -0.5881 -1.3495  1.5560
   41MOL   H19313073   4.735   1.701   1.093  0.1719  1.1264  0.6228
   41MOL   C19413074   4.725   1.306   0.952 -0.4685 -0.1846 -0.8219
   41MOL   C19513075   4.702   1.168   0.892 -0.4839 -0.0974 -0.2602
   41MOL   C19613076   4.875   1.308   1.010  0.4016 -0.3113 -0.3575
   41MOL   C19713077   4.891   1.294   1.159 -0.0713 -0.3736  0.1421
   41MOL   C19813078   4.884   1.153   1.231 -0.2737 -0.6070  0.7247
   41MOL   C19913079   4.932   1.398   1.236 -0.1981 -0.4702 -0.2045
   41MOL   H20013080   4.724   1.384   0.875 -2.9742 -0.5396 -1.1934
   41MOL   H20113081   4.786   1.144   0.827  1.7173  2.3696  1.5798
   41MOL   H20213082   4.617   1.163   0.823  0.4408 -0.2506 -1.4131
   41MOL   H20313083   4.688   1.083   0.959 -0.9899  0.3174  0.1592
   41MOL   H20413084   4.914   1.212   0.980 -0.1911 -0.2904 -1.2172
   41MOL   H20513085   4.898   1.152   1.339 -0.2476  1.9582  0.7807
   41MOL   H20613086   4.964   1.090   1.194 -0.8585 -0.5917 -0.5948
   41MOL   H20713087   4.785   1.110   1.219  0.4975 -1.6026 -2.7085
   41MOL   H20813088   4.952   1.499   1.204 -2.3972 -0.1819 -0.7998
   41MOL   H20913089   4.942   1.382   1.343  0.5039  1.7077  0.0915
   41MOL   C21013090   4.981   1.405   0.945 -0.5445  0.1033 -0.4353
   41MOL   C21113091   4.956   1.456   0.802 -0.2449  0.3413 -0.4147
   41MOL   C21213092   5.128   1.355   0.962  0.0646  0.9877  0.1186
   41MOL   C21313093   5.231   1.455   1.029  0.3010  0.1881  0.2644
   41MOL   C21413094   5.247   1.592   0.956 -0.0109  0.0927  0.2469
   41MOL   C21513095   5.291   1.435   1.146  0.2414  0.1358  0.5993
   41MOL   H21613096   4.972   1.505   0.988 -4.0913  0.7012 -2.4368
   41MOL   H21713097   5.046   1.508   0.768  1.7832 -1.2872  2.2208
   41MOL   H21813098   4.870   1.521   0.812 -1.6292 -0.9734 -3.1959
   41MOL   H21913099   4.925   1.372   0.740 -0.6141  1.6609 -2.0453
   41MOL   H22013100   5.134   1.275   1.036  1.4579 -0.6348 -1.7032
   41MOL   H22113101   5.235   1.566   0.851 -0.5945 -2.0564  0.8258
   41MOL   H22213102   5.338   1.646   0.981 -0.1963  1.7807 -2.5119
   41MOL   H22313103   5.162   1.658   0.976 -0.5950  0.3687 -2.7985
   41MOL   H22413104   5.274   1.346   1.205  0.2532 -0.5502 -0.4115
   41MOL   H22513105   5.363   1.507   1.182  1.0129 -0.2224 -0.1970
   41MOL   C22613106   5.187   1.269   0.835 -0.0550 -1.0348 -0.3826
   41MOL   C22713107   5.117   1.132   0.804 -0.3833  0.3575  0.1255
   41MOL   C22813108   5.343   1.266   0.817  0.2992  0.0102 -0.1060
   41MOL   C22913109   5.379   1.272   0.666 -0.0800 -0.5063  0.1265
   41MOL   C23013110   5.401   1.409   0.612  0.0057 -0.1295  0.0316
   41MOL   C23113111   5.375   1.164   0.584  0.6730  0.6314  0.1748
   41MOL   H23213112   5.166   1.324   0.743  0.1784 -0.7271 -0.2533
   41MOL   H23313113   5.010   1.146   0.785 -0.1857  2.3434  0.3218
   41MOL   H23413114   5.121   1.051   0.877  0.6367  0.8067  0.5875
   41MOL   H23513115   5.165   1.086   0.718  1.4052  2.7275 -0.1981
   41MOL   H23613116   5.381   1.362   0.851 -2.1905  2.0861 -2.9677
   41MOL   H23713117   5.404   1.409   0.503 -2.4592  0.4012 -0.0534
   41MOL   H23813118   5.507   1.429   0.629  0.2788  0.3899 -2.1539
   41MOL   H23913119   5.318   1.474   0.641  0.2648  0.3120 -0.2117
   41MOL   H24013120   5.365   1.060   0.611  1.2023  0.1051 -1.6034
   41MOL   H24113121   5.402   1.185   0.482 -1.2283  0.9399 -0.2710
   41MOL   C24213122   5.423   1.159   0.902  0.4169 -0.0508  0.0340
   41MOL   C24313123   5.391   1.141   1.047  0.0467  0.2348 -0.6407
   41MOL   C24413124   5.582   1.159   0.891  0.1510 -0.3392  0.3435
   41MOL   C24513125   5.646   1.015   0.886 -0.3489 -0.7341 -0.2826
   41MOL   C24613126   5.661   0.940   0.758 -0.2426 -0.7567 -0.3047
   41MOL   C24713127   5.680   0.955   0.998  0.6319 -0.2177 -0.0312
   41MOL   H24813128   5.405   1.064   0.851  1.1474  0.7322 -1.7234
   41MOL   H24913129   5.428   1.219   1.113 -1.2551  1.0617 -0.8680
   41MOL   H25013130   5.422   1.042   1.080 -2.0176 -0.5688 -0.9991
   41MOL   H25113131   5.283   1.130   1.057 -0.1632  1.3860 -1.5447
   41MOL   H25213132   5.613   1.192   0.791 -0.5662 -1.4079 -0.2479
   41MOL   H25313133   5.732   1.001   0.702 -2.3436  1.6675 -0.4230
   41MOL   H25413134   5.571   0.923   0.699 -0.6565  0.4796 -0.0572
   41MOL   H25513135   5.705   0.843   0.778 -0.3150 -0.7200  0.0262
   41MOL   H25613136   5.658   0.993   1.096  1.6369  1.8196 -0.5775
   41MOL   H25713137   5.733   0.861   0.987 -1.5571 -1.6479  1.2132
   41MOL   C25813138   5.660   1.273   0.973 -0.5870  0.1243  0.0889
   41MOL   C25913139   5.608   1.409   0.942  0.3498 -0.7513  0.3246
   41MOL   C26013140   5.815   1.259   0.964  0.2469 -0.2396 -0.1483
   41MOL   C26113141   5.878   1.301   1.103  0.6438 -0.6204  0.4740
   41MOL   C26213142   5.913   1.178   1.187  0.0621 -0.7845  0.3936
   41MOL   C26313143   5.912   1.425   1.148 -0.4017  0.4177  0.9370
   41MOL   H26413144   5.653   1.261   1.081 -0.8307 -1.3995 -0.0932
   41MOL   H26513145   5.515   1.427   0.996  1.0310  3.2147  0.2842
   41MOL   H26613146   5.589   1.412   0.834  1.1658  0.9930  0.2094
   41MOL   H26713147   5.681   1.487   0.961  1.5835 -1.3681 -1.6866
   41MOL   H26813148   5.848   1.155   0.955 -0.5605 -0.4113 -1.1909
   41MOL   H26913149   5.952   1.208   1.284  1.4920  1.3119 -0.8030
   41MOL   H27013150   5.993   1.125   1.135 -1.0300 -0.3914 -1.7893
   41MOL   H27113151   5.815   1.131   1.193 -0.5494  0.4803  0.4474
   41MOL   H27213152   5.892   1.508   1.082 -2.2034  0.9783  2.1370
   41MOL   H27313153   5.954   1.451   1.244 -4.4479  2.8650  2.1693
   41MOL   C27413154   5.888   1.331   0.843  0.1964  0.1145 -0.6124
   41MOL   C27513155   5.829   1.320   0.701 -0.1053 -0.0190 -1.6970
   41MOL   C27613156   6.042   1.298   0.848  0.3857 -0.3675 -0.4106
   41MOL   C27713157   6.122   1.428   0.812  0.1360  0.2616  0.1402
   41MOL   C27813158   6.120   1.488   0.667 -0.4002  0.2794 -0.0269
   41MOL   C27913159   6.196   1.487   0.908 -0.0659 -0.5297 -0.2655
   41MOL   H28013160   5.880   1.438   0.861 -0.9599 -0.0574 -0.0766
   41MOL   H28113161   5.811   1.217   0.672 -0.8708 -1.3346  2.9491
   41MOL   H28213162   5.887   1.366   0.622  2.2097 -0.1417 -0.1045
   41MOL   H28313163   5.741   1.383   0.687  0.5925  1.5206  0.5060
   41MOL   H28413164   6.072   1.274   0.950  1.0957 -1.5109 -0.8849
   41MOL   H28513165   6.213   1.541   0.645  0.0336 -0.2211  0.5645
   41MOL   H28613166   6.040   1.561   0.657 -0.1461  0.6435  0.5649
   41MOL   H28713167   6.101   1.414   0.590 -1.7040  1.2661 -0.6747
   41MOL   H28813168   6.188   1.449   1.008  0.8824 -0.3603 -0.1251
   41MOL   H28913169   6.265   1.569   0.894 -0.9544  0.5273  1.4167
   41MOL   C29013170   6.104   1.174   0.768  0.4960 -0.1908 -0.1280
   41MOL   C29113171   6.044   1.040   0.809 -0.6436  0.0809  0.0361
   41MOL   C29213172   6.258   1.168   0.742  0.5907 -0.2831  0.1945
   41MOL   C29313173   6.294   1.154   0.591  0.3086 -0.4131  0.0801
   41MOL   C29413174   6.252   1.019   0.533 -0.8548  0.0999 -0.3567
   41MOL   C29513175   6.341   1.251   0.514  0.4410  0.3601 -0.4107
   41MOL   H29613176   6.064   1.198   0.669 -1.2060 -0.2653  0.5192
   41MOL   H29713177   6.084   0.962   0.745 -0.1195 -1.5250  2.2359
   41MOL   H29813178   5.936   1.035   0.801 -0.4264 -2.8423 -1.4615
   41MOL   H29913179   6.063   1.013   0.913  0.1312  2.0294  0.4349
   41MOL   H30013180   6.313   1.261   0.761 -1.0107  0.8208 -0.5143
   41MOL   H30113181   6.285   0.938   0.598  2.8303  0.9005 -1.1606
   41MOL   H30213182   6.302   0.999   0.439 -0.7105 -2.2836  0.1928
   41MOL   H30313183   6.143   1.005   0.533 -0.5228 -2.8348 -0.9155
   41MOL   H30413184   6.351   1.354   0.545 -0.7838  0.1694  0.7014
   41MOL   H30513185   6.369   1.228   0.412  1.7459  0.7293 -0.1403
   41MOL   C30613186   6.341   1.080   0.842  0.1198 -0.2123  0.9533
   41MOL   C30713187   6.320   1.130   0.987  0.3748  0.2557 -0.0651
   41MOL   C30813188   6.498   1.064   0.807 -0.1888 -0.1485  0.2704
   41MOL   C30913189   6.558   0.943   0.879 -0.4023  0.7534  0.2649
   41MOL   C31013190   6.531   0.799   0.821  0.2059  0.3760  0.0211
   41MOL   C31113191   6.636   0.961   0.993  0.5594 -0.2391  0.0111
   41MOL   H31213192   6.294   0.981   0.837 -2.4344  0.9277  1.6239
   41MOL   H31313193   6.389   1.213   1.002 -0.9685  1.6607 -1.5768
   41MOL   H31413194   6.343   1.047   1.055 -0.3902  0.3859  0.3542
   41MOL   H31513195   6.216   1.152   1.008  0.2889 -0.9313  0.8120
   41MOL   H31613196   6.508   1.049   0.699  1.2486  0.5305  0.2913
   41MOL   H31713197   6.426   0.776   0.806  0.3266 -1.5277  1.7561
   41MOL   H31813198   6.567   0.718   0.884  2.1520 -1.0622 -2.8392
   41MOL   H31913199   6.572   0.793   0.721 -0.7514 -0.0069 -0.3529
   41MOL   H32013200   6.651   1.062   1.029 -1.1514 -0.0193  0.1554
   41MOL   H32113201   6.674   0.871   1.038 -1.0637 -0.5180  0.8586
   41MOL   H32213202   6.549   1.156   0.836  0.3787 -0.9128  1.7663
   42MOL     C113203   1.348   1.140   0.615  0.3644  0.3768 -0.3866
   42MOL     C213204   1.427   1.042   0.687 -0.5546 -0.2111 -0.5854
   42MOL     C313205   1.384   1.291   0.630  1.0087 -0.5022  0.9280
   42MOL     C413206   1.343   1.356   0.761  0.5309  0.8132  0.8336
   42MOL     C513207   1.424   1.465   0.815  0.5533  0.3622 -0.0781
   42MOL     C613208   1.237   1.319   0.828  0.3471  0.0069 -0.4246
   42MOL     H713209   1.360   1.102   0.513  1.9889 -0.8553  0.2481
   42MOL     H813210   1.526   1.039   0.643  0.9709  0.3004  2.6290
   42MOL     H913211   1.376   0.947   0.670  0.9409 -1.2650  0.6650
   42MOL    H1013212   1.433   1.068   0.793 -2.4798 -1.1136 -0.2150
   42MOL    H1113213   1.493   1.290   0.632  1.0085 -0.8145  0.7674
   42MOL    H1213214   1.486   1.517   0.742  1.5963  2.4977  2.2250
   42MOL    H1313215   1.497   1.442   0.892 -0.2475 -0.8272  0.3352
   42MOL    H1413216   1.364   1.544   0.861 -1.3901 -0.4847 -1.1013
   42MOL    H1513217   1.169   1.239   0.803  0.6285 -1.0734  2.0881
   42MOL    H1613218   1.226   1.361   0.927  1.0631  1.0320 -0.7703
   42MOL    H1713219   1.242   1.124   0.634  0.8112 -1.6319  0.5103
   42MOL    C1813220   1.331   1.380   0.505 -0.4290 -0.0406 -0.0335
   42MOL    C1913221   1.186   1.350   0.477 -0.0280 -0.0892 -0.0081
   42MOL    C2013222   1.424   1.363   0.377  0.1416 -0.6939  0.7473
   42MOL    C2113223   1.579   1.374   0.402  0.1535 -0.5880 -0.0862
   42MOL    C2213224   1.646   1.512   0.421  0.4079 -0.4012  0.1713
   42MOL    C2313225   1.657   1.270   0.412  0.1675 -0.5514  0.7769
   42MOL    H2413226   1.333   1.486   0.531 -0.9489  0.3595 -1.5605
   42MOL    H2513227   1.126   1.376   0.564 -0.3986 -1.7950  0.2653
   42MOL    H2613228   1.166   1.253   0.431  0.6030 -0.2778  0.1043
   42MOL    H2713229   1.151   1.417   0.399 -0.8335 -2.7966 -2.0724
   42MOL    H2813230   1.414   1.259   0.344 -0.0842 -0.3190 -0.3987
   42MOL    H2913231   1.601   1.593   0.364 -0.8400 -0.3936  1.1500
   42MOL    H3013232   1.752   1.516   0.396  0.0942 -1.0425 -1.3177
   42MOL    H3113233   1.635   1.542   0.525  1.0349  1.1657 -0.1995
   42MOL    H3213234   1.609   1.175   0.395  0.9974 -0.6441 -1.1427
   42MOL    H3313235   1.764   1.265   0.430  0.4546  0.2828 -0.6322
   42MOL    C3413236   1.388   1.439   0.242 -0.7932 -0.5848 -0.2675
   42MOL    C3513237   1.330   1.573   0.266  0.5290 -0.0175 -0.6246
   42MOL    C3613238   1.315   1.357   0.132 -0.1581 -0.2486  0.4993
   42MOL    C3713239   1.385   1.217   0.099 -0.2407 -0.2201  0.1255
   42MOL    C3813240   1.289   1.101   0.086  0.1013  0.0643 -0.6974
   42MOL    C3913241   1.520   1.199   0.089  0.0833 -0.1051  0.2282
   42MOL    H4013242   1.487   1.468   0.207 -0.3475 -0.5832  0.9616
   42MOL    H4113243   1.228   1.578   0.305  1.5667  0.4158  2.1991
   42MOL    H4213244   1.325   1.624   0.170 -0.5567 -1.5594 -1.4151
   42MOL    H4313245   1.387   1.629   0.340  0.0277  1.0003 -1.0094
   42MOL    H4413246   1.216   1.331   0.171 -1.0393 -1.2918 -2.3268
   42MOL    H4513247   1.224   1.095   0.173  0.8323  1.7519 -0.0085
   42MOL    H4613248   1.345   1.008   0.078  1.9830  1.2623 -1.9198
   42MOL    H4713249   1.236   1.118   7.885 -1.3714  0.9047  0.2563
   42MOL    H4813250   1.592   1.274   0.118  1.2397 -0.5828 -1.3357
   42MOL    H4913251   1.560   1.104   0.058 -0.9263 -0.4374 -0.1072
   42MOL    C5013252   1.284   1.425   7.882  0.2304 -0.3082 -0.5081
   42MOL    C5113253   1.410   1.490   7.820 -0.1114 -0.3617  0.3309
   42MOL    C5213254   1.146   1.512   7.881 -0.2699  0.8252 -0.2285
   42MOL    C5313255   1.025   1.431   0.042  0.5395  0.7331  1.0685
   42MOL    C5413256   0.946   1.486   0.160  0.2048  0.2996  0.4834
   42MOL    C5513257   0.995   1.305   0.001 -0.5485  0.3987  0.3375
   42MOL    H5613258   1.275   1.340   7.813  2.2441 -1.0226  0.0894
   42MOL    H5713259   1.452   1.573   7.876 -0.4288  0.9506 -1.3433
   42MOL    H5813260   1.386   1.535   7.723 -0.2876  0.3078  0.6830
   42MOL    H5913261   1.488   1.415   7.809 -0.0217 -0.5222  1.9665
   42MOL    H6013262   1.155   1.584   0.069 -1.5806 -1.0304  1.6149
   42MOL    H6113263   0.871   1.559   0.130  1.1307  1.2590  0.4744
   42MOL    H6213264   1.008   1.530   0.238  1.3931 -2.3136  1.0932
   42MOL    H6313265   0.884   1.409   0.206 -1.0912  1.0513  0.0189
   42MOL    H6413266   1.056   1.261   7.815  1.0817  2.1760  0.5738
   42MOL    H6513267   0.924   1.244   0.055 -1.8952  1.4844 -0.1901
   42MOL    C6613268   1.106   1.581   7.748  0.5298  0.0660 -0.1780
   42MOL    C6713269   1.109   1.491   7.620  0.2071  0.3317 -0.7279
   42MOL    C6813270   1.136   1.735   7.711 -0.5805  0.3936  0.1252
   42MOL    C6913271   1.283   1.780   7.731  0.4421  0.4730  0.9234
   42MOL    C7013272   1.367   1.779   7.608  0.6460 -0.6535  0.0667
   42MOL    C7113273   1.329   1.827   7.843  0.5198 -0.6506  0.0302
   42MOL    H7213274   1.000   1.601   7.760  0.8383  1.5061  0.3218
   42MOL    H7313275   1.048   1.527   7.537  1.2403 -0.3085 -1.7895
   42MOL    H7413276   1.075   1.389   7.637  2.2197 -0.4479 -1.2300
   42MOL    H7513277   1.213   1.487   7.588  0.8762  2.8506  1.0005
   42MOL    H7613278   1.127   1.736   7.603  0.6297 -2.2796 -0.0298
   42MOL    H7713279   1.369   1.683   7.556  0.0939  0.1291 -1.4062
   42MOL    H7813280   1.472   1.798   7.633 -0.2266  0.4386  3.1190
   42MOL    H7913281   1.339   1.860   7.542  0.0087  0.1237  1.2715
   42MOL    H8013282   1.269   1.831   0.041 -2.4833 -2.1434 -1.8232
   42MOL    H8113283   1.430   1.865   7.838  0.8455 -1.5307 -0.0834
   42MOL    C8213284   1.037   1.849   7.764  0.2290  0.5137  0.6813
   42MOL    C8313285   0.992   1.818   0.020  0.3437  1.1079 -0.5505
   42MOL    C8413286   0.924   1.892   7.670  0.3362 -0.2998  0.2792
   42MOL    C8513287   0.981   1.933   7.528  0.4935  0.2161 -0.0213
   42MOL    C8613288   0.906   1.896   7.400 -0.1125  0.0082  0.0165
   42MOL    C8713289   1.079   2.020   7.514  0.0704 -0.4276  0.2764
   42MOL    H8813290   1.099   1.939   7.764 -0.6588  1.1917 -2.5900
   42MOL    H8913291   0.934   1.726   0.029  1.0227  0.8675  1.8291
   42MOL    H9013292   0.941   1.901   0.070  0.1295  0.4457  0.3462
   42MOL    H9113293   1.082   1.791   0.075  0.1822 -0.7637 -1.1821
   42MOL    H9213294   0.864   1.803   7.650  1.6501 -1.0595 -0.3447
   42MOL    H9313295   0.917   1.791   7.374  0.5726 -0.4579  2.1099
   42MOL    H9413296   0.950   1.961   7.325  1.0416  0.0231  0.6967
   42MOL    H9513297   0.798   1.912   7.413 -0.2690 -0.8258 -0.2559
   42MOL    H9613298   1.127   2.068   7.598  2.3177 -2.2100  0.0548
   42MOL    H9713299   1.110   2.045   7.414  1.0687 -2.1528  0.1408
   42MOL    C9813300   0.818   2.000   7.715 -0.1146 -0.4706 -0.0219
   42MOL    C9913301   0.879   2.123   7.780 -0.2610 -0.6640  0.2379
   42MOL   C10013302   0.700   1.946   7.800  0.7372 -0.5687  0.3108
   42MOL   C10113303   0.626   1.816   7.746  0.6469 -0.8911  0.1801
   42MOL   C10213304   0.565   1.830   7.607  0.3183 -0.6365 -0.3156
   42MOL   C10313305   0.621   1.699   7.815 -0.0004  0.1969 -0.0644
   42MOL   H10413306   0.777   2.028   7.618 -0.3167 -2.5350 -0.5501
   42MOL   H10513307   0.828   2.217   7.755  0.2198 -0.6192 -0.6026
   42MOL   H10613308   0.979   2.139   7.739 -1.3062 -0.2135 -2.2456
   42MOL   H10713309   0.912   2.111   7.883  0.5398  1.9817  0.3378
   42MOL   H10813310   0.750   1.898   7.884  0.1896 -1.1510  0.3025
   42MOL   H10913311   0.628   1.900   7.553  0.9280  0.3059  1.5615
   42MOL   H11013312   0.467   1.876   7.608  0.2730 -0.7502  0.5513
   42MOL   H11113313   0.556   1.730   7.565  1.2802 -0.6338 -0.5547
   42MOL   H11213314   0.673   1.689   0.017 -1.3051 -0.3103  0.6151
   42MOL   H11313315   0.571   1.613   7.775  1.0088 -0.7360  0.6520
   42MOL   C11413316   0.592   2.048   7.859  0.5682 -0.2538 -0.7661
   42MOL   C11513317   0.531   2.148   7.759 -0.2856 -0.1309 -0.5165
   42MOL   C11613318   0.631   2.111   0.110 -0.2547 -0.1602 -0.1058
   42MOL   C11713319   0.688   2.006   0.214 -0.5647 -0.2922 -0.1242
   42MOL   C11813320   0.812   2.056   0.293  0.1955 -0.4723 -0.8420
   42MOL   C11913321   0.648   1.873   0.229  0.1550 -0.0033  0.2516
   42MOL   H12013322   0.503   1.989   7.880 -0.1846  0.6117 -1.4809
   42MOL   H12113323   0.447   2.211   7.786 -0.0881 -0.6436  1.3397
   42MOL   H12213324   0.505   2.090   7.671 -0.7828  0.3723 -0.7004
   42MOL   H12313325   0.612   2.208   7.717  1.0093 -2.0462 -0.8140
   42MOL   H12413326   0.717   2.175   0.091 -1.4280  0.9857 -1.6361
   42MOL   H12513327   0.777   2.124   0.371 -0.7867 -0.5192 -1.2342
   42MOL   H12613328   0.874   2.120   0.230  0.2989  1.1053  0.8035
   42MOL   H12713329   0.877   1.978   0.332  1.6641  2.1989  2.3724
   42MOL   H12813330   0.564   1.835   0.173  0.3897 -1.1146  0.6490
   42MOL   H12913331   0.695   1.799   0.292 -0.8448 -0.7819  0.0908
   42MOL   C13013332   0.532   2.212   0.174  0.4080  0.1412 -0.3842
   42MOL   C13113333   0.386   2.164   0.184  0.4497 -0.2785 -0.1431
   42MOL   C13213334   0.548   2.361   0.123 -0.0001  0.4275  0.7788
   42MOL   C13313335   0.693   2.415   0.160 -0.9050  0.2174  0.4941
   42MOL   C13413336   0.768   2.483   0.048 -0.1940  0.2262 -0.5400
   42MOL   C13513337   0.752   2.409   0.284 -0.1793  0.3205  0.0709
   42MOL   H13613338   0.572   2.221   0.275  0.6787  0.2793 -0.5057
   42MOL   H13713339   0.331   2.216   0.262  0.9646  0.1734 -0.0816
   42MOL   H13813340   0.385   2.061   0.218  0.1104 -1.4635 -3.5108
   42MOL   H13913341   0.326   2.160   0.092  0.2249 -0.2323  0.0002
   42MOL   H14013342   0.558   2.352   0.015  0.3467 -0.1480  0.8533
   42MOL   H14113343   0.727   2.584   0.041 -0.5230  0.0783 -0.7838
   42MOL   H14213344   0.751   2.441   7.841 -2.6730  0.1078 -0.1119
   42MOL   H14313345   0.874   2.485   0.072 -0.2067  0.3618 -0.4981
   42MOL   H14413346   0.697   2.368   0.367 -1.7017 -0.8937 -1.4882
   42MOL   H14513347   0.849   2.452   0.303  0.7520 -1.7548  0.1890
   42MOL   C14613348   0.445   2.468   0.164 -0.8330 -0.0940  0.2631
   42MOL   C14713349   0.430   2.476   0.320 -0.3234  0.0951  0.1567
   42MOL   C14813350   0.316   2.476   0.086  0.2152  0.1587 -0.2958
   42MOL   C14913351   0.320   2.455   7.829 -0.2355 -0.7323 -0.3893
   42MOL   C15013352   0.198   2.391   7.762  0.2536  0.8554 -0.5032
   42MOL   C15113353   0.426   2.486   7.748 -0.2062 -1.0218 -0.0023
   42MOL   H15213354   0.494   2.564   0.146  0.6222 -0.3648  2.5514
   42MOL   H15313355   0.398   2.573   0.358 -0.8599 -1.0898  2.8653
   42MOL   H15413356   0.516   2.457   0.385  0.5416  3.2887  0.0285
   42MOL   H15513357   0.349   2.407   0.341 -0.9922  1.2832  1.5517
   42MOL   H15613358   0.266   2.382   0.110  1.7424 -0.9962 -1.5560
   42MOL   H15713359   0.163   2.295   7.800  1.9545 -0.3027 -1.7921
   42MOL   H15813360   0.213   2.372   7.656 -0.5482 -1.3938 -0.2400
   42MOL   H15913361   0.121   2.468   7.760 -1.9198 -1.2917 -2.2445
   42MOL   H16013362   0.507   2.541   7.793  0.1396 -1.0983 -0.5267
   42MOL   H16113363   0.414   2.467   7.643 -0.8291  1.9218 -0.5024
   42MOL   C16213364   0.217   2.592   0.117  0.2881  0.8125  0.0418
   42MOL   C16313365   0.299   2.727   0.102 -0.3611 -0.4684 -0.4442
   42MOL   C16413366   0.131   2.581   0.251  0.2579  0.8247 -0.2696
   42MOL   C16513367   0.072   2.438   0.279  0.3008  0.3625  0.4542
   42MOL   C16613368   7.882   2.374   0.165 -0.2294 -0.5261 -0.5951
   42MOL   C16713369   0.083   2.361   0.392 -0.7137  0.7782 -0.2559
   42MOL   H16813370   0.148   2.594   0.033 -0.9390 -1.6899  0.9444
   42MOL   H16913371   0.344   2.742   0.004  1.4370 -0.8720  0.3103
   42MOL   H17013372   0.379   2.753   0.170 -0.1545 -0.7386 -0.5840
   42MOL   H17113373   0.231   2.813   0.108  0.2407 -0.1087  1.5260
   42MOL   H17213374   0.200   2.596   0.334  1.7681 -0.9337 -1.1765
   42MOL   H17313375   7.852   2.272   0.190  0.7058 -0.8358 -0.7183
   42MOL   H17413376   0.038   2.370   0.068  0.9352 -0.5117 -0.0307
   42MOL   H17513377   7.788   2.426   0.147 -0.7597 -0.5330  1.9440
   42MOL   H17613378   0.135   2.381   0.484  0.8498 -0.5384 -0.8378
   42MOL   H17713379   0.023   2.271   0.392 -0.9039  0.8214 -4.0914
   42MOL   C17813380   0.012   2.682   0.265  0.0718  0.0885 -0.8057
   42MOL   C17913381   7.827   2.719   0.137 -0.4370 -0.4085  0.3108
   42MOL   C18013382   0.042   2.811   0.354  0.3549  0.5264  0.3204
   42MOL   C18113383   0.088   2.776   0.496 -0.0348  0.1407 -0.1346
   42MOL   C18213384   0.200   2.862   0.555  0.8930  0.2004 -0.0054
   42MOL   C18313385   0.033   2.677   0.568 -0.1149  1.0947 -0.9913
   42MOL   H18413386   7.815   2.642   0.312  1.6696 -2.2522  0.3660
   42MOL   H18513387   7.729   2.763   0.154 -1.9035 -3.0327 -1.0571
   42MOL   H18613388   7.808   2.637   0.067  2.2722  0.7639 -1.9153
   42MOL   H18713389   7.888   2.785   0.075 -3.1383  1.7404 -0.1854
   42MOL   H18813390   0.133   2.842   0.301  0.7072 -2.7529 -1.1367
   42MOL   H18913391   0.185   2.968   0.574  0.4763 -0.0509  1.1261
   42MOL   H19013392   0.290   2.859   0.494 -0.1219  1.2557 -1.5942
   42MOL   H19113393   0.232   2.809   0.645  1.0775  1.0012  0.3958
   42MOL   H19213394   7.853   2.615   0.517 -0.5573  1.1103 -0.3914
   42MOL   H19313395   0.064   2.656   0.670 -1.5930 -0.2559 -0.8026
   42MOL   C19413396   7.830   2.926   0.358 -0.8346  0.1244 -0.0833
   42MOL   C19513397   7.698   2.878   0.411  0.7239 -0.2288 -0.0028
   42MOL   C19613398   7.825   3.033   0.233 -0.4254 -0.1584  0.1161
   42MOL   C19713399   0.072   3.084   0.200  0.2335 -0.0353  0.1730
   42MOL   C19813400   0.097   3.072   0.052  0.0444  0.2512 -0.5546
   42MOL   C19913401   0.171   3.134   0.280  0.0683  0.0584 -0.2782
   42MOL   H20013402   7.869   2.985   0.442  0.3698  0.3847 -0.8120
   42MOL   H20113403   7.709   2.820   0.503  0.8888 -1.1071 -0.5689
   42MOL   H20213404   7.652   2.807   0.342  0.2136 -0.7167  0.8324
   42MOL   H20313405   7.631   2.961   0.434  0.7771  0.1519 -1.1706
   42MOL   H20413406   7.802   2.967   0.149  0.4799 -0.7009  0.2943
   42MOL   H20513407   0.203   3.086   0.036  0.4275 -1.6529  0.1522
   42MOL   H20613408   0.046   3.146   7.882 -1.5845 -0.1407  0.2679
   42MOL   H20713409   0.065   2.974   0.016  1.6156 -0.1318 -0.9390
   42MOL   H20813410   0.144   3.141   0.385 -0.9055  0.7986 -0.5662
   42MOL   H20913411   0.267   3.168   0.247  0.1143 -1.6915 -2.0443
   42MOL   C21013412   7.725   3.153   0.240  0.6263 -0.2648  0.4496
   42MOL   C21113413   7.734   3.219   0.371  0.7274  1.0918  0.4096
   42MOL   C21213414   7.583   3.101   0.192  0.8066 -0.3381  0.3608
   42MOL   C21313415   7.586   3.027   0.058 -0.5888  0.1481  0.1899
   42MOL   C21413416   7.499   2.905   0.049 -0.4998  0.2131  1.0528
   42MOL   C21513417   7.649   3.085   7.842  0.5737 -0.2754 -0.7817
   42MOL   H21613418   7.752   3.237   0.175 -1.7225  1.2677  1.3969
   42MOL   H21713419   7.709   3.325   0.364  0.4102  1.0138  0.3307
   42MOL   H21813420   7.834   3.232   0.412  0.9579  2.9351 -0.6993
   42MOL   H21913421   7.685   3.160   0.449  0.2627  0.0370 -0.6627
   42MOL   H22013422   7.549   3.012   0.245 -0.8727 -1.1628 -1.9564
   42MOL   H22113423   7.531   2.851   7.853 -0.6627  0.7351  0.6737
   42MOL   H22213424   7.392   2.927   0.046 -0.2288  1.4785  0.4081
   42MOL   H22313425   7.529   2.845   0.135  1.4162  0.6991  0.7325
   42MOL   H22413426   7.712   3.173   7.845  0.3283 -0.1393  1.0563
   42MOL   H22513427   7.635   3.041   7.745 -0.1624  0.6109 -1.0847
   42MOL   C22613428   7.466   3.205   0.194 -0.2637  0.5951 -0.8701
   42MOL   C22713429   7.506   3.333   0.121  0.4471 -0.5689 -0.0581
   42MOL   C22813430   7.399   3.221   0.334  0.8147  0.0031 -0.4953
   42MOL   C22913431   7.373   3.091   0.415 -0.3675  1.0354 -0.4330
   42MOL   C23013432   7.268   2.994   0.365 -0.1280 -0.2488  0.2860
   42MOL   C23113433   7.413   3.072   0.543 -0.4112  0.1348  0.5244
   42MOL   H23213434   7.389   3.160   0.131 -0.5120 -0.1692 -0.0214
   42MOL   H23313435   7.529   3.318   0.015 -0.4954 -0.4125 -0.2931
   42MOL   H23413436   7.593   3.373   0.172  1.0605  0.6038 -1.9545
   42MOL   H23513437   7.422   3.403   0.121 -1.3328 -2.6420 -0.6863
   42MOL   H23613438   7.475   3.269   0.396 -0.7654  0.9552  0.7488
   42MOL   H23713439   7.259   2.993   0.257  0.4628 -0.9262  0.2377
   42MOL   H23813440   7.167   3.014   0.399 -0.5369  0.0668 -1.1074
   42MOL   H23913441   7.292   2.893   0.400 -0.1917  0.0035  1.0801
   42MOL   H24013442   7.479   3.147   0.584  0.3889  0.4356 -1.2395
   42MOL   H24113443   7.389   2.989   0.607 -0.3079 -0.6380 -0.4171
   42MOL   C24213444   7.274   3.321   0.344 -0.4897 -0.5061 -0.0912
   42MOL   C24313445   7.176   3.298   0.227 -0.5691  0.4597  0.2978
   42MOL   C24413446   7.313   3.473   0.373 -0.1248  0.0054  0.1960
   42MOL   C24513447   7.425   3.500   0.475 -0.0042 -0.0244 -0.6590
   42MOL   C24613448   7.517   3.615   0.440  0.4684 -0.2942  0.2456
   42MOL   C24713449   7.442   3.436   0.593  0.0565 -0.7529  0.4169
   42MOL   H24813450   7.220   3.296   0.435 -0.4466 -1.6663 -0.3666
   42MOL   H24913451   7.204   3.375   0.155 -1.0163  0.5936  0.2641
   42MOL   H25013452   7.075   3.322   0.259 -0.4815  0.5118  0.5358
   42MOL   H25113453   7.160   3.196   0.191  0.5078 -0.1495  1.5153
   42MOL   H25213454   7.356   3.510   0.280 -1.1116  0.9198  0.1067
   42MOL   H25313455   7.469   3.705   0.477  0.1952 -0.5922  0.6216
   42MOL   H25413456   7.532   3.614   0.332  0.1590 -0.1680  0.1998
   42MOL   H25513457   7.619   3.612   0.476  0.4302  2.1378  0.6421
   42MOL   H25613458   7.383   3.352   0.626 -0.3337  0.2818  2.4042
   42MOL   H25713459   7.529   3.465   0.649  1.4155 -1.1191 -1.4289
   42MOL   C25813460   7.197   3.573   0.397  0.8494  0.2992 -0.4995
   42MOL   C25913461   7.113   3.535   0.524  0.0920  0.0303 -0.2153
   42MOL   C26013462   7.106   3.617   0.270  0.0602  0.3055  0.0687
   42MOL   C26113463   7.181   3.637   0.137 -0.1325  0.0729 -0.6863
   42MOL   C26213464   7.293   3.742   0.120  0.1517  0.3265  0.2624
   42MOL   C26313465   7.134   3.574   0.031  0.0768 -0.0485  0.2930
   42MOL   H26413466   7.253   3.664   0.413  0.6743  0.1657  0.9372
   42MOL   H26513467   7.182   3.508   0.605 -0.5914 -2.3848 -0.3894
   42MOL   H26613468   7.047   3.450   0.503 -1.1241  1.5344 -2.6106
   42MOL   H26713469   7.058   3.620   0.564 -1.8253 -1.5567  0.6731
   42MOL   H26813470   7.037   3.536   0.250  0.2542  0.8585 -2.9877
   42MOL   H26913471   7.238   3.835   0.105 -0.4063 -0.1742 -0.8302
   42MOL   H27013472   7.351   3.727   0.029  2.3319 -0.2575  1.7088
   42MOL   H27113473   7.361   3.751   0.205 -0.4192 -2.5924  1.0963
   42MOL   H27213474   7.054   3.501   0.023  2.1276 -2.1261 -2.5323
   42MOL   H27313475   7.171   3.595   7.824  0.5818 -0.7455  0.3230
   42MOL   C27413476   7.004   3.734   0.291 -0.1479 -0.0273  0.1940
   42MOL   C27513477   7.062   3.859   0.365  0.2332  0.2440  0.0287
   42MOL   C27613478   6.865   3.691   0.342  0.2906 -0.6101 -1.0576
   42MOL   C27713479   6.803   3.574   0.257  0.5232 -0.0021 -0.1619
   42MOL   C27813480   6.787   3.583   0.114  0.4898 -0.1295 -0.1513
   42MOL   C27913481   6.797   3.448   0.316  0.2786  0.1778  0.1220
   42MOL   H28013482   6.986   3.769   0.189 -0.2382 -0.5765  0.0163
   42MOL   H28113483   6.999   3.947   0.366 -0.7662 -0.4684  1.0130
   42MOL   H28213484   7.161   3.884   0.326  0.6954  1.6308  2.0130
   42MOL   H28313485   7.081   3.836   0.470  0.9589 -2.3880 -0.6259
   42MOL   H28413486   6.892   3.641   0.435 -0.9313  1.6918  0.5837
   42MOL   H28513487   6.849   3.653   0.060 -1.6244  2.0623  0.1594
   42MOL   H28613488   6.685   3.618   0.096 -0.9612 -3.8620  0.3614
   42MOL   H28713489   6.773   3.485   0.068 -3.3385  1.0346 -1.6433
   42MOL   H28813490   6.810   3.432   0.422 -0.3436 -3.7434 -0.3013
   42MOL   H28913491   6.770   3.362   0.255 -2.4597  0.7715  0.4182
   42MOL   C29013492   6.749   3.800   0.364 -0.7039  0.3881  0.2818
   42MOL   C29113493   6.747   3.900   0.244 -0.1056 -0.8714 -0.0268
   42MOL   C29213494   6.741   3.855   0.511  0.3208  0.7065  0.2602
   42MOL   C29313495   6.734   3.751   0.628  0.0096 -0.1010 -1.2566
   42MOL   C29413496   6.791   3.790   0.761 -0.7436  0.1884  0.4237
   42MOL   C29513497   6.683   3.629   0.610  0.2163 -0.0917  0.4669
   42MOL   H29613498   6.660   3.740   0.344 -0.1813 -0.6098  0.9019
   42MOL   H29713499   6.812   3.986   0.255 -0.8148 -0.3802  0.3016
   42MOL   H29813500   6.651   3.950   0.235 -0.2890 -0.8740  1.8214
   42MOL   H29913501   6.767   3.856   0.146  0.4587 -0.5005 -0.0770
   42MOL   H30013502   6.834   3.907   0.533  2.2841 -2.2334 -0.8885
   42MOL   H30113503   6.858   3.876   0.759  2.4066 -2.1615  0.7749
   42MOL   H30213504   6.844   3.706   0.807  1.0633 -0.2568 -2.3284
   42MOL   H30313505   6.703   3.828   0.812 -0.4307  0.7390  0.5644
   42MOL   H30413506   6.646   3.591   0.515  2.0017 -3.1272  0.9072
   42MOL   H30513507   6.676   3.557   0.690  0.9125 -0.6945 -0.0072
   42MOL   C30613508   6.614   3.951   0.535 -0.1260 -0.1330  0.0134
   42MOL   C30713509   6.482   3.898   0.486 -0.3698 -0.5643 -0.4073
   42MOL   C30813510   6.635   4.102   0.500 -0.5552 -0.3400 -0.0995
   42MOL   C30913511   6.516   4.186   0.531 -0.9418 -0.5083 -0.5101
   42MOL   C31013512   6.488   4.203   0.685  0.1570  0.1527 -0.0795
   42MOL   C31113513   6.447   4.246   0.436 -0.2471 -0.5504 -0.1193
   42MOL   H31213514   6.603   3.951   0.643 -0.0920  0.1075  0.0187
   42MOL   H31313515   6.404   3.965   0.522  0.0431  1.0177 -2.3241
   42MOL   H31413516   6.454   3.798   0.518 -1.1930 -1.2290 -3.0161
   42MOL   H31513517   6.484   3.905   0.377  2.4604 -2.2197 -0.4896
   42MOL   H31613518   6.723   4.133   0.557 -0.2025  2.4664 -2.0878
   42MOL   H31713519   6.431   4.129   0.740  0.1729 -0.5721 -1.0165
   42MOL   H31813520   6.420   4.288   0.687  0.6175  0.5890 -1.5308
   42MOL   H31913521   6.579   4.215   0.743  1.5961  0.5758 -2.3285
   42MOL   H32013522   6.470   4.231   0.332 -0.8905  0.7677 -0.4649
   42MOL   H32113523   6.362   4.307   0.466 -0.1080 -0.6197  0.4189
   42MOL   H32213524   6.665   4.115   0.396 -2.7768  2.1812 -0.4744
   43MOL     C113525   4.844   5.092   6.916  0.0768  0.2969 -1.1952
   43MOL     C213526   4.720   5.094   6.826  0.5321  0.4987 -0.4008
   43MOL     C313527   4.943   5.209   6.903  0.2427 -0.8892 -0.2828
   43MOL     C413528   4.979   5.234   6.749 -0.8256 -0.2964  0.5136
   43MOL     C513529   4.986   5.380   6.712 -0.4848  0.0921 -0.2955
   43MOL     C613530   4.997   5.135   6.660 -0.3340 -0.2759  0.7429
   43MOL     H713531   4.810   5.102   7.019  0.6382  0.7951 -1.0540
   43MOL     H813532   4.722   5.041   6.731 -1.5760 -1.0251  0.3644
   43MOL     H913533   4.673   5.190   6.804 -1.8553 -0.2450  1.2436
   43MOL    H1013534   4.643   5.050   6.888  1.4354 -1.5137 -0.6751
   43MOL    H1113535   4.880   5.295   6.925 -0.7226 -1.6308 -0.1200
   43MOL    H1213536   5.013   5.391   6.607 -0.8527  3.2764 -0.1020
   43MOL    H1313537   5.062   5.434   6.769 -0.4305  1.8102 -1.9526
   43MOL    H1413538   4.892   5.432   6.732  0.5114  1.3856  1.1952
   43MOL    H1513539   4.978   5.031   6.684 -1.2276 -0.1649  0.5337
   43MOL    H1613540   5.028   5.158   6.559  0.7168 -1.1718  0.8516
   43MOL    H1713541   4.894   4.996   6.910  0.2467  0.2724  0.5214
   43MOL    C1813542   5.069   5.211   6.991  0.9698 -0.0140  0.6175
   43MOL    C1913543   5.136   5.077   6.967 -0.2023 -0.5055  0.4136
   43MOL    C2013544   5.036   5.226   7.140 -0.8301  0.0966 -0.1380
   43MOL    C2113545   4.929   5.340   7.174  0.3402  0.3729 -0.1817
   43MOL    C2213546   4.956   5.483   7.147  0.1211 -0.0161 -0.0611
   43MOL    C2313547   4.812   5.310   7.240 -0.1896 -0.3177  0.0347
   43MOL    H2413548   5.134   5.290   6.954  1.0605 -0.6075 -0.4987
   43MOL    H2513549   5.084   4.986   6.994 -2.0646  0.1371 -0.8982
   43MOL    H2613550   5.238   5.069   7.004  0.2692  1.0718 -0.4645
   43MOL    H2713551   5.158   5.065   6.860  1.7670  1.2004  0.5961
   43MOL    H2813552   4.973   5.142   7.169  0.3255  0.0301  2.2381
   43MOL    H2913553   5.039   5.515   7.211 -0.7648 -1.3624  1.7865
   43MOL    H3013554   4.870   5.547   7.166 -2.5432 -2.7944 -2.3992
   43MOL    H3113555   4.987   5.501   7.044  1.2749 -1.7336 -0.0276
   43MOL    H3213556   4.798   5.206   7.263 -1.2744 -0.2926 -0.4888
   43MOL    H3313557   4.727   5.376   7.251 -0.2762 -0.2496 -0.9506
   43MOL    C3413558   5.163   5.231   7.234 -0.3156 -0.0285 -0.6250
   43MOL    C3513559   5.273   5.327   7.184 -0.2513  0.1199 -0.2487
   43MOL    C3613560   5.200   5.086   7.296  0.5193  0.2936 -0.1459
   43MOL    C3713561   5.088   4.996   7.353  0.3934 -0.3300 -0.0321
   43MOL    C3813562   5.108   4.843   7.328  0.2778  1.5189 -0.9423
   43MOL    C3913563   5.007   5.044   7.448 -0.3324  0.0316  0.9539
   43MOL    H4013564   5.124   5.283   7.321  0.7818 -1.4130  0.7339
   43MOL    H4113565   5.232   5.421   7.150  0.6241  0.5599 -0.1135
   43MOL    H4213566   5.340   5.284   7.109 -2.4200 -0.7467 -1.7347
   43MOL    H4313567   5.337   5.351   7.269 -0.7548  2.1743 -0.4387
   43MOL    H4413568   5.242   5.030   7.212  0.3491 -2.1413  1.3456
   43MOL    H4513569   5.017   4.786   7.340  1.8003 -0.8182 -0.1947
   43MOL    H4613570   5.173   4.792   7.399 -0.5383  1.8321  0.0313
   43MOL    H4713571   5.142   4.823   7.226  1.7955  1.6805 -0.4814
   43MOL    H4813572   5.005   5.150   7.471  1.5247  0.0916  0.9690
   43MOL    H4913573   4.940   4.982   7.506 -0.2124  1.3420  2.5235
   43MOL    C5013574   5.309   5.088   7.405 -1.0619 -0.3719  0.3719
   43MOL    C5113575   5.300   5.204   7.506  0.2464  0.5144  0.7909
   43MOL    C5213576   5.459   5.082   7.345 -0.1552  0.4702  0.3320
   43MOL    C5313577   5.479   4.974   7.240 -0.1097 -0.4068  0.0601
   43MOL    C5413578   5.463   4.832   7.271  0.3564 -0.1557 -0.3526
   43MOL    C5513579   5.509   5.012   7.113 -0.4589 -0.2788 -0.3488
   43MOL    H5613580   5.301   4.999   7.468  0.3524 -1.4836 -1.0172
   43MOL    H5713581   5.200   5.231   7.539 -0.1066  2.4536 -1.7085
   43MOL    H5813582   5.342   5.297   7.468  1.0042 -0.8942 -1.9271
   43MOL    H5913583   5.357   5.173   7.593  0.1497 -1.4504  0.1796
   43MOL    H6013584   5.472   5.176   7.291 -1.5395  0.9531  0.8327
   43MOL    H6113585   5.510   4.763   7.201  2.3656 -0.4642  1.2584
   43MOL    H6213586   5.358   4.805   7.284  0.0560  0.4822 -1.3865
   43MOL    H6313587   5.515   4.803   7.363 -0.0270 -0.2558 -0.1652
   43MOL    H6413588   5.506   5.119   7.096  1.0357  0.1281  1.6802
   43MOL    H6513589   5.529   4.937   7.039  0.0340 -1.0161  0.5132
   43MOL    C6613590   5.582   5.069   7.452  0.3383 -0.1472  0.1504
   43MOL    C6713591   5.552   4.974   7.564 -0.7323 -0.1853 -0.0913
   43MOL    C6813592   5.638   5.212   7.495  0.0776 -0.3010 -0.7441
   43MOL    C6913593   5.680   5.298   7.379 -0.1030  0.0562  0.9321
   43MOL    C7013594   5.644   5.443   7.387 -0.1842 -0.4819 -0.0021
   43MOL    C7113595   5.729   5.252   7.261  0.4126 -0.3115 -0.5796
   43MOL    H7213596   5.660   5.021   7.392  0.4989 -0.3721  0.5381
   43MOL    H7313597   5.645   4.952   7.617 -0.8215  1.1499  0.6319
   43MOL    H7413598   5.505   4.878   7.543 -0.4434 -0.4521  0.4416
   43MOL    H7513599   5.495   5.026   7.641 -1.7864 -0.0667 -0.9604
   43MOL    H7613600   5.549   5.266   7.528 -2.0442 -2.4396 -2.7684
   43MOL    H7713601   5.700   5.490   7.467 -2.8815  3.2846 -0.2281
   43MOL    H7813602   5.536   5.456   7.391 -0.3384 -1.9802  1.2806
   43MOL    H7913603   5.677   5.485   7.292 -1.2881 -1.8132 -1.0079
   43MOL    H8013604   5.752   5.147   7.256 -0.1555 -0.4291 -0.8183
   43MOL    H8113605   5.743   5.313   7.173 -1.7781  1.2430  0.0884
   43MOL    C8213606   5.755   5.217   7.600  0.6788  0.8170  0.2217
   43MOL    C8313607   5.873   5.128   7.558  0.3612 -0.5889 -0.2972
   43MOL    C8413608   5.716   5.206   7.757  0.4257  0.4893  0.0344
   43MOL    C8513609   5.602   5.301   7.800 -0.1293 -0.3744 -0.7032
   43MOL    C8613610   5.496   5.230   7.878 -0.3706 -0.0023  0.5459
   43MOL    C8713611   5.573   5.426   7.756 -0.1334 -0.3032  0.1191
   43MOL    H8813612   5.792   5.319   7.598  1.3967  0.5669  0.5894
   43MOL    H8913613   5.963   5.151   7.614  0.2456 -2.0804  0.4917
   43MOL    H9013614   5.887   5.130   7.450 -2.4538  1.2151 -0.6980
   43MOL    H9113615   5.856   5.022   7.577 -1.2017 -0.1285  1.0093
   43MOL    H9213616   5.685   5.102   7.765 -0.3508  0.6120 -1.2837
   43MOL    H9313617   5.532   5.217   0.087 -1.1952 -1.6469  0.6418
   43MOL    H9413618   5.486   5.128   7.842  1.2465  0.0349 -0.0506
   43MOL    H9513619   5.397   5.274   7.889 -0.3406  0.1070  0.3912
   43MOL    H9613620   5.643   5.466   7.684  0.2906 -2.3591 -0.6415
   43MOL    H9713621   5.488   5.483   7.790  0.0130 -0.4572  0.7393
   43MOL    C9813622   5.832   5.221   7.865  0.8155 -0.0133  0.2649
   43MOL    C9913623   5.914   5.355   7.850  0.5717 -0.0370  0.6458
   43MOL   C10013624   5.914   5.090   0.002  0.0358 -1.2117 -0.6070
   43MOL   C10113625   5.819   4.979   0.059  0.8500  0.5946  0.5621
   43MOL   C10213626   5.848   4.843   7.892  0.1391  0.5729  0.1163
   43MOL   C10313627   5.719   5.003   0.146  0.4237 -0.4242 -0.3757
   43MOL   H10413628   5.778   5.243   0.065 -1.3841 -0.9425 -0.7739
   43MOL   H10513629   5.987   5.341   7.770 -0.1411 -1.0695  0.1719
   43MOL   H10613630   5.964   5.392   0.047  0.5024  1.3682  0.1293
   43MOL   H10713631   5.849   5.437   7.817  0.0696 -1.1576 -1.2202
   43MOL   H10813632   5.954   5.073   7.794  0.6610  0.5031 -0.6723
   43MOL   H10913633   5.850   4.838   7.783 -0.5927  0.2791  0.1157
   43MOL   H11013634   5.773   4.774   0.036  0.8318  0.0477  0.5755
   43MOL   H11113635   5.946   4.818   0.041 -0.5408  2.3657  3.0184
   43MOL   H11213636   5.694   5.099   0.189  1.8144  0.0394 -0.5833
   43MOL   H11313637   5.656   4.922   0.181 -0.5267 -0.7887 -2.8562
   43MOL   C11413638   6.041   5.099   0.091 -0.0152 -1.0927  0.0430
   43MOL   C11513639   6.010   5.168   0.226  0.0391 -0.4286 -0.0480
   43MOL   C11613640   6.175   5.158   0.024 -0.5442  0.4528 -0.7884
   43MOL   C11713641   6.197   5.096   7.774  0.3579  0.2191 -0.2400
   43MOL   C11813642   6.201   4.943   7.750  0.1316 -0.4952  0.4477
   43MOL   C11913643   6.205   5.172   7.668  0.2146 -0.9023 -0.2296
   43MOL   H12013644   6.068   4.997   0.116  2.1066 -0.9594 -1.4655
   43MOL   H12113645   5.991   5.275   0.220  2.1434  0.0569  1.1110
   43MOL   H12213646   6.095   5.157   0.294 -1.1188 -1.3128  1.2735
   43MOL   H12313647   5.921   5.130   0.276  0.6659 -0.2679  1.2075
   43MOL   H12413648   6.160   5.264   0.004 -0.8541  0.1145 -2.5077
   43MOL   H12513649   6.237   4.917   7.651  0.4718  0.1145  0.4090
   43MOL   H12613650   6.108   4.886   7.756 -0.2627  0.2177  1.3926
   43MOL   H12713651   6.274   4.900   7.818  2.3559  1.4400 -0.6638
   43MOL   H12813652   6.213   5.280   7.674 -1.7172 -0.8383  1.7032
   43MOL   H12913653   6.197   5.130   7.569  1.4016 -0.1275 -0.6644
   43MOL   C13013654   6.314   5.158   0.106  0.1951  0.3885 -0.1069
   43MOL   C13113655   6.329   5.023   0.180 -0.0705  0.0994 -0.4962
   43MOL   C13213656   6.335   5.295   0.194 -0.9808  0.1670  0.3945
   43MOL   C13313657   6.276   5.426   0.135  0.3853  0.2252 -0.5685
   43MOL   C13413658   6.323   5.475   7.892  0.8986  0.3747 -0.6738
   43MOL   C13513659   6.179   5.493   0.201 -0.1303  0.3833  0.4990
   43MOL   H13613660   6.389   5.170   0.029  0.5606  1.7979  0.4454
   43MOL   H13713661   6.285   5.026   0.279 -0.8251 -1.3323 -0.7821
   43MOL   H13813662   6.433   4.994   0.198 -0.1054  0.2132 -0.1185
   43MOL   H13913663   6.270   4.946   0.132 -2.9258  1.9339 -0.0515
   43MOL   H14013664   6.273   5.276   0.282  2.2702  0.1008  2.8069
   43MOL   H14113665   6.393   5.558   0.002  1.3808 -0.0496  0.9222
   43MOL   H14213666   6.235   5.513   7.840 -2.9523 -1.3598  4.1788
   43MOL   H14313667   6.367   5.397   7.831 -0.0637 -0.0948 -0.7820
   43MOL   H14413668   6.140   5.461   0.296 -2.7693  0.5385 -0.4853
   43MOL   H14513669   6.141   5.588   0.165  1.3743  0.8250  0.0459
   43MOL   C14613670   6.485   5.315   0.236 -0.2813  0.3098 -0.7057
   43MOL   C14713671   6.591   5.303   0.122 -0.7036  0.8197  0.4424
   43MOL   C14813672   6.513   5.228   0.364  1.0104 -0.4957 -0.2450
   43MOL   C14913673   6.414   5.262   0.481  0.1140 -0.5017  0.5833
   43MOL   C15013674   6.379   5.405   0.527  0.1750  0.2275  0.2200
   43MOL   C15113675   6.363   5.157   0.548 -0.1546  0.8094 -0.0036
   43MOL   H15213676   6.491   5.419   0.270 -0.3055  0.3212 -0.7359
   43MOL   H15313677   6.577   5.367   0.035  1.2039  0.2031 -0.3202
   43MOL   H15413678   6.605   5.204   0.078  2.3183  2.3063 -2.1086
   43MOL   H15513679   6.690   5.333   0.153 -0.7757  2.0165 -0.4525
   43MOL   H15613680   6.480   5.126   0.346  1.7167 -0.3980 -2.2335
   43MOL   H15713681   6.328   5.400   0.623 -1.6395 -1.6215 -0.7896
   43MOL   H15813682   6.310   5.460   0.462  1.3203  1.5317  0.0832
   43MOL   H15913683   6.464   5.472   0.540 -0.0806  0.6390 -0.1878
   43MOL   H16013684   6.384   5.054   0.523 -1.1894  0.1215  1.8717
   43MOL   H16113685   6.297   5.174   0.632 -0.0628  1.4001 -0.0465
   43MOL   C16213686   6.655   5.229   0.422  0.1274  0.5586 -0.6286
   43MOL   C16313687   6.724   5.368   0.419 -0.0992  0.9481 -0.0216
   43MOL   C16413688   6.745   5.118   0.358 -0.3138  0.9077 -0.1582
   43MOL   C16513689   6.682   4.981   0.351 -0.4835 -0.1078  0.3633
   43MOL   C16613690   6.644   4.896   0.475 -0.4689 -0.6812  0.6372
   43MOL   C16713691   6.659   4.930   0.230  0.5470 -0.6342 -0.1155
   43MOL   H16813692   6.635   5.200   0.525 -0.0873  1.2520 -0.4742
   43MOL   H16913693   6.671   5.456   0.455 -2.3347 -0.6807  0.8153
   43MOL   H17013694   6.755   5.401   0.320  2.6943  0.9888  0.8147
   43MOL   H17113695   6.818   5.359   0.474 -0.7566 -0.1772  0.9397
   43MOL   H17213696   6.755   5.139   0.251 -0.7584  2.6216  0.1138
   43MOL   H17313697   6.591   4.956   0.549  0.4625  3.1412 -1.6636
   43MOL   H17413698   6.730   4.850   0.524 -0.1819  0.4149  1.1908
   43MOL   H17513699   6.599   4.801   0.445 -2.1975  0.2765  0.1534
   43MOL   H17613700   6.683   4.976   0.135  0.2354  1.1322  0.6461
   43MOL   H17713701   6.617   4.830   0.227  2.5719 -1.5024 -0.5954
   43MOL   C17813702   6.892   5.105   0.413  0.0743 -0.2362 -0.1015
   43MOL   C17913703   6.892   5.108   0.567 -0.2196  0.1461 -0.0050
   43MOL   C18013704   6.997   5.201   0.347  0.0932  0.0894  0.5561
   43MOL   C18113705   6.996   5.203   0.192 -1.4344  0.1145 -0.6550
   43MOL   C18213706   7.036   5.337   0.127  0.6914 -0.3895 -0.6685
   43MOL   C18313707   6.981   5.092   0.111  0.5887  0.0660 -0.6132
   43MOL   H18413708   6.919   5.003   0.386 -0.9225 -0.3246 -0.7831
   43MOL   H18513709   6.907   5.209   0.607 -0.1311 -0.1793  0.7919
   43MOL   H18613710   6.977   5.053   0.608  0.0905  0.4902 -0.1768
   43MOL   H18713711   6.813   5.060   0.625 -0.6905 -0.4150 -1.1088
   43MOL   H18813712   6.979   5.307   0.366  2.1772  0.2407  1.8921
   43MOL   H18913713   6.978   5.421   0.166  1.9347  1.9805 -3.7716
   43MOL   H19013714   7.025   5.340   0.019 -1.6972  1.9466 -0.4149
   43MOL   H19113715   7.140   5.361   0.147 -0.0467  2.5477 -0.1232
   43MOL   H19213716   6.965   4.996   0.157 -0.8009 -0.6964 -2.6098
   43MOL   H19313717   6.979   5.097   0.003  1.0147 -1.6220 -0.7126
   43MOL   C19413718   7.153   5.173   0.400 -0.3382 -0.4003 -0.4135
   43MOL   C19513719   7.194   5.022   0.370 -0.5589 -0.7196  0.9407
   43MOL   C19613720   7.198   5.233   0.542 -0.1574 -0.2083  0.4757
   43MOL   C19713721   7.132   5.361   0.589 -0.2272 -0.1769  0.4975
   43MOL   C19813722   7.094   5.369   0.738  0.0694  0.1217  0.3025
   43MOL   C19913723   7.102   5.466   0.513  0.8136  0.0736 -0.4606
   43MOL   H20013724   7.209   5.235   0.329 -1.8214  0.3181 -0.9847
   43MOL   H20113725   7.302   5.005   0.371 -0.6032 -0.9433  1.8464
   43MOL   H20213726   7.160   4.987   0.272  0.2821  0.8865  0.0528
   43MOL   H20313727   7.155   4.954   0.444 -0.8443 -2.6145 -0.9060
   43MOL   H20413728   7.152   5.159   0.606 -2.2160  0.0526 -0.6711
   43MOL   H20513729   7.033   5.287   0.777 -0.1348 -0.0478 -0.3639
   43MOL   H20613730   7.031   5.457   0.754 -0.4507 -0.3796  1.0759
   43MOL   H20713731   7.182   5.377   0.801  0.1930 -4.8362  1.0100
   43MOL   H20813732   7.128   5.468   0.408 -1.5865 -1.2321 -1.1155
   43MOL   H20913733   7.053   5.552   0.556  2.9258 -0.4928  3.2883
   43MOL   C21013734   7.350   5.240   0.568  0.6533  0.7159 -0.3691
   43MOL   C21113735   7.400   5.215   0.710  0.0349  0.6027 -1.1515
   43MOL   C21213736   7.423   5.356   0.483  0.5298 -0.0963  0.3683
   43MOL   C21313737   7.493   5.299   0.359  0.8569 -0.1434 -0.4549
   43MOL   C21413738   7.471   5.366   0.226 -0.1847  0.1170  0.2905
   43MOL   C21513739   7.584   5.205   0.372  0.0476  0.1185  0.3163
   43MOL   H21613740   7.387   5.148   0.524 -0.8263 -0.6871  1.2382
   43MOL   H21713741   7.338   5.141   0.761  2.5623 -0.2872  0.7193
   43MOL   H21813742   7.397   5.297   0.782  0.7714 -0.0855 -0.3251
   43MOL   H21913743   7.506   5.190   0.710 -0.3727 -1.1497  0.1358
   43MOL   H22013744   7.347   5.417   0.434  0.8509 -0.6990 -0.9120
   43MOL   H22113745   7.532   5.319   0.149  1.3935  0.6584  1.1937
   43MOL   H22213746   7.479   5.475   0.226 -0.5454  0.2133 -2.9675
   43MOL   H22313747   7.367   5.349   0.198  0.1524  0.6849 -1.3822
   43MOL   H22413748   7.606   5.147   0.460  0.0101  0.5348  0.5998
   43MOL   H22513749   7.633   5.181   0.278 -0.5890  0.8734 -0.2233
   43MOL   C22613750   7.499   5.469   0.559  0.4672 -0.5840 -0.0292
   43MOL   C22713751   7.442   5.602   0.525  0.1871  0.2801  0.1006
   43MOL   C22813752   7.657   5.462   0.574  0.7563  0.0621  0.5547
   43MOL   C22913753   7.707   5.495   0.715 -0.0022 -0.2969  0.1313
   43MOL   C23013754   7.801   5.400   0.784 -0.6136 -0.4150 -0.5034
   43MOL   C23113755   7.660   5.598   0.786  0.6142  0.7285  0.5918
   43MOL   H23213756   7.468   5.463   0.663 -2.3564 -0.6995 -0.8446
   43MOL   H23313757   7.336   5.602   0.551 -0.3720 -0.8893 -2.0396
   43MOL   H23413758   7.445   5.613   0.416  1.7091 -0.6188  0.0474
   43MOL   H23513759   7.496   5.685   0.571  1.8361  1.4751 -3.7079
   43MOL   H23613760   7.678   5.356   0.564 -1.8861 -0.3414 -1.0505
   43MOL   H23713761   0.012   5.424   0.759 -0.8237  1.3469  0.2836
   43MOL   H23813762   7.798   5.297   0.747 -1.1193 -1.1128  1.4169
   43MOL   H23913763   7.793   5.397   0.893 -1.6848 -2.2938 -0.6208
   43MOL   H24013764   7.591   5.674   0.753  0.7350  1.2149  1.4316
   43MOL   H24113765   7.686   5.614   0.890 -2.3204  1.0531  1.3201
   43MOL   C24213766   7.734   5.515   0.446  0.8598 -0.0294  0.3721
   43MOL   C24313767   7.871   5.449   0.428  0.4776  0.5773 -0.0148
   43MOL   C24413768   7.756   5.669   0.426  0.0556 -0.1040 -0.4791
   43MOL   C24513769   7.726   5.705   0.278  0.1232  0.3955 -0.1072
   43MOL   C24613770   7.590   5.774   0.250 -0.7669 -0.5621  0.3679
   43MOL   C24713771   7.804   5.675   0.177  0.1971  0.3032 -0.0462
   43MOL   H24813772   7.677   5.476   0.362  0.6353 -1.9488  1.3936
   43MOL   H24913773   0.035   5.435   0.521  0.6486 -1.3864 -0.3973
   43MOL   H25013774   0.044   5.489   0.351  1.4309  0.8372  0.9208
   43MOL   H25113775   7.868   5.346   0.394  0.8670 -0.1423  2.0236
   43MOL   H25213776   7.676   5.717   0.483  0.1431  1.1748 -1.4036
   43MOL   H25313777   7.605   5.835   0.161  2.3947 -1.7236  0.0671
   43MOL   H25413778   7.549   5.841   0.326 -0.8910  0.8422 -0.9006
   43MOL   H25513779   7.516   5.699   0.222  0.3691 -2.2643  1.8474
   43MOL   H25613780   0.009   5.631   0.190 -0.0741 -0.2702  0.0623
   43MOL   H25713781   7.777   5.699   0.075  1.2008  0.8060 -0.1959
   43MOL   C25813782   7.885   5.741   0.476 -0.4553  0.1031 -0.1625
   43MOL   C25913783   0.041   5.710   0.621 -0.2139  0.1949  0.0562
   43MOL   C26013784   7.879   5.893   0.441  0.2221  0.1285 -0.4115
   43MOL   C26113785   0.122   5.933   0.374 -0.5563  0.1289  0.1529
   43MOL   C26213786   0.248   5.929   0.466 -0.6710 -0.0209  0.3274
   43MOL   C26313787   0.126   5.958   0.244  0.0463 -0.4516  0.2526
   43MOL   H26413788   0.068   5.701   0.409  1.7955 -0.4856  2.6305
   43MOL   H26513789   0.138   5.756   0.641 -0.9742  0.8334  2.4709
   43MOL   H26613790   0.068   5.605   0.629 -0.9728 -0.0767 -0.8178
   43MOL   H26713791   7.851   5.730   0.689  0.3160 -1.1425  1.1022
   43MOL   H26813792   7.805   5.915   0.364 -0.8112  0.6570  0.7302
   43MOL   H26913793   0.217   5.961   0.566 -1.0462  0.1132  0.1659
   43MOL   H27013794   0.328   5.995   0.433 -0.6010  0.7271  1.9358
   43MOL   H27113795   0.289   5.828   0.466  0.2845  0.3445  1.8187
   43MOL   H27213796   0.036   5.956   0.184 -0.0788  2.6010  0.2559
   43MOL   H27313797   0.219   5.975   0.192  1.0546 -2.2980  1.3980
   43MOL   C27413798   7.832   5.993   0.555 -0.4147 -0.1867 -0.7861
   43MOL   C27513799   7.694   5.969   0.610  0.4014  0.5810  0.8550
   43MOL   C27613800   7.859   6.149   0.520 -0.0067  0.5046 -0.5054
   43MOL   C27713801   0.015   6.214   0.650  0.6644 -0.2485  0.8532
   43MOL   C27813802   0.162   6.197   0.697 -0.6369 -0.2781  0.7884
   43MOL   C27913803   7.822   6.266   0.741 -0.3782  0.4508  0.1325
   43MOL   H28013804   0.004   5.967   0.639 -1.1352  1.8777  0.4272
   43MOL   H28113805   7.671   6.034   0.694 -0.1072 -1.9467  2.7488
   43MOL   H28213806   7.681   5.866   0.645 -1.2170  0.9515  1.3829
   43MOL   H28313807   7.628   5.986   0.525  0.8410 -2.7636 -0.2627
   43MOL   H28413808   0.053   6.148   0.454 -0.4785  0.8707 -1.1380
   43MOL   H28513809   0.163   6.093   0.728  1.1724 -0.4569  0.1567
   43MOL   H28613810   0.189   6.259   0.783  2.4397 -0.7790  0.2330
   43MOL   H28713811   0.235   6.206   0.617 -0.9209 -1.9690  0.3211
   43MOL   H28813812   7.717   6.279   0.716 -0.4647 -0.8447 -0.1868
   43MOL   H28913813   7.851   6.302   0.839 -0.5899  1.3050 -0.1101
   43MOL   C29013814   7.753   6.237   0.441 -0.0327 -0.1626 -0.3606
   43MOL   C29113815   7.694   6.177   0.314  0.3636 -0.0366 -0.1680
   43MOL   C29213816   7.808   6.381   0.414  0.5580 -0.2399 -0.0753
   43MOL   C29313817   7.708   6.495   0.462  0.0793 -0.3775 -0.6360
   43MOL   C29413818   7.566   6.495   0.402 -0.0187  0.2049 -0.3504
   43MOL   C29513819   7.746   6.592   0.549  0.4662  0.0536 -0.1673
   43MOL   H29613820   7.669   6.234   0.509  1.4114 -0.9123  1.4327
   43MOL   H29713821   7.774   6.141   0.250 -0.0125  1.3451 -1.4448
   43MOL   H29813822   7.635   6.256   0.268 -0.3322 -0.6701 -0.3611
   43MOL   H29913823   7.626   6.095   0.339 -0.1849  0.5963  0.4564
   43MOL   H30013824   7.885   6.399   0.489 -1.2766  0.6751  1.6388
   43MOL   H30113825   7.500   6.421   0.447  0.2491 -0.2503 -0.6974
   43MOL   H30213826   7.565   6.471   0.295  0.0627 -0.9560 -0.0943
   43MOL   H30313827   7.518   6.592   0.412 -0.4333 -0.0610  0.2921
   43MOL   H30413828   7.842   6.577   0.596 -0.1772  1.2815  1.5618
   43MOL   H30513829   7.680   6.671   0.582  0.3522  0.5252 -1.4955
   43MOL   C30613830   7.884   6.412   0.287 -0.2438  0.4138  0.3289
   43MOL   C30713831   0.116   6.319   0.275 -0.2191  0.2056 -0.2813
   43MOL   C30813832   0.039   6.562   0.276  0.0660  0.8579 -0.2182
   43MOL   C30913833   0.092   6.609   0.140  1.3091 -0.4258 -0.6627
   43MOL   C31013834   0.147   6.752   0.141 -0.9783  0.5203 -0.4353
   43MOL   C31113835   0.084   6.547   0.020 -0.6487  0.5288  0.2443
   43MOL   H31213836   7.817   6.394   0.203 -0.6980 -0.1591  0.8129
   43MOL   H31313837   0.162   6.304   0.373 -2.4557  1.9957  1.1105
   43MOL   H31413838   0.198   6.368   0.224 -1.5823  1.8546 -0.9387
   43MOL   H31513839   0.099   6.222   0.229  2.5060 -0.4853  0.0694
   43MOL   H31613840   7.847   6.630   0.282 -1.6181 -1.1723 -0.2440
   43MOL   H31713841   0.196   6.785   0.049 -0.6648  1.4954  0.0731
   43MOL   H31813842   0.213   6.774   0.224 -0.2689  0.8405 -1.0721
   43MOL   H31913843   0.059   6.817   0.151 -0.6488  0.7791  0.8588
   43MOL   H32013844   0.049   6.447   0.002 -0.9072  0.6516  0.0687
   43MOL   H32113845   0.124   6.595   7.824 -1.6677 -1.1022 -1.1160
   43MOL   H32213846   0.104   6.576   0.362 -1.9427 -0.4857  1.5517
   44MOL     C113847   3.011   5.111   0.054  0.6185 -0.5974  0.0106
   44MOL     C213848   3.038   5.127   0.202 -0.2290  0.0455  0.8632
   44MOL     C313849   2.920   5.212   7.880 -0.7254 -0.5221 -0.1335
   44MOL     C413850   2.778   5.224   0.057  0.6183  0.2706 -0.1936
   44MOL     C513851   2.717   5.095   0.125  0.5273 -0.4718 -0.1447
   44MOL     C613852   2.721   5.346   0.079  0.8534  0.3000  0.7742
   44MOL     H713853   3.103   5.101   7.889  1.5792  1.2253  1.2117
   44MOL     H813854   3.114   5.056   0.236  0.1029  0.7372  1.5880
   44MOL     H913855   2.951   5.116   0.268 -2.0211  0.4362 -1.3842
   44MOL    H1013856   3.074   5.228   0.221 -1.1527  0.3422  1.0800
   44MOL    H1113857   2.969   5.305   0.016  1.8567 -2.9815  3.9290
   44MOL    H1213858   2.787   5.033   0.182 -0.2308 -3.6428 -2.4945
   44MOL    H1313859   2.682   5.024   0.050  1.8469  1.0025 -2.2146
   44MOL    H1413860   2.642   5.125   0.198  0.4497 -1.2678  0.1121
   44MOL    H1513861   2.768   5.436   0.043  0.8694 -0.4510 -1.1508
   44MOL    H1613862   2.624   5.350   0.126  0.8767 -0.1857  0.8646
   44MOL    H1713863   2.960   5.014   0.053 -0.7068  0.0957 -0.3379
   44MOL    C1813864   2.910   5.199   7.729 -0.7926  0.7866  0.0910
   44MOL    C1913865   2.872   5.059   7.685 -0.5454  0.0950  0.5283
   44MOL    C2013866   3.034   5.256   7.652  0.0135 -0.1385  0.5016
   44MOL    C2113867   3.059   5.410   7.685 -0.7751  0.4362 -0.6318
   44MOL    C2213868   3.202   5.463   7.683  0.5115  0.3086  0.5391
   44MOL    C2313869   2.955   5.498   7.718  0.4911 -0.3572  0.4489
   44MOL    H2413870   2.826   5.263   7.701 -1.6046 -0.7524 -1.0660
   44MOL    H2513871   2.952   4.995   7.648  0.1531 -0.3770  2.8260
   44MOL    H2613872   2.794   5.066   7.608 -2.6884  0.0096  2.6257
   44MOL    H2713873   2.833   5.014   7.776 -1.4841  0.0400  0.1058
   44MOL    H2813874   3.117   5.196   7.689 -1.8294 -2.0736  1.6515
   44MOL    H2913875   3.273   5.405   7.742  1.4516  1.7523  0.8542
   44MOL    H3013876   3.211   5.571   7.691  0.3293  0.4596 -1.2337
   44MOL    H3113877   3.232   5.446   7.580 -1.5940 -0.5392  0.0330
   44MOL    H3213878   2.852   5.471   7.730  0.5858  0.4064  3.3062
   44MOL    H3313879   2.977   5.603   7.731 -0.1807 -0.3020  1.1771
   44MOL    C3413880   3.039   5.251   7.496 -0.5342  0.0587  0.1873
   44MOL    C3513881   2.917   5.324   7.423 -0.0340  0.5800  0.1713
   44MOL    C3613882   3.082   5.124   7.417  0.3190  0.3636  0.0549
   44MOL    C3713883   3.197   5.042   7.477 -0.3816  0.1779 -0.2858
   44MOL    C3813884   3.184   4.895   7.472  0.3707 -0.5071  0.0816
   44MOL    C3913885   3.308   5.089   7.524 -0.0700 -0.0550  0.0691
   44MOL    H4013886   3.128   5.309   7.470 -0.1301 -0.0919  1.2103
   44MOL    H4113887   2.930   5.353   7.319 -0.9863  0.9490  0.1550
   44MOL    H4213888   2.884   5.413   7.476 -4.5251 -1.0918  0.4149
   44MOL    H4313889   2.831   5.257   7.427 -1.2366  2.0755 -0.4018
   44MOL    H4413890   2.986   5.071   7.417  0.9328 -0.7887 -1.1285
   44MOL    H4513891   3.096   4.876   7.533  0.2644  0.7347  0.3215
   44MOL    H4613892   3.260   4.839   7.527  1.7245 -1.4240 -2.6357
   44MOL    H4713893   3.179   4.848   7.374 -0.1445 -3.5835  1.5237
   44MOL    H4813894   3.328   5.195   7.528 -2.2773  0.3664  0.6364
   44MOL    H4913895   3.386   5.030   7.571 -0.2729  0.7288  1.4231
   44MOL    C5013896   3.117   5.142   7.261  0.6092 -0.0571  0.0560
   44MOL    C5113897   3.200   5.272   7.225  0.3419 -0.8014  0.1208
   44MOL    C5213898   2.992   5.118   7.165 -0.0081  0.4873  0.1513
   44MOL    C5313899   2.934   4.981   7.175  0.3188 -0.6153 -0.7351
   44MOL    C5413900   2.788   4.972   7.201  0.5264  0.9241  0.3785
   44MOL    C5513901   3.016   4.873   7.175 -0.7898  0.5537  0.2968
   44MOL    H5613902   3.188   5.065   7.230 -1.8775 -1.7614 -1.6363
   44MOL    H5713903   3.298   5.266   7.272 -0.4739 -1.7656  1.7220
   44MOL    H5813904   3.148   5.360   7.263 -0.5317 -2.2378  2.3387
   44MOL    H5913905   3.218   5.288   7.118  0.3694 -2.5285 -0.1472
   44MOL    H6013906   2.911   5.183   7.198  0.2663 -0.0644  1.9491
   44MOL    H6113907   2.742   4.875   7.225  0.7566  0.9726  1.0144
   44MOL    H6213908   2.735   5.025   7.122  3.2155 -0.4793 -2.4879
   44MOL    H6313909   2.748   5.030   7.284 -2.0341  0.7184 -0.6566
   44MOL    H6413910   3.121   4.897   7.183 -0.9504  0.8559  1.6985
   44MOL    H6513911   2.981   4.772   7.188  2.0515 -0.7061 -1.3140
   44MOL    C6613912   3.003   5.156   7.011  0.5934 -0.5455 -0.5898
   44MOL    C6713913   3.139   5.112   6.955  0.1391  0.2704  0.1099
   44MOL    C6813914   2.943   5.302   6.973 -0.3715  0.7276  0.1405
   44MOL    C6913915   2.790   5.296   6.963  0.7524 -0.1610  0.1511
   44MOL    C7013916   2.724   5.200   6.863  0.7235 -0.2053  0.3111
   44MOL    C7113917   2.708   5.373   7.043  0.4847 -0.3166  0.5235
   44MOL    H7213918   2.935   5.083   6.967 -1.7956  0.3054  1.5508
   44MOL    H7313919   3.198   5.049   7.022 -1.0015 -2.0027 -0.9458
   44MOL    H7413920   3.195   5.202   6.929 -1.2361  1.0252 -0.2850
   44MOL    H7513921   3.122   5.060   6.860  3.9472  1.1947 -1.1547
   44MOL    H7613922   2.975   5.359   7.061 -0.5892  0.2535  0.5309
   44MOL    H7713923   2.731   5.099   6.902 -1.9659  0.0283  1.4586
   44MOL    H7813924   2.776   5.195   6.767  1.8236 -3.0375  0.9966
   44MOL    H7913925   2.620   5.225   6.840  1.5203  1.7666 -1.3609
   44MOL    H8013926   2.756   5.442   7.111  1.7644 -0.7575  0.0743
   44MOL    H8113927   2.600   5.371   7.038  0.3833  2.1815  0.9976
   44MOL    C8213928   2.992   5.375   6.845 -0.0936  0.7889  0.1736
   44MOL    C8313929   3.040   5.295   6.725 -0.0959  0.4941 -0.5063
   44MOL    C8413930   3.090   5.494   6.890 -0.1958  0.8062  0.0233
   44MOL    C8513931   3.055   5.573   7.023 -0.2713  0.2654 -0.0670
   44MOL    C8613932   2.921   5.648   7.016  0.2399 -0.2761 -0.2379
   44MOL    C8713933   3.137   5.582   7.133 -1.0021 -0.2454 -0.2761
   44MOL    H8813934   2.909   5.425   6.795  0.1622  1.4172  0.3661
   44MOL    H8913935   2.995   5.196   6.714  2.0909 -0.7682  1.6183
   44MOL    H9013936   3.148   5.283   6.728 -0.2525 -1.2535 -1.1327
   44MOL    H9113937   3.021   5.341   6.627  0.6709  2.5315  0.2844
   44MOL    H9213938   3.183   5.450   6.924 -0.3956  0.8949  0.7042
   44MOL    H9313939   2.881   5.630   7.116  1.8140 -2.4897  0.0064
   44MOL    H9413940   2.852   5.594   6.952  1.3429 -0.4232 -1.3121
   44MOL    H9513941   2.927   5.755   6.992  0.5884 -0.8895 -3.0473
   44MOL    H9613942   3.233   5.532   7.140 -0.0707  1.5078 -0.0617
   44MOL    H9713943   3.108   5.642   7.218 -2.0753 -0.2543 -0.6340
   44MOL    C9813944   3.126   5.594   6.774 -0.6583  0.0285 -0.8306
   44MOL    C9913945   3.006   5.635   6.681  0.2168 -0.5789  0.7309
   44MOL   C10013946   3.254   5.548   6.691 -0.0583 -0.2477 -0.7003
   44MOL   C10113947   3.377   5.501   6.774 -0.6008  0.1244 -0.2117
   44MOL   C10213948   3.481   5.408   6.705  0.3264  0.4046 -0.0680
   44MOL   C10313949   3.397   5.546   6.896  0.2048 -1.4070 -0.5714
   44MOL   H10413950   3.132   5.693   6.819  0.2267 -0.0717 -0.7153
   44MOL   H10513951   3.019   5.735   6.641  1.1610 -1.1481 -0.4017
   44MOL   H10613952   2.918   5.651   6.744 -0.7803 -0.6602 -0.6010
   44MOL   H10713953   2.970   5.571   6.600 -1.5876 -2.2219  2.7496
   44MOL   H10813954   3.225   5.460   6.633 -1.2882 -0.3800  0.1014
   44MOL   H10913955   3.439   5.307   6.699  0.1098  0.4086  1.2504
   44MOL   H11013956   3.570   5.407   6.768  0.0311 -0.6708  0.3473
   44MOL   H11113957   3.509   5.438   6.604 -0.3878 -1.1306 -0.7419
   44MOL   H11213958   3.330   5.619   6.939  0.7543 -0.3320 -1.5100
   44MOL   H11313959   3.480   5.511   6.955  0.1345  1.3345  1.2422
   44MOL   C11413960   3.304   5.648   6.578  0.3530  1.1774 -0.6721
   44MOL   C11513961   3.320   5.784   6.643  0.2700 -0.5827  0.6648
   44MOL   C11613962   3.224   5.636   6.439  0.6290 -0.0877 -0.1599
   44MOL   C11713963   3.200   5.494   6.383  0.2446 -0.1206  0.3440
   44MOL   C11813964   3.079   5.474   6.296 -0.6764 -0.0545 -0.3604
   44MOL   C11913965   3.286   5.393   6.388 -0.2655  0.4747  0.2295
   44MOL   H12013966   3.403   5.611   6.550  0.9303  0.7788  1.7220
   44MOL   H12113967   3.221   5.829   6.653  0.0701 -1.0027  0.6166
   44MOL   H12213968   3.391   5.838   6.581  2.3064 -0.4003  3.1188
   44MOL   H12313969   3.363   5.766   6.741  0.2041 -0.1245  0.7755
   44MOL   H12413970   3.119   5.663   6.450  0.3714 -0.0708 -2.4401
   44MOL   H12513971   2.996   5.529   6.340 -0.5130  0.9169 -1.2474
   44MOL   H12613972   3.052   5.369   6.289 -0.1750 -0.2296  0.3122
   44MOL   H12713973   3.090   5.526   6.201  1.9920 -0.7869 -0.4939
   44MOL   H12813974   3.378   5.414   6.441  1.2120 -0.4373 -1.8877
   44MOL   H12913975   3.273   5.293   6.348  2.1839  0.4898 -0.7429
   44MOL   C13013976   3.277   5.713   6.313 -0.5372  0.2333  0.7009
   44MOL   C13113977   3.428   5.699   6.309  0.6195 -0.4749  0.0216
   44MOL   C13213978   3.240   5.866   6.311  0.1672  0.4705 -0.5185
   44MOL   C13313979   3.088   5.892   6.330  0.0952  0.8597  0.1445
   44MOL   C13413980   2.992   5.827   6.227 -0.1111 -0.3027  0.2766
   44MOL   C13513981   3.045   5.970   6.425 -0.0141 -0.5957 -0.1728
   44MOL   H13613982   3.244   5.669   6.219  0.5108  1.8029 -0.4288
   44MOL   H13713983   3.462   5.739   6.213 -2.5692 -0.2659 -1.0713
   44MOL   H13813984   3.456   5.594   6.297  1.6659 -0.0364 -1.6977
   44MOL   H13913985   3.483   5.750   6.388 -0.1415  2.8342 -1.4895
   44MOL   H14013986   3.276   5.901   6.408 -0.6572 -0.9239  0.3168
   44MOL   H14113987   2.885   5.848   6.234 -0.0150  0.5006 -0.6277
   44MOL   H14213988   3.000   5.718   6.222 -2.0807 -0.5299  1.4251
   44MOL   H14313989   3.025   5.862   6.130  0.4653 -0.1410  0.5312
   44MOL   H14413990   3.098   6.022   6.504 -0.1632 -2.6731  1.3366
   44MOL   H14513991   2.941   5.999   6.427  0.5430  1.4540  1.4332
   44MOL   C14613992   3.300   5.958   6.200 -0.7109  0.0902 -0.6559
   44MOL   C14713993   3.303   5.880   6.063  0.8543 -0.3427 -0.2562
   44MOL   C14813994   3.442   6.029   6.236 -0.0974  0.6828 -0.0409
   44MOL   C14913995   3.429   6.106   6.372 -0.2142 -0.1786  1.0888
   44MOL   C15013996   3.317   6.210   6.392  0.4611  0.1263 -0.2441
   44MOL   C15113997   3.515   6.076   6.474 -0.5955 -0.3100 -0.8237
   44MOL   H15213998   3.222   6.034   6.190 -1.0378  0.0649  1.3544
   44MOL   H15313999   3.251   5.785   6.047  0.7429 -0.7115  2.0517
   44MOL   H15414000   3.395   5.863   6.006  0.2799  1.8591 -1.8683
   44MOL   H15514001   3.247   5.942   5.993 -0.3056 -2.3087 -1.1270
   44MOL   H15614002   3.520   5.954   6.251 -0.4229  0.1828 -0.7903
   44MOL   H15714003   3.343   6.305   6.344 -0.2390 -0.5093 -1.9419
   44MOL   H15814004   3.310   6.223   6.500  2.3114  0.0640 -0.0978
   44MOL   H15914005   3.213   6.191   6.366  1.1140  0.5928 -3.4769
   44MOL   H16014006   3.595   6.004   6.469 -0.4704 -0.2856  0.7756
   44MOL   H16114007   3.507   6.131   6.566 -0.3821  1.2352 -1.7112
   44MOL   C16214008   3.505   6.124   6.123 -0.5183  0.0145 -0.3785
   44MOL   C16314009   3.393   6.202   6.049  0.0380 -0.2410  0.1944
   44MOL   C16414010   3.611   6.056   6.025 -0.4209  0.7209  0.5260
   44MOL   C16514011   3.716   5.985   6.109 -0.6313  0.9902  0.3421
   44MOL   C16614012   3.769   5.850   6.070 -0.0663 -0.1195 -0.7894
   44MOL   C16714013   3.762   6.042   6.223 -0.4315  0.0316  0.3322
   44MOL   H16814014   3.560   6.207   6.166  1.6375 -0.4925 -2.0598
   44MOL   H16914015   3.415   6.297   6.000  2.1569 -0.3460  0.8927
   44MOL   H17014016   3.326   6.245   6.124 -0.0944 -1.6533  0.9030
   44MOL   H17114017   3.326   6.140   5.990 -0.3645  0.4536 -0.0849
   44MOL   H17214018   3.558   5.975   5.975  1.3638  0.3245 -0.7539
   44MOL   H17314019   3.840   5.870   5.989  0.9597 -0.2287  0.0738
   44MOL   H17414020   3.685   5.788   6.040 -0.1070 -0.6045  0.2938
   44MOL   H17514021   3.820   5.804   6.155 -0.8816  0.0273 -0.2145
   44MOL   H17614022   3.725   6.139   6.252 -3.3098 -1.2800  1.1583
   44MOL   H17714023   3.833   6.000   6.293  2.4836  1.1668 -1.8530
   44MOL   C17814024   3.674   6.134   5.899  0.0124  0.3970  0.0508
   44MOL   C17914025   3.748   6.263   5.951  0.3377 -0.1469 -0.1212
   44MOL   C18014026   3.579   6.140   5.774  0.2017 -0.5404 -0.1753
   44MOL   C18114027   3.521   6.001   5.744  1.2828 -0.6305  0.7213
   44MOL   C18214028   3.610   5.884   5.706 -0.2347  0.1857  0.2482
   44MOL   C18314029   3.387   5.992   5.741 -0.3681 -0.4950  0.1938
   44MOL   H18414030   3.745   6.065   5.852  0.0649 -0.5663  1.5041
   44MOL   H18514031   3.793   6.317   5.868 -0.1822  0.4258 -0.0352
   44MOL   H18614032   3.824   6.247   6.027  1.0107 -1.0924 -0.9667
   44MOL   H18714033   3.669   6.328   5.987 -0.2072 -1.3223  0.8298
   44MOL   H18814034   3.502   6.204   5.818 -1.2691  0.0754 -3.4532
   44MOL   H18914035   3.638   5.888   5.600 -0.8335 -0.7705  0.0502
   44MOL   H19014036   3.548   5.795   5.714 -0.6512  0.5174  0.7356
   44MOL   H19114037   3.696   5.883   5.773 -0.2278 -1.6106  0.2317
   44MOL   H19214038   3.329   6.079   5.768 -0.6860 -0.9192  0.8759
   44MOL   H19314039   3.339   5.901   5.710 -3.0151  1.3891 -1.4299
   44MOL   C19414040   3.635   6.212   5.648  0.7064  0.1576  1.1822
   44MOL   C19514041   3.785   6.183   5.607 -0.2786  0.3777 -0.3207
   44MOL   C19614042   3.606   6.371   5.638  0.3900 -0.8673 -0.1184
   44MOL   C19714043   3.450   6.398   5.652  0.4380  0.6062  0.2280
   44MOL   C19814044   3.416   6.518   5.737  0.1074  0.4551 -0.4749
   44MOL   C19914045   3.358   6.325   5.589  0.4777 -0.0650 -0.2540
   44MOL   H20014046   3.578   6.173   5.564  2.9560 -2.3319  0.7368
   44MOL   H20114047   3.855   6.246   5.661 -1.2558 -0.8095  2.4551
   44MOL   H20214048   3.806   6.194   5.501  0.4462  2.9503  0.0615
   44MOL   H20314049   3.798   6.075   5.619  0.7629  0.4428 -0.8264
   44MOL   H20414050   3.647   6.417   5.727  2.1525 -0.4997 -1.1093
   44MOL   H20514051   3.462   6.610   5.699 -1.9853  2.2512  1.2456
   44MOL   H20614052   3.440   6.509   5.843 -0.8720 -0.8399 -0.3503
   44MOL   H20714053   3.312   6.547   5.728  0.5736  1.5391 -3.0109
   44MOL   H20814054   3.375   6.238   5.528  0.5401 -0.1975 -0.0488
   44MOL   H20914055   3.257   6.346   5.623 -0.3887 -1.1490 -2.1287
   44MOL   C21014056   3.653   6.451   5.512  0.0190 -0.5603  0.2879
   44MOL   C21114057   3.622   6.376   5.385  0.2014 -0.5795  0.0459
   44MOL   C21214058   3.808   6.503   5.512 -0.3862  0.5540  0.2808
   44MOL   C21314059   3.866   6.557   5.643  0.0668  0.3029  0.4598
   44MOL   C21414060   3.804   6.684   5.701  0.5892 -0.2246  0.5043
   44MOL   C21514061   3.969   6.495   5.696  0.1347 -0.4610 -0.2927
   44MOL   H21614062   3.590   6.540   5.515  0.9019  0.1305 -1.2432
   44MOL   H21714063   3.690   6.293   5.365 -0.5595 -1.0262 -0.7851
   44MOL   H21814064   3.631   6.442   5.298 -2.7566  0.5533  0.5482
   44MOL   H21914065   3.522   6.333   5.376  0.3570 -0.9713  0.1556
   44MOL   H22014066   3.867   6.413   5.496  0.3453  0.9578  0.6984
   44MOL   H22114067   3.697   6.669   5.707  0.3286  0.7841 -1.0983
   44MOL   H22214068   3.830   6.766   5.634  0.0172 -0.4188  0.0357
   44MOL   H22314069   3.843   6.712   5.799  2.4195 -2.2600  0.4045
   44MOL   H22414070   4.003   6.405   5.647 -0.2383  0.0310 -1.4627
   44MOL   H22514071   4.021   6.535   5.781 -0.1403 -0.2898 -0.2056
   44MOL   C22614072   3.851   6.607   5.403 -0.4350  0.5369 -0.1735
   44MOL   C22714073   3.733   6.708   5.383 -0.3642 -0.4709 -0.6193
   44MOL   C22814074   3.911   6.546   5.275 -0.0228 -1.1419  0.4329
   44MOL   C22914075   4.033   6.454   5.298 -0.0527 -0.1655  0.3447
   44MOL   C23014076   4.034   6.325   5.215  0.0133  0.2410 -0.0982
   44MOL   C23114077   4.135   6.471   5.378 -0.1260 -0.1813 -0.0993
   44MOL   H23214078   3.930   6.658   5.459  0.4967 -0.7685 -0.2827
   44MOL   H23314079   3.768   6.798   5.333 -0.7591  1.6011  2.7252
   44MOL   H23414080   3.699   6.742   5.480  0.8643  0.1471 -0.3945
   44MOL   H23514081   3.658   6.663   5.317 -0.6999 -2.4427  1.0504
   44MOL   H23614082   3.829   6.483   5.239 -0.5983  0.7414 -1.6747
   44MOL   H23714083   3.937   6.275   5.225  1.0564 -1.4020  2.6977
   44MOL   H23814084   4.109   6.250   5.241 -0.3246  0.6254  2.0791
   44MOL   H23914085   4.036   6.344   5.108 -2.0207 -0.7827 -0.3541
   44MOL   H24014086   4.148   6.554   5.445 -0.0525 -0.8608  0.7308
   44MOL   H24114087   4.213   6.396   5.372 -0.3466 -0.4800  0.8243
   44MOL   C24214088   3.942   6.656   5.167  0.0809  0.3988  0.0232
   44MOL   C24314089   4.025   6.769   5.224 -1.1956 -0.0530  0.2549
   44MOL   C24414090   3.827   6.688   5.068 -0.1818  0.0821 -0.8787
   44MOL   C24514091   3.758   6.559   5.000  0.0902  0.5426 -0.2116
   44MOL   C24614092   3.608   6.552   4.981 -0.0839  0.0999 -0.8110
   44MOL   C24714093   3.827   6.456   4.947 -0.1422 -0.1052  0.2981
   44MOL   H24814094   4.019   6.622   5.097 -0.2425  0.1703 -0.2236
   44MOL   H24914095   4.110   6.721   5.273 -1.2462  0.7960  1.2070
   44MOL   H25014096   3.985   6.832   5.303 -0.1229 -0.8536  1.4587
   44MOL   H25114097   4.072   6.828   5.145 -0.4002  1.8566  2.0695
   44MOL   H25214098   3.741   6.721   5.126  1.1149  3.6693 -0.8997
   44MOL   H25314099   3.573   6.628   4.911  0.3249  0.8072 -0.2543
   44MOL   H25414100   3.553   6.560   5.075  1.2214  0.6158 -0.0880
   44MOL   H25514101   3.571   6.461   4.934 -1.5028  0.9744 -1.4621
   44MOL   H25614102   3.934   6.448   4.929 -0.2894  1.2657 -1.2920
   44MOL   H25714103   3.771   6.367   4.922 -0.1937  0.3231 -1.1672
   44MOL   C25814104   3.856   6.787   4.946  0.2608  0.3543  0.3052
   44MOL   C25914105   3.984   6.741   4.871 -0.6747  0.2415 -0.6745
   44MOL   C26014106   3.863   6.942   4.972  0.5842  0.5253 -0.0056
   44MOL   C26114107   3.746   6.988   5.060  0.7592  0.4320 -0.3303
   44MOL   C26214108   3.781   7.076   5.187  0.2182 -0.9576  0.0093
   44MOL   C26314109   3.617   6.955   5.036  0.3644  0.0645  0.2716
   44MOL   H26414110   3.780   6.756   4.874 -2.9096  1.2516  3.0827
   44MOL   H26514111   4.082   6.759   4.915 -0.8029  3.3724 -1.5604
   44MOL   H26614112   3.997   6.766   4.766 -1.6699 -0.9496 -1.0987
   44MOL   H26714113   3.986   6.632   4.861  2.2159  0.0636  1.0701
   44MOL   H26814114   3.952   6.952   5.035 -0.8725 -1.2666  2.4790
   44MOL   H26914115   3.840   7.163   5.157 -1.6534  0.2633 -0.1849
   44MOL   H27014116   3.841   7.010   5.252 -2.5379 -0.7314  2.8956
   44MOL   H27114117   3.695   7.112   5.242 -0.6059 -0.9790 -1.2624
   44MOL   H27214118   3.590   6.882   4.962  2.5659 -0.5722  0.0470
   44MOL   H27314119   3.543   6.995   5.104  1.0792 -0.2306  1.2439
   44MOL   C27414120   3.861   7.033   4.841 -0.2507  0.4535  0.8791
   44MOL   C27514121   3.775   6.976   4.730  0.4235  1.2222 -0.0427
   44MOL   C27614122   4.012   7.059   4.792 -0.1708  0.0057  0.4092
   44MOL   C27714123   4.106   7.107   4.903 -0.3705 -0.2454 -0.6547
   44MOL   C27814124   4.071   7.240   4.976 -0.1307 -0.2842 -0.4708
   44MOL   C27914125   4.218   7.040   4.943  0.3161 -0.2523  0.3321
   44MOL   H28014126   3.813   7.130   4.857 -0.0915  0.7644 -0.4685
   44MOL   H28114127   3.800   6.872   4.708 -3.7712  0.0341  0.3115
   44MOL   H28214128   3.791   7.038   4.641  0.6946 -0.9174 -1.5324
   44MOL   H28314129   3.667   6.977   4.747  0.5726 -0.4165  1.1266
   44MOL   H28414130   4.062   6.965   4.770 -0.8396 -0.2452 -0.0094
   44MOL   H28514131   4.123   7.259   5.069 -0.7720 -0.7198 -0.0226
   44MOL   H28614132   3.966   7.231   5.003  0.3088  1.7657  2.0697
   44MOL   H28714133   4.080   7.318   4.901  3.2776 -0.1784 -0.0302
   44MOL   H28814134   4.232   6.946   4.892 -2.5752 -1.9695  2.4896
   44MOL   H28914135   4.292   7.076   5.013 -1.9054  2.6888  1.3079
   44MOL   C29014136   4.032   7.146   4.660  0.5569  0.1792 -0.0022
   44MOL   C29114137   3.927   7.259   4.652 -0.3344 -0.1468 -0.1034
   44MOL   C29214138   4.047   7.072   4.526  0.1732 -0.2143 -0.1074
   44MOL   C29314139   4.127   6.942   4.523 -0.1995  0.1826  0.2961
   44MOL   C29414140   4.276   6.962   4.535  0.1208  0.3844 -0.0569
   44MOL   C29514141   4.067   6.824   4.496  0.5760 -0.1243  0.0136
   44MOL   H29614142   4.127   7.196   4.681  0.0363  1.9768 -1.7742
   44MOL   H29714143   3.971   7.347   4.605  1.2391 -1.8163 -1.8777
   44MOL   H29814144   3.909   7.298   4.752 -1.3861  0.3085 -0.4675
   44MOL   H29914145   3.837   7.240   4.593 -0.6503  4.3933 -1.3021
   44MOL   H30014146   3.947   7.043   4.495  0.1342  1.1264 -1.2984
   44MOL   H30114147   4.324   6.998   4.444 -2.3569 -1.4476 -2.1734
   44MOL   H30214148   4.322   6.865   4.555  0.7726  0.4359 -1.2972
   44MOL   H30314149   4.302   7.026   4.619  1.7134 -1.3941  0.8499
   44MOL   H30414150   3.962   6.822   4.472  0.8126  0.6539 -1.1647
   44MOL   H30514151   4.128   6.735   4.497  2.3294  0.9409 -3.4995
   44MOL   C30614152   4.075   7.167   4.401 -0.1998 -0.4272  0.5179
   44MOL   C30714153   4.086   7.086   4.269 -0.1885 -0.2050 -0.0962
   44MOL   C30814154   4.193   7.264   4.426  0.0704 -0.2716  0.2256
   44MOL   C30914155   4.216   7.354   4.300 -0.4658  0.6106  0.8439
   44MOL   C31014156   4.115   7.462   4.272  0.2590 -0.5772 -0.0590
   44MOL   C31114157   4.329   7.343   4.226  0.7935 -0.4112 -0.1569
   44MOL   H31214158   3.979   7.219   4.394 -0.2645 -0.2184  2.5047
   44MOL   H31314159   4.171   7.018   4.267  1.0016  1.2805 -0.9147
   44MOL   H31414160   4.102   7.147   4.180  3.1194 -2.0351 -0.8305
   44MOL   H31514161   3.992   7.033   4.251 -0.8892  1.2026 -0.6816
   44MOL   H31614162   4.156   7.339   4.496  1.6867  0.6298  0.1296
   44MOL   H31714163   4.016   7.417   4.284  0.5208 -1.0258  0.4545
   44MOL   H31814164   4.117   7.507   4.173  0.6259  1.6950  0.9569
   44MOL   H31914165   4.120   7.544   4.344 -0.1700 -0.3604 -0.2710
   44MOL   H32014166   4.392   7.260   4.255  1.2897  0.6986  2.0189
   44MOL   H32114167   4.351   7.403   4.139 -1.3934 -0.3403 -0.6765
   44MOL   H32214168   4.293   7.236   4.457  0.7091  2.5625  0.8710
   45MOL     C114169   0.724   6.022   2.195  0.0887  0.0562  0.2503
   45MOL     C214170   0.828   6.111   2.147  0.6186 -0.4861 -0.6247
   45MOL     C314171   0.683   5.913   2.088  0.5301  0.1179  0.1587
   45MOL     C414172   0.629   5.971   1.956  0.4549  0.0101  0.0408
   45MOL     C514173   0.714   5.925   1.842 -0.0328 -0.4296  0.2926
   45MOL     C614174   0.518   6.044   1.935 -0.4244  0.2127 -0.3929
   45MOL     H714175   0.761   5.970   2.284 -0.5922 -1.0109 -0.0790
   45MOL     H814176   0.904   6.057   2.091  3.1906  0.7494  1.5273
   45MOL     H914177   0.869   6.175   2.226  0.1473  0.1380 -0.8846
   45MOL    H1014178   0.781   6.177   2.075 -0.1642 -1.6926 -1.2387
   45MOL    H1114179   0.779   5.868   2.062 -0.3574 -2.6641  1.5209
   45MOL    H1214180   0.715   5.816   1.847 -1.2337 -0.5538 -1.8148
   45MOL    H1314181   0.810   5.976   1.849 -0.7173  0.9758 -0.3949
   45MOL    H1414182   0.666   5.957   1.749  2.9741  1.5988 -0.6212
   45MOL    H1514183   0.450   6.067   2.015  1.1265 -2.4869  1.8137
   45MOL    H1614184   0.490   6.081   1.837  0.2293 -1.9844 -1.4406
   45MOL    H1714185   0.650   6.090   2.238  0.8328  2.1246 -1.6573
   45MOL    C1814186   0.590   5.799   2.150 -0.5022  0.7133  0.2287
   45MOL    C1914187   0.477   5.863   2.238 -0.3031 -0.3947  0.9193
   45MOL    C2014188   0.667   5.679   2.222  0.5188 -0.1905 -0.1709
   45MOL    C2114189   0.791   5.632   2.139  0.6328 -0.0143 -0.3491
   45MOL    C2214190   0.760   5.560   2.016 -0.7897  0.4902 -0.2087
   45MOL    C2314191   0.915   5.648   2.183  0.5600 -0.0803 -0.2548
   45MOL    H2414192   0.558   5.749   2.058 -1.7959  3.6793 -0.9826
   45MOL    H2514193   0.441   5.961   2.209  1.1786  1.1835  4.1970
   45MOL    H2614194   0.508   5.861   2.343  1.6291 -0.8371  0.3574
   45MOL    H2714195   0.393   5.794   2.239  0.2521 -1.0850  0.4318
   45MOL    H2814196   0.697   5.724   2.316 -0.3463 -1.8395  0.9250
   45MOL    H2914197   0.848   5.538   1.955 -0.9306 -0.1553 -0.1820
   45MOL    H3014198   0.688   5.615   1.956 -0.0135 -0.1402 -1.7736
   45MOL    H3114199   0.709   5.465   2.034 -1.0338  0.2824 -1.9333
   45MOL    H3214200   0.934   5.698   2.277  0.0573 -1.2910  0.5118
   45MOL    H3314201   0.996   5.614   2.121  1.0104 -1.6332  1.1524
   45MOL    C3414202   0.592   5.551   2.270  0.2711 -0.2706 -0.3064
   45MOL    C3514203   0.474   5.514   2.181 -0.1420  0.6514 -0.8350
   45MOL    C3614204   0.542   5.543   2.419  0.0827 -0.4512  0.2138
   45MOL    C3714205   0.636   5.610   2.521 -0.1991 -0.4070  0.3867
   45MOL    C3814206   0.778   5.546   2.535 -0.8269 -0.4096 -0.2542
   45MOL    C3914207   0.599   5.707   2.605  0.7938 -0.5998 -0.2400
   45MOL    H4014208   0.661   5.468   2.259  1.8747  0.9692  0.1922
   45MOL    H4114209   0.389   5.580   2.202 -1.0172 -0.3104 -1.3112
   45MOL    H4214210   0.444   5.410   2.194 -0.9677  0.6494 -2.5599
   45MOL    H4314211   0.499   5.534   2.076  0.5581  0.6314 -0.6746
   45MOL    H4414212   0.465   5.620   2.422  0.2400 -0.3244  1.3046
   45MOL    H4514213   0.763   5.446   2.577 -1.1163 -1.3749 -2.5326
   45MOL    H4614214   0.837   5.602   2.607 -1.7388  3.0417 -2.0599
   45MOL    H4714215   0.839   5.540   2.445  1.1995  0.6843  1.0112
   45MOL    H4814216   0.501   5.753   2.598  0.3078 -1.6335 -0.3619
   45MOL    H4914217   0.669   5.748   2.677  0.0488  0.6661 -0.2163
   45MOL    C5014218   0.489   5.410   2.477  0.1285  0.2018  0.1870
   45MOL    C5114219   0.566   5.287   2.426 -0.6469  0.2175  0.0851
   45MOL    C5214220   0.332   5.384   2.480 -0.0963  0.4911 -0.1283
   45MOL    C5314221   0.243   5.507   2.521  0.5414 -0.3549  0.9116
   45MOL    C5414222   0.263   5.567   2.658  0.3891  0.4847  0.6668
   45MOL    C5514223   0.143   5.545   2.436 -1.1193 -0.3661 -0.2340
   45MOL    H5614224   0.504   5.421   2.585 -0.1519  0.6397  0.1858
   45MOL    H5714225   0.543   5.267   2.321  2.0682  1.7584 -0.8451
   45MOL    H5814226   0.551   5.193   2.480 -1.8015  0.1271 -0.3571
   45MOL    H5914227   0.675   5.292   2.425 -0.6672  0.6021 -0.3339
   45MOL    H6014228   0.295   5.368   2.380 -1.9756  0.6323  0.5336
   45MOL    H6114229   0.184   5.638   2.684  0.0349  0.6077 -0.7410
   45MOL    H6214230   0.362   5.612   2.672 -1.1171  4.4025 -0.4141
   45MOL    H6314231   0.245   5.484   2.726  0.2140  0.4287  0.5511
   45MOL    H6414232   0.134   5.501   2.338  1.1392 -0.3480 -0.4650
   45MOL    H6514233   0.076   5.628   2.457 -0.5918 -0.1909  0.8004
   45MOL    C6614234   0.275   5.265   2.563 -0.0322 -0.3514  1.0481
   45MOL    C6714235   0.363   5.242   2.690 -0.3536 -0.3533  0.2313
   45MOL    C6814236   0.241   5.135   2.485  0.1236 -0.0868 -0.8009
   45MOL    C6914237   0.173   5.161   2.355  0.5068  0.0502  0.1805
   45MOL    C7014238   0.024   5.202   2.359 -0.3792 -0.0919 -0.1483
   45MOL    C7114239   0.236   5.142   2.236  0.1217  0.0019 -0.7839
   45MOL    H7214240   0.181   5.304   2.601 -0.1049  2.0612 -1.5156
   45MOL    H7314241   0.306   5.177   2.756  1.1122 -0.5876  1.3148
   45MOL    H7414242   0.390   5.334   2.743 -0.4249  0.3761 -0.9856
   45MOL    H7514243   0.458   5.195   2.662  0.2944  1.1873 -0.2220
   45MOL    H7614244   0.334   5.083   2.460 -0.6517 -1.3869 -1.0267
   45MOL    H7714245   0.007   5.280   2.434  0.0213 -0.5581  0.4237
   45MOL    H7814246   7.843   5.123   2.372 -0.5844  0.2593  0.8735
   45MOL    H7914247   7.891   5.264   2.272 -1.7892  0.8987  0.9533
   45MOL    H8014248   0.339   5.111   2.233 -0.2715 -1.3238 -0.7235
   45MOL    H8114249   0.188   5.163   2.141  0.5099  0.3124 -0.9122
   45MOL    C8214250   0.165   5.024   2.567  0.6199  0.9213  0.8085
   45MOL    C8314251   0.061   5.079   2.663 -0.7989  0.0389 -0.4337
   45MOL    C8414252   0.255   4.912   2.634 -0.5812  0.7819  0.0438
   45MOL    C8514253   0.372   4.844   2.545 -0.4096  0.1596 -0.2574
   45MOL    C8614254   0.506   4.843   2.604 -0.3045 -0.2561 -0.0337
   45MOL    C8714255   0.357   4.819   2.413 -0.3539  0.2082 -0.1222
   45MOL    H8814256   0.097   4.976   2.496  0.8396 -1.4535  2.1536
   45MOL    H8914257   0.101   5.122   2.755  0.0243  1.7552 -1.5708
   45MOL    H9014258   7.884   5.005   2.703  0.3190 -0.4215  0.6797
   45MOL    H9114259   7.886   5.153   2.618  0.2877  1.4708  0.2463
   45MOL    H9214260   0.318   4.955   2.712 -0.1673  0.2333  0.0184
   45MOL    H9314261   0.513   4.779   2.693  0.2027 -0.5770 -0.2975
   45MOL    H9414262   0.533   4.948   2.617  2.7661 -0.6537 -2.6223
   45MOL    H9514263   0.586   4.799   2.545 -0.0688 -0.1465  0.2002
   45MOL    H9614264   0.260   4.835   2.368 -0.7073 -1.7217 -0.1046
   45MOL    H9714265   0.436   4.788   2.347 -1.4993 -2.0156 -0.5052
   45MOL    C9814266   0.183   4.789   2.699  0.4985  0.4471 -0.3836
   45MOL    C9914267   0.077   4.734   2.598  0.0357  0.4620  0.2472
   45MOL   C10014268   0.150   4.816   2.849 -0.4288 -0.6691  1.0617
   45MOL   C10114269   0.280   4.841   2.936 -0.4223 -0.2946  0.0251
   45MOL   C10214270   0.259   4.947   3.047  0.4693  0.1407  0.5446
   45MOL   C10314271   0.390   4.766   2.925 -0.4865  0.5559 -0.1948
   45MOL   H10414272   0.256   4.708   2.702 -1.2468 -1.2518 -2.2140
   45MOL   H10514273   0.033   4.648   2.649  3.2188  0.4096  3.0480
   45MOL   H10614274   0.119   4.709   2.501  1.0777  1.8998  0.3158
   45MOL   H10714275   7.889   4.806   2.582  1.1947  1.7696  0.1763
   45MOL   H10814276   0.096   4.910   2.866 -2.2327 -1.3616 -0.5940
   45MOL   H10914277   0.358   4.982   3.076 -0.3594 -0.2090  3.9907
   45MOL   H11014278   0.222   4.890   3.132 -0.0564 -1.4565 -0.7193
   45MOL   H11114279   0.185   5.025   3.031 -0.9706 -1.3282 -0.1025
   45MOL   H11214280   0.404   4.693   2.848 -0.9050  0.1819  0.0822
   45MOL   H11314281   0.465   4.778   3.001 -0.3155 -2.0056  0.0610
   45MOL   C11414282   0.063   4.712   2.929  0.2767 -0.0517  0.3364
   45MOL   C11514283   0.122   4.572   2.906  0.2713  0.0990 -0.3251
   45MOL   C11614284   7.806   4.712   2.905  0.1455  0.2720  0.3910
   45MOL   C11714285   7.752   4.857   2.906 -0.1608  0.0923 -0.0791
   45MOL   C11814286   7.772   4.937   3.041  0.1676 -0.2148  0.1916
   45MOL   C11914287   7.658   4.901   2.819 -0.4452 -0.7041 -0.2287
   45MOL   H12014288   0.078   4.719   3.036 -0.4538  2.8720  0.3008
   45MOL   H12114289   0.142   4.544   2.803  0.5565  0.7753 -0.4606
   45MOL   H12214290   0.058   4.495   2.948  2.6128 -1.7153  0.0316
   45MOL   H12314291   0.211   4.561   2.968  2.6432  0.0895 -3.6033
   45MOL   H12414292   7.788   4.671   2.806 -2.0333  1.5601  0.2069
   45MOL   H12514293   7.877   4.948   3.068 -0.0535 -0.0105  0.9697
   45MOL   H12614294   7.724   4.882   3.122  3.6676  0.3507  2.7516
   45MOL   H12714295   7.736   5.040   3.039  2.3103  0.5441 -1.6449
   45MOL   H12814296   7.635   4.844   2.730 -0.0078 -0.2791 -0.6120
   45MOL   H12914297   7.607   4.994   2.841  0.2989 -0.3221 -0.0990
   45MOL   C13014298   7.716   4.626   3.006 -0.0136  0.2097  0.3320
   45MOL   C13114299   7.778   4.627   3.146  0.1651  0.0686  0.1062
   45MOL   C13214300   7.671   4.488   2.948  0.0325  0.1910  0.2116
   45MOL   C13314301   7.618   4.487   2.805  0.4652 -0.3923  0.0755
   45MOL   C13414302   7.689   4.379   2.724  0.0656  0.5927  0.7845
   45MOL   C13514303   7.538   4.574   2.751  0.3209 -0.5213  0.0395
   45MOL   H13614304   7.619   4.674   3.014 -1.4727 -1.9436 -3.2310
   45MOL   H13714305   7.858   4.554   3.153 -1.5189 -1.5216  3.9482
   45MOL   H13814306   7.695   4.611   3.215  0.0963  1.2205  0.3089
   45MOL   H13914307   7.821   4.720   3.182 -1.6572  1.0466 -0.1680
   45MOL   H14014308   7.762   4.428   2.950  1.3348  2.1252  0.1423
   45MOL   H14114309   7.634   4.361   2.632  2.4294  2.7643 -1.1359
   45MOL   H14214310   7.697   4.285   2.779 -1.0007  0.4357  0.6813
   45MOL   H14314311   7.790   4.407   2.692 -0.1440  0.8241  0.3293
   45MOL   H14414312   7.490   4.661   2.792 -1.4020 -0.8576 -1.2058
   45MOL   H14514313   7.512   4.564   2.646  0.2601  0.3204 -0.0258
   45MOL   C14614314   7.574   4.405   3.041  0.7131  0.3841  0.2476
   45MOL   C14714315   7.444   4.482   3.084 -0.4939  0.1687  0.1611
   45MOL   C14814316   7.643   4.324   3.156  1.1970 -0.2212  0.2759
   45MOL   C14914317   7.757   4.232   3.105  0.0688 -0.8657  0.4483
   45MOL   C15014318   0.005   4.255   3.151 -0.2106 -0.7306  0.2910
   45MOL   C15114319   7.744   4.135   3.011 -0.3453  0.8245  0.6394
   45MOL   H15214320   7.535   4.332   2.970 -0.0565  1.3019 -0.2995
   45MOL   H15314321   7.359   4.426   3.123 -0.9272 -0.4003 -1.5456
   45MOL   H15414322   7.398   4.526   2.995  1.8253  1.2855 -0.5200
   45MOL   H15514323   7.470   4.563   3.152 -1.9999  0.7515  0.0610
   45MOL   H15614324   7.703   4.396   3.213  2.9370 -0.4294 -1.2455
   45MOL   H15714325   0.033   4.180   3.225 -0.9098 -0.5060  0.7915
   45MOL   H15814326   0.024   4.355   3.190  1.1515 -0.0367 -2.0830
   45MOL   H15914327   0.078   4.232   3.074 -0.7591 -0.8547 -0.1972
   45MOL   H16014328   7.650   4.117   2.962  0.4952  0.8870 -1.0422
   45MOL   H16114329   7.824   4.074   2.971 -1.4026  0.8853 -1.6917
   45MOL   C16214330   7.556   4.246   3.261  0.2271  0.0752  0.3024
   45MOL   C16314331   7.445   4.154   3.193 -0.5397  0.0488  0.3907
   45MOL   C16414332   7.500   4.336   3.379  0.5865  0.0178 -0.1960
   45MOL   C16514333   7.612   4.413   3.453 -0.0220 -1.1269 -0.1889
   45MOL   C16614334   7.581   4.544   3.524  0.3186  0.0984  0.6462
   45MOL   C16714335   7.739   4.371   3.461  0.2869  0.3842 -0.7495
   45MOL   H16814336   7.618   4.170   3.309  0.1026  0.1634  0.5993
   45MOL   H16914337   7.489   4.100   3.109  0.8275 -0.0499  1.1608
   45MOL   H17014338   7.368   4.218   3.150 -0.1439 -0.2176 -0.7519
   45MOL   H17114339   7.394   4.083   3.258  1.0415 -1.5071 -0.0202
   45MOL   H17214340   7.454   4.422   3.330  0.6006  0.4037  0.4592
   45MOL   H17314341   7.526   4.603   3.451  0.5131 -1.7726 -1.0456
   45MOL   H17414342   7.673   4.600   3.538  0.1833  0.9378 -1.7288
   45MOL   H17514343   7.522   4.546   3.616  0.6866 -1.7610  0.9485
   45MOL   H17614344   7.785   4.283   3.419  3.1763  0.3998  2.2152
   45MOL   H17714345   7.813   4.424   3.518 -1.6538  0.3846  1.8756
   45MOL   C17814346   7.410   4.266   3.491  0.4343 -0.2788  0.2566
   45MOL   C17914347   7.484   4.151   3.557 -0.2825  0.1721 -0.0347
   45MOL   C18014348   7.260   4.249   3.451  0.3473  0.0647  0.3505
   45MOL   C18114349   7.201   4.379   3.397 -0.1319 -0.2963  0.5075
   45MOL   C18214350   7.124   4.367   3.261  0.1466  0.9446  0.2084
   45MOL   C18314351   7.223   4.504   3.444  0.7994 -0.2036  0.2885
   45MOL   H18414352   7.409   4.330   3.580 -0.3419 -0.9724  0.7592
   45MOL   H18514353   7.439   4.123   3.652  1.4659 -0.5137  0.6016
   45MOL   H18614354   7.583   4.180   3.591  0.5992 -1.8344 -0.7752
   45MOL   H18714355   7.495   4.064   3.492  0.7369  1.4792 -1.6555
   45MOL   H18814356   7.253   4.180   3.367  2.5244 -1.5264  1.4131
   45MOL   H18914357   7.094   4.466   3.226 -1.4501  1.1470  2.0524
   45MOL   H19014358   7.037   4.304   3.282  1.1036 -0.3007  0.4640
   45MOL   H19114359   7.189   4.323   3.186 -1.3819 -2.9862  1.0618
   45MOL   H19214360   7.276   4.509   3.538 -2.1009 -0.3514  1.9997
   45MOL   H19314361   7.198   4.602   3.405 -0.4525  0.0083  1.5804
   45MOL   C19414362   7.170   4.183   3.567 -0.5959 -0.5032  0.5478
   45MOL   C19514363   7.194   4.258   3.704 -0.0588  0.3458  0.1628
   45MOL   C19614364   7.164   4.025   3.575 -0.3887  0.3200 -0.2058
   45MOL   C19714365   7.167   3.961   3.438 -0.6350 -0.6853 -0.0776
   45MOL   C19814366   7.047   3.994   3.349 -0.7750  0.3799  0.2436
   45MOL   C19914367   7.257   3.867   3.407  0.1253  0.5501 -0.2647
   45MOL   H20014368   7.067   4.203   3.535  0.3012  1.0373 -1.4345
   45MOL   H20114369   7.098   4.265   3.755  0.6153 -2.8136  2.0230
   45MOL   H20214370   7.222   4.363   3.695  0.1306  0.6210  3.3657
   45MOL   H20314371   7.265   4.211   3.772 -0.9880 -0.9020  0.2915
   45MOL   H20414372   7.261   4.000   3.618  0.4668  1.4452 -1.4647
   45MOL   H20514373   7.065   4.095   3.312  0.7951 -0.8667 -2.6178
   45MOL   H20614374   6.949   3.988   3.396 -0.7147  0.4850  0.3831
   45MOL   H20714375   7.053   3.931   3.260  1.2605 -3.8865  3.2081
   45MOL   H20814376   7.332   3.847   3.482  1.7819 -1.0119 -2.2793
   45MOL   H20914377   7.253   3.822   3.309  2.6595  0.5872 -0.4201
   45MOL   C21014378   7.061   3.960   3.685 -0.7800  0.3299  0.5018
   45MOL   C21114379   6.923   4.033   3.696 -0.0105 -0.3000 -0.5268
   45MOL   C21214380   7.120   3.918   3.824 -0.0846 -0.0849 -0.4380
   45MOL   C21314381   7.251   3.843   3.816  0.1373  0.3008  0.3120
   45MOL   C21414382   7.255   3.697   3.768 -0.5383  0.1828 -0.2434
   45MOL   C21514383   7.364   3.908   3.856  0.5973 -0.2622  0.4917
   45MOL   H21614384   7.033   3.868   3.632  0.9419  1.4838 -2.5306
   45MOL   H21714385   6.892   4.052   3.593  1.3504 -0.1286 -0.9228
   45MOL   H21814386   6.935   4.122   3.758 -0.3997  0.2762 -1.2719
   45MOL   H21914387   6.839   3.977   3.738 -1.1902  0.5018 -1.7757
   45MOL   H22014388   7.143   4.018   3.861 -1.0551  0.1828 -0.5283
   45MOL   H22114389   7.218   3.627   3.842 -0.3744 -1.5392 -1.7536
   45MOL   H22214390   7.357   3.670   3.740 -1.5097 -0.9146 -2.8874
   45MOL   H22314391   7.199   3.674   3.677  1.2909  2.1361 -1.9296
   45MOL   H22414392   7.374   4.008   3.895  0.6631 -0.2069  0.3338
   45MOL   H22514393   7.455   3.851   3.852  1.2673  0.8793 -1.0390
   45MOL   C22614394   7.030   3.841   3.929 -0.5031  0.4451  0.8832
   45MOL   C22714395   6.952   3.717   3.878  0.1961 -0.2302  0.2987
   45MOL   C22814396   6.934   3.933   4.024 -1.0839 -0.3673 -0.3524
   45MOL   C22914397   7.021   4.046   4.087  0.6654  0.2328  0.2622
   45MOL   C23014398   7.121   4.008   4.185 -0.2402 -0.2245  0.3132
   45MOL   C23114399   7.015   4.175   4.045 -0.5993  0.1752  0.1356
   45MOL   H23214400   7.106   3.801   3.995 -2.4143 -3.7164  0.7047
   45MOL   H23314401   6.995   3.681   3.785 -0.4930 -0.1679 -0.0504
   45MOL   H23414402   6.846   3.732   3.854  0.5145  1.9059  0.0648
   45MOL   H23514403   6.959   3.636   3.949 -0.7790 -0.2513  0.3771
   45MOL   H23614404   6.857   3.984   3.966 -1.8823 -1.6520 -0.4485
   45MOL   H23714405   7.066   3.987   4.277  0.0663 -0.9196  0.3467
   45MOL   H23814406   7.177   4.095   4.219 -1.8075  1.3513 -1.0559
   45MOL   H23914407   7.189   3.930   4.149  2.3231  2.3452 -0.6536
   45MOL   H24014408   6.943   4.201   3.969  0.5894 -0.1673 -1.1292
   45MOL   H24114409   7.081   4.250   4.088 -0.6858 -0.0415  0.6581
   45MOL   C24214410   6.862   3.851   4.141  0.4787 -0.0852  0.0204
   45MOL   C24314411   6.945   3.735   4.214  0.5861 -0.3030  0.3890
   45MOL   C24414412   6.715   3.814   4.115  0.2826 -0.4051  0.4654
   45MOL   C24514413   6.642   3.930   4.038 -0.2248  0.6561 -0.1975
   45MOL   C24614414   6.576   3.889   3.904 -0.6617 -0.2307  0.2380
   45MOL   C24714415   6.640   4.055   4.083  0.3866  0.3444  0.3533
   45MOL   H24814416   6.860   3.931   4.215  1.7013  1.7347 -1.8364
   45MOL   H24914417   6.924   3.740   4.321 -1.1091  2.5140 -0.0165
   45MOL   H25014418   7.052   3.736   4.198  0.5681 -0.0611  0.2860
   45MOL   H25114419   6.914   3.639   4.172  0.0133  0.0577 -0.0225
   45MOL   H25214420   6.714   3.730   4.045  1.3850  0.4954 -0.6521
   45MOL   H25314421   6.506   3.805   3.903  1.2546 -1.8691 -1.4821
   45MOL   H25414422   6.666   3.872   3.845 -0.5972 -2.9154  1.0407
   45MOL   H25514423   6.526   3.975   3.860  1.7120  1.8569  1.4349
   45MOL   H25614424   6.688   4.081   4.176  0.5940 -0.8698  0.5865
   45MOL   H25714425   6.591   4.131   4.024  0.7609  0.9710  0.8454
   45MOL   C25814426   6.619   3.784   4.240 -0.6867 -0.4570  0.0018
   45MOL   C25914427   6.669   3.763   4.381 -0.8712  0.3150 -0.3435
   45MOL   C26014428   6.491   3.699   4.203  0.3606  0.4629  0.3246
   45MOL   C26114429   6.366   3.755   4.288  0.6315  0.0941  0.1980
   45MOL   C26214430   6.283   3.853   4.209 -0.4541 -0.2020  0.1487
   45MOL   C26314431   6.338   3.710   4.414  0.3152 -0.3960  0.3048
   45MOL   H26414432   6.578   3.883   4.260  0.2177 -0.2042  0.6617
   45MOL   H26514433   6.721   3.667   4.387  1.3506  1.3851 -1.4806
   45MOL   H26614434   6.584   3.770   4.448 -0.0925 -0.3200  0.7464
   45MOL   H26714435   6.731   3.850   4.400 -1.0361 -0.0328  2.0452
   45MOL   H26814436   6.461   3.726   4.102  0.3004 -1.6938 -0.2470
   45MOL   H26914437   6.256   3.826   4.107  0.2816  0.8280 -0.3264
   45MOL   H27014438   6.347   3.933   4.172  1.6245 -1.6790  0.4704
   45MOL   H27114439   6.202   3.899   4.266  1.0323  0.7500  1.5158
   45MOL   H27214440   6.388   3.631   4.468 -0.1360 -0.6736  0.3224
   45MOL   H27314441   6.251   3.752   4.463 -0.5679  0.7675 -2.1941
   45MOL   C27414442   6.505   3.542   4.213  0.0968 -0.6881  0.2750
   45MOL   C27514443   6.635   3.502   4.135  0.4066  0.3323 -0.4755
   45MOL   C27614444   6.371   3.454   4.187  0.0590  0.5588 -0.4407
   45MOL   C27714445   6.377   3.321   4.269 -0.2309 -0.2663 -0.1970
   45MOL   C27814446   6.302   3.322   4.400  0.4399  0.2834  0.0987
   45MOL   C27914447   6.460   3.225   4.230 -0.2116  0.1631 -0.2054
   45MOL   H28014448   6.545   3.512   4.310 -0.4140  1.0560  1.0496
   45MOL   H28114449   6.629   3.531   4.031  0.2446 -0.7071 -0.7644
   45MOL   H28214450   6.639   3.393   4.138 -0.1600  0.3300  0.5317
   45MOL   H28314451   6.720   3.545   4.188  0.1680 -0.9489  1.0011
   45MOL   H28414452   6.290   3.516   4.225  0.7889  0.7231  0.8731
   45MOL   H28514453   6.194   3.335   4.397  0.4901  0.2820 -1.8602
   45MOL   H28614454   6.336   3.395   4.474 -1.0071  1.0332  0.0258
   45MOL   H28714455   6.327   3.227   4.449  2.3522  1.5353  1.6737
   45MOL   H28814456   6.517   3.232   4.138  0.8299 -0.9582  0.3398
   45MOL   H28914457   6.483   3.151   4.305  1.8526  1.4445  0.4653
   45MOL   C29014458   6.335   3.433   4.031 -0.3318 -0.2598 -0.6678
   45MOL   C29114459   6.341   3.554   3.933  0.1072  0.0017 -0.0076
   45MOL   C29214460   6.204   3.352   4.013 -0.1119 -0.4446 -0.0567
   45MOL   C29314461   6.223   3.232   3.926  0.6783  0.0061 -0.2287
   45MOL   C29414462   6.229   3.259   3.775 -0.3167 -0.4172 -0.7274
   45MOL   C29514463   6.233   3.104   3.977 -0.8436  0.0457  0.2550
   45MOL   H29614464   6.413   3.363   4.000 -1.3934 -0.5344 -2.8441
   45MOL   H29714465   6.270   3.633   3.957  1.7329  1.0933  1.3694
   45MOL   H29814466   6.311   3.528   3.832  3.9248  1.3100 -1.5337
   45MOL   H29914467   6.445   3.585   3.924  0.3989 -1.5117 -2.2718
   45MOL   H30014468   6.179   3.306   4.109  0.7622 -0.1398  0.3166
   45MOL   H30114469   6.149   3.324   3.737 -0.2494 -1.3681 -2.5003
   45MOL   H30214470   6.221   3.167   3.718 -0.9958 -1.8289  1.5879
   45MOL   H30314471   6.329   3.289   3.745 -0.5514  1.1803 -0.0240
   45MOL   H30414472   6.219   3.081   4.082  0.0245  1.4183  0.6730
   45MOL   H30514473   6.252   3.019   3.913 -0.9359 -0.0181  0.3116
   45MOL   C30614474   6.065   3.429   3.983  0.8871 -0.3293  0.5960
   45MOL   C30714475   6.024   3.522   4.095 -0.0761 -0.3165 -0.2591
   45MOL   C30814476   5.950   3.329   3.967  0.6306 -0.4399 -0.2008
   45MOL   C30914477   5.818   3.401   3.930 -0.2208 -0.5212 -0.1600
   45MOL   C31014478   5.705   3.402   4.026 -0.3435  0.0492 -0.1028
   45MOL   C31114479   5.801   3.458   3.812  0.0200 -0.6584 -0.0806
   45MOL   H31214480   6.075   3.491   3.894  0.6086 -0.3901  0.5206
   45MOL   H31314481   6.100   3.588   4.138  3.0424 -2.3192 -2.4825
   45MOL   H31414482   5.991   3.452   4.171  4.1604 -2.2372 -0.0234
   45MOL   H31514483   5.939   3.587   4.073  0.2709  0.0157 -0.6237
   45MOL   H31614484   5.978   3.261   3.887  1.6187 -1.3181  0.8811
   45MOL   H31714485   5.748   3.409   4.126 -0.3241 -1.0952 -0.0279
   45MOL   H31814486   5.658   3.304   4.016  2.0323 -0.9715 -1.7404
   45MOL   H31914487   5.637   3.486   4.014 -1.1832 -0.5144  0.6083
   45MOL   H32014488   5.886   3.471   3.745 -0.6355  1.1326 -0.5888
   45MOL   H32114489   5.709   3.503   3.779  0.0944 -0.6413 -0.2701
   45MOL   H32214490   5.940   3.267   4.056  1.2737  0.4973  0.5377
   46MOL     C114491   1.099   1.043   2.732 -0.0153  0.0632 -0.3054
   46MOL     C214492   1.091   1.064   2.882  1.2129  0.0316 -0.0789
   46MOL     C314493   1.213   0.951   2.682  0.1115  0.2492 -0.3169
   46MOL     C414494   1.346   1.015   2.722 -0.5218 -0.4719  0.5507
   46MOL     C514495   1.369   1.164   2.692 -0.3601 -0.6696 -0.2973
   46MOL     C614496   1.447   0.941   2.767  0.2637  0.2989  0.1914
   46MOL     H714497   1.003   0.995   2.713 -0.0262 -0.2549  0.5256
   46MOL     H814498   1.165   1.128   2.931 -0.5112  0.4767  2.0442
   46MOL     H914499   1.088   0.973   2.942  1.2478  0.7914  1.1007
   46MOL    H1014500   1.005   1.126   2.909  2.0628  1.0597  0.3443
   46MOL    H1114501   1.206   0.857   2.737 -2.5403  1.6086  1.7669
   46MOL    H1214502   1.470   1.200   2.711 -0.7977 -0.1500  1.0914
   46MOL    H1314503   1.303   1.230   2.747 -2.0905 -2.4395 -0.2030
   46MOL    H1414504   1.341   1.172   2.587 -0.1650  1.7236 -0.1857
   46MOL    H1514505   1.440   0.834   2.783 -1.0831  0.2846 -0.4553
   46MOL    H1614506   1.539   0.991   2.796  0.0371  0.6314  0.3417
   46MOL    H1714507   1.097   1.138   2.680 -1.9302  0.5239  0.5716
   46MOL    C1814508   1.199   0.915   2.523 -0.2826  0.1985  0.6799
   46MOL    C1914509   1.136   1.028   2.439 -0.1617 -0.1565 -0.0295
   46MOL    C2014510   1.129   0.776   2.488 -0.9240 -0.0959  0.0573
   46MOL    C2114511   1.006   0.741   2.570  0.1919  0.3873  0.0969
   46MOL    C2214512   0.877   0.789   2.514  0.9397 -0.5886  0.0702
   46MOL    C2314513   1.005   0.662   2.679 -0.2646  0.3405 -0.2939
   46MOL    H2414514   1.299   0.909   2.480  0.4064 -0.1215  2.2921
   46MOL    H2514515   1.183   1.126   2.449  0.2264 -0.4038  0.5522
   46MOL    H2614516   1.028   1.026   2.453 -0.2752  0.2609 -0.7994
   46MOL    H2714517   1.143   0.996   2.335  0.2786 -2.9910  0.8303
   46MOL    H2814518   1.084   0.783   2.388  0.8459  0.1041 -0.7378
   46MOL    H2914519   0.832   0.741   2.427 -0.6170 -0.9924  1.0940
   46MOL    H3014520   0.880   0.898   2.505 -0.1688 -0.5028  0.7499
   46MOL    H3114521   0.795   0.782   2.585 -1.4304  1.9697 -2.3355
   46MOL    H3214522   1.095   0.625   2.726 -0.8300 -0.9106 -0.1749
   46MOL    H3314523   0.914   0.627   2.724 -0.6900 -0.2667 -1.6045
   46MOL    C3414524   1.230   0.659   2.471  0.2965 -0.2830  0.3749
   46MOL    C3514525   1.338   0.654   2.575 -0.0394  0.2619 -1.0512
   46MOL    C3614526   1.285   0.635   2.324  0.1597 -0.6237  0.3772
   46MOL    C3714527   1.179   0.640   2.216 -0.4464  0.4321  0.0388
   46MOL    C3814528   1.211   0.719   2.089  1.0767  0.3365  0.2819
   46MOL    C3914529   1.056   0.591   2.232  0.3360  0.1353  1.0419
   46MOL    H4014530   1.165   0.574   2.494  0.8620 -1.2448 -1.4557
   46MOL    H4114531   1.304   0.681   2.674 -0.9273 -1.2346 -0.9372
   46MOL    H4214532   1.420   0.724   2.556 -1.1763  1.5559 -1.2512
   46MOL    H4314533   1.385   0.556   2.587 -3.2454 -1.3708 -1.2077
   46MOL    H4414534   1.355   0.715   2.302  1.8947 -2.3628 -0.6550
   46MOL    H4514535   1.233   0.823   2.112 -0.2294  0.2828  1.8573
   46MOL    H4614536   1.133   0.715   2.013  0.3962 -1.0156  1.0230
   46MOL    H4714537   1.296   0.673   2.039 -0.1800  0.8183 -2.4065
   46MOL    H4814538   1.020   0.545   2.323 -1.6471  1.0282  0.7455
   46MOL    H4914539   0.986   0.603   2.151  0.3673 -4.0192  0.2700
   46MOL    C5014540   1.372   0.506   2.303 -0.0913  0.1886  0.0533
   46MOL    C5114541   1.302   0.375   2.331  0.2822  0.2947  0.4026
   46MOL    C5214542   1.526   0.519   2.346 -0.4523 -0.0661  0.1668
   46MOL    C5314543   1.594   0.646   2.305 -0.7833  0.2559 -0.3977
   46MOL    C5414544   1.606   0.675   2.153  0.1585 -0.5766  0.1762
   46MOL    C5514545   1.656   0.726   2.392 -0.1738 -0.1869 -0.4660
   46MOL    H5614546   1.391   0.514   2.196 -1.9903  1.5424 -0.2148
   46MOL    H5714547   1.303   0.367   2.440 -3.2262  2.4754  0.6686
   46MOL    H5814548   1.355   0.291   2.285 -0.6257 -0.0787  0.0427
   46MOL    H5914549   1.200   0.380   2.293 -1.1118 -0.2908  3.8735
   46MOL    H6014550   1.535   0.530   2.454  0.6677  0.5294  0.0196
   46MOL    H6114551   1.625   0.781   2.137 -0.4713 -0.4863  0.0264
   46MOL    H6214552   1.529   0.633   2.089 -0.9561 -1.6363  2.1593
   46MOL    H6314553   1.699   0.623   2.130  0.6759  0.8596 -1.0720
   46MOL    H6414554   1.642   0.716   2.499  1.6878  0.8479 -0.0994
   46MOL    H6514555   1.711   0.812   2.358  0.3199 -0.3785 -0.1565
   46MOL    C6614556   1.615   0.394   2.332  0.2516 -0.5100  0.0151
   46MOL    C6714557   1.620   0.337   2.186 -0.6883 -0.1391 -0.3062
   46MOL    C6814558   1.595   0.275   2.441 -0.3353 -0.0225 -0.3961
   46MOL    C6914559   1.578   0.325   2.585  0.8455  1.1929  0.2789
   46MOL    C7014560   1.693   0.395   2.646  0.2106 -0.2280 -0.2326
   46MOL    C7114561   1.473   0.291   2.664 -0.6971 -0.2945  0.6455
   46MOL    H7214562   1.717   0.433   2.340 -1.3889  4.1310 -0.2905
   46MOL    H7314563   1.522   0.325   2.140 -0.7336 -2.3146  0.3412
   46MOL    H7414564   1.680   0.246   2.187 -1.5089 -0.6971 -1.3115
   46MOL    H7514565   1.678   0.393   2.112  0.2101 -1.1983 -0.4122
   46MOL    H7614566   1.495   0.235   2.419 -0.4338  0.1437 -0.2457
   46MOL    H7714567   1.769   0.319   2.666 -0.8580 -1.2522 -0.0091
   46MOL    H7814568   1.674   0.440   2.744  2.1201 -0.5372  0.2958
   46MOL    H7914569   1.744   0.460   2.574 -1.2473  0.6072 -0.5237
   46MOL    H8014570   1.391   0.228   2.632 -1.4647  0.5124  0.9952
   46MOL    H8114571   1.462   0.325   2.765  1.2404 -1.6308  1.3320
   46MOL    C8214572   1.688   0.160   2.440 -0.1132  0.2830  0.4476
   46MOL    C8314573   1.840   0.191   2.412  0.7361 -0.0238 -0.0562
   46MOL    C8414574   1.634   0.029   2.362  0.5086 -0.4230 -0.3994
   46MOL    C8514575   1.478   0.002   2.356 -0.5493 -0.4087 -0.0150
   46MOL    C8614576   1.415   7.844   2.489 -0.3247  0.1604  0.7166
   46MOL    C8714577   1.399   0.011   2.254 -0.0916  0.0413 -1.0367
   46MOL    H8814578   1.684   0.118   2.541  1.6937 -0.3376  0.2873
   46MOL    H8914579   1.871   0.180   2.308  3.8995 -0.7204  0.9178
   46MOL    H9014580   1.895   0.117   2.471  1.9930  0.6868 -0.3176
   46MOL    H9114581   1.873   0.288   2.449 -0.3087 -0.3180  1.6990
   46MOL    H9214582   1.633   0.067   2.260 -1.0926  2.7828  0.7383
   46MOL    H9314583   1.440   0.010   2.578 -2.6775 -0.3722  1.7637
   46MOL    H9414584   1.444   7.739   2.492 -2.7482 -0.6122 -1.2512
   46MOL    H9514585   1.306   7.845   2.494 -0.4759 -0.5219 -1.6926
   46MOL    H9614586   1.445   0.044   2.162 -1.2066 -1.2105 -2.0610
   46MOL    H9714587   1.294   7.880   2.245 -0.3632 -1.6981  4.3335
   46MOL    C9814588   1.714   7.786   2.381  0.7485 -0.3262 -0.0309
   46MOL    C9914589   1.730   7.759   2.532 -0.3822  0.0616  0.2717
   46MOL   C10014590   1.836   7.767   2.289  0.1906 -0.2983 -0.1502
   46MOL   C10114591   1.810   7.795   2.132  0.3406 -0.5866  0.8239
   46MOL   C10214592   1.922   7.854   2.048 -0.5861 -0.7526 -0.8529
   46MOL   C10314593   1.690   7.783   2.069  0.1316 -0.0935 -0.1443
   46MOL   H10414594   1.636   7.716   2.349 -0.6995  0.4915  1.6057
   46MOL   H10514595   1.635   7.778   2.581  0.2375 -1.3959  2.1005
   46MOL   H10614596   1.801   7.816   2.591  0.5710 -1.4621  0.6392
   46MOL   H10714597   1.724   7.652   2.553 -0.1634  0.2044  1.0443
   46MOL   H10814598   1.903   7.850   2.311 -0.6646  0.5957 -0.8093
   46MOL   H10914599   1.991   0.033   2.093 -0.8493 -0.2551 -1.2402
   46MOL   H11014600   1.876   7.891   1.957  1.0107  0.7649 -1.0684
   46MOL   H11114601   1.985   7.775   2.008 -0.4298 -0.6665 -0.7799
   46MOL   H11214602   1.610   7.733   2.123 -1.0409  1.1239 -0.7246
   46MOL   H11314603   1.666   7.812   1.968 -1.1844  1.9703  0.7082
   46MOL   C11414604   1.913   7.627   2.301  0.1708 -1.4837 -0.1953
   46MOL   C11514605   1.813   7.518   2.258  0.1391 -0.1060  0.5465
   46MOL   C11614606   2.015   7.600   2.419 -0.4331  0.4335  0.4629
   46MOL   C11714607   2.113   7.724   2.433 -0.3355  0.1756 -0.3007
   46MOL   C11814608   2.140   7.765   2.574 -0.3673  1.0719 -0.3459
   46MOL   C11914609   2.165   7.789   2.326 -0.6866 -0.1973 -0.2217
   46MOL   H12014610   1.979   7.633   2.214 -1.4950  0.7305 -1.3595
   46MOL   H12114611   1.730   7.501   2.326 -0.3878  0.7144  0.1145
   46MOL   H12214612   1.858   7.421   2.235  1.5140  0.7033 -0.2276
   46MOL   H12314613   1.771   7.543   2.160  0.6958  0.0630  0.3480
   46MOL   H12414614   1.959   7.601   2.512  1.2829 -0.4728  1.5215
   46MOL   H12514615   2.053   7.790   2.633  1.1909  1.5516  1.7887
   46MOL   H12614616   2.203   7.854   2.577 -0.6013  1.2676 -0.9560
   46MOL   H12714617   2.183   7.675   2.618 -1.1154  1.4163  1.1179
   46MOL   H12814618   2.145   7.758   2.225  1.0603 -2.0501 -0.0401
   46MOL   H12914619   2.236   7.868   2.347  1.1829 -1.1974 -2.5773
   46MOL   C13014620   2.105   7.482   2.414 -0.7149  1.1882  0.9231
   46MOL   C13114621   2.186   7.467   2.288  0.1534 -0.4162  0.0785
   46MOL   C13214622   2.039   7.347   2.469  0.3728  0.0695  0.6443
   46MOL   C13314623   1.946   7.352   2.594  0.1972  0.2560  0.5926
   46MOL   C13414624   1.996   7.412   2.724  0.4708  0.2409  0.2327
   46MOL   C13514625   1.813   7.312   2.586 -0.3164  0.6156  0.5574
   46MOL   H13614626   2.180   7.506   2.489  3.3922 -1.4100 -2.0570
   46MOL   H13714627   2.115   7.441   2.209 -1.1726  1.0953  0.7601
   46MOL   H13814628   2.270   7.398   2.298  1.2555  0.8989  0.0703
   46MOL   H13914629   2.234   7.556   2.248 -0.5672  0.0100  0.1611
   46MOL   H14014630   1.980   7.319   2.383 -0.9664 -1.0212  1.8915
   46MOL   H14114631   1.913   7.462   2.774  0.7042 -1.9004  2.9285
   46MOL   H14214632   2.072   7.488   2.710  0.8289  0.2073  1.8148
   46MOL   H14314633   2.042   7.334   2.785 -0.3073  0.2694  0.8845
   46MOL   H14414634   1.769   7.278   2.494 -1.2097  2.2374  0.3741
   46MOL   H14514635   1.745   7.314   2.670  0.2522  0.2060  1.0367
   46MOL   C14614636   2.134   7.226   2.492  0.1214  0.2948  0.1179
   46MOL   C14714637   2.266   7.268   2.556 -0.5487 -0.4860  0.3685
   46MOL   C14814638   2.149   7.132   2.371 -0.3229  0.0379 -0.0062
   46MOL   C14914639   2.019   7.095   2.301  0.5147  0.0254  0.9421
   46MOL   C15014640   1.924   6.993   2.366  0.2421 -0.0320 -0.3984
   46MOL   C15114641   1.985   7.147   2.178  0.3207  0.6948  0.3576
   46MOL   H15214642   2.087   7.165   2.570  0.6690 -0.6849 -0.3055
   46MOL   H15314643   2.346   7.304   2.491  0.1110 -0.0709  1.4022
   46MOL   H15414644   2.305   7.181   2.609 -1.2167 -1.3580 -0.5614
   46MOL   H15514645   2.263   7.336   2.641 -0.7200 -0.8337  0.6404
   46MOL   H15614646   2.211   7.179   2.294 -1.3587  1.1796 -0.1608
   46MOL   H15714647   1.966   6.893   2.358  2.0790  0.5124  1.7701
   46MOL   H15814648   1.824   6.986   2.324  0.7727 -1.5281 -1.4248
   46MOL   H15914649   1.928   7.018   2.473  2.4699 -1.8273 -0.0151
   46MOL   H16014650   2.055   7.211   2.125  2.2940 -0.9169  0.9313
   46MOL   H16114651   1.889   7.131   2.132  1.0523 -0.8107 -0.6820
   46MOL   C16214652   2.237   6.998   2.398 -0.1012 -0.1414 -0.4220
   46MOL   C16314653   2.233   6.932   2.535  0.0073 -0.3365  0.4484
   46MOL   C16414654   2.389   7.005   2.354 -0.4224  0.3093 -0.1010
   46MOL   C16514655   2.404   7.056   2.213  0.9279  0.0642  0.1097
   46MOL   C16614656   2.493   7.173   2.194 -0.6599  0.6054 -0.4710
   46MOL   C16714657   2.336   7.001   2.106  0.3631 -0.2641 -0.3155
   46MOL   H16814658   2.186   6.921   2.341 -0.3046 -0.2709 -0.0640
   46MOL   H16914659   2.264   6.828   2.525  1.1912  0.2050 -1.8830
   46MOL   H17014660   2.132   6.948   2.574  0.3432  0.0449  1.1667
   46MOL   H17114661   2.301   6.980   2.605 -0.0249  1.9838 -1.0464
   46MOL   H17214662   2.414   7.084   2.424 -2.5938  0.0808  0.9644
   46MOL   H17314663   2.521   7.221   2.288 -2.0260 -1.3480  0.9819
   46MOL   H17414664   2.460   7.256   2.132  1.6179 -0.2616 -2.9149
   46MOL   H17514665   2.587   7.138   2.152 -0.5762  0.0183  0.1860
   46MOL   H17614666   2.274   6.913   2.115  1.0431 -0.7313 -0.2072
   46MOL   H17714667   2.351   7.040   2.006  1.4032  1.7751  0.6089
   46MOL   C17814668   2.490   6.882   2.367 -0.5655  0.7265 -0.1770
   46MOL   C17914669   2.435   6.748   2.310  0.7879  0.5606 -0.0591
   46MOL   C18014670   2.567   6.862   2.506  0.3074 -0.5409 -0.2290
   46MOL   C18114671   2.622   7.004   2.558 -0.1427  0.8888 -0.4362
   46MOL   C18214672   2.721   7.066   2.470 -0.1444  0.0635 -0.2007
   46MOL   C18314673   2.581   7.066   2.673  0.1247 -0.0631  0.0761
   46MOL   H18414674   2.573   6.906   2.301 -1.0557 -0.4273 -1.2126
   46MOL   H18514675   2.508   6.667   2.313  0.2557  0.0658 -0.5226
   46MOL   H18614676   2.419   6.768   2.205 -0.8767 -1.0644 -0.1406
   46MOL   H18714677   2.343   6.716   2.360  0.3499  1.1418 -0.4827
   46MOL   H18814678   2.493   6.841   2.584  0.7653  0.4097  0.4825
   46MOL   H18914679   2.685   7.082   2.368  0.3672 -3.6067 -1.0527
   46MOL   H19014680   2.813   7.006   2.474 -0.9846 -1.3324 -1.2481
   46MOL   H19114681   2.767   7.158   2.506 -0.6315  0.2986 -0.1775
   46MOL   H19214682   2.513   7.024   2.746  1.5395 -0.3068  1.2631
   46MOL   H19314683   2.619   7.167   2.678  0.0477 -0.1603  3.1028
   46MOL   C19414684   2.680   6.751   2.518 -0.8672  0.3386  0.6146
   46MOL   C19514685   2.771   6.747   2.389  0.0369  0.0632 -0.3546
   46MOL   C19614686   2.645   6.612   2.569 -0.6169 -0.1977  0.0868
   46MOL   C19714687   2.531   6.612   2.671 -0.1895  0.5677  0.3019
   46MOL   C19814688   2.556   6.664   2.811  0.4261  0.0795 -0.5119
   46MOL   C19914689   2.401   6.590   2.637 -0.0772 -0.2342  0.3527
   46MOL   H20014690   2.741   6.789   2.601 -0.7433  1.0143  0.2242
   46MOL   H20114691   2.796   6.846   2.351  0.7691  0.3220  0.7708
   46MOL   H20214692   2.737   6.692   2.302 -1.7962 -2.1669  1.6913
   46MOL   H20314693   2.860   6.688   2.414  1.4745  0.8618 -3.3718
   46MOL   H20414694   2.606   6.566   2.478  0.7345  0.0250 -0.6115
   46MOL   H20514695   2.464   6.665   2.870 -2.3864 -0.9941 -4.7206
   46MOL   H20614696   2.569   6.770   2.790  0.5437  0.0158 -0.7638
   46MOL   H20714697   2.641   6.625   2.867  2.0542  3.4219 -0.5087
   46MOL   H20814698   2.353   6.570   2.541 -1.8464 -0.5386  1.2765
   46MOL   H20914699   2.325   6.604   2.712  0.2669  3.6355  0.0728
   46MOL   C21014700   2.758   6.520   2.621 -0.1510  0.2600  0.2935
   46MOL   C21114701   2.870   6.596   2.701  0.3000 -0.2890  1.1692
   46MOL   C21214702   2.821   6.415   2.512  0.5988  0.1340 -0.8221
   46MOL   C21314703   2.716   6.316   2.449 -0.0359 -0.0410  0.2164
   46MOL   C21414704   2.756   6.245   2.319 -0.0298  0.1337  0.4180
   46MOL   C21514705   2.595   6.291   2.508 -0.4505 -0.0402 -0.2211
   46MOL   H21614706   2.703   6.461   2.695  0.3916  1.1601  1.4240
   46MOL   H21714707   2.822   6.659   2.776 -2.2526  0.1275 -0.7106
   46MOL   H21814708   2.932   6.652   2.630 -0.2991 -1.3866 -0.2377
   46MOL   H21914709   2.937   6.524   2.747 -1.5742 -1.6822  1.7881
   46MOL   H22014710   2.866   6.476   2.433  4.3311  1.1702  1.9575
   46MOL   H22114711   2.670   6.189   2.281 -0.4541  0.4304  0.9382
   46MOL   H22214712   2.837   6.177   2.344  0.2538  0.1712 -0.3767
   46MOL   H22314713   2.788   6.323   2.249 -0.2287  1.8378  2.2079
   46MOL   H22414714   2.561   6.326   2.604 -1.9173 -0.1404 -0.6915
   46MOL   H22514715   2.520   6.238   2.450 -0.1498 -0.9326  0.1962
   46MOL   C22614716   2.940   6.318   2.569  0.8651  0.1024 -0.0659
   46MOL   C22714717   2.899   6.244   2.698  0.1543 -0.9471  0.5718
   46MOL   C22814718   3.078   6.375   2.550 -0.3797  0.0562  0.2267
   46MOL   C22914719   3.114   6.398   2.404 -0.4878 -0.1220  0.3480
   46MOL   C23014720   3.161   6.534   2.371 -0.6217 -0.1947 -0.2453
   46MOL   C23114721   3.099   6.303   2.312  0.5029 -0.6943  0.1325
   46MOL   H23214722   2.942   6.226   2.510  2.0840  1.2060 -1.8311
   46MOL   H23314723   2.807   6.187   2.686 -0.4212  0.1574 -0.4273
   46MOL   H23414724   2.894   6.308   2.786  1.0193  0.6306 -0.5027
   46MOL   H23514725   2.971   6.168   2.728  0.7967 -1.5947 -2.4311
   46MOL   H23614726   3.072   6.481   2.576  2.4052  1.2863 -3.6146
   46MOL   H23714727   3.080   6.605   2.378  1.0152  1.8250 -1.1883
   46MOL   H23814728   3.205   6.540   2.271 -1.9340  0.5418 -0.7825
   46MOL   H23914729   3.240   6.574   2.435 -0.9146 -0.2396  0.1457
   46MOL   H24014730   3.061   6.204   2.333 -1.7353 -0.0468 -0.6455
   46MOL   H24114731   3.122   6.321   2.208  0.2298  0.3272  0.2419
   46MOL   C24214732   3.196   6.319   2.630 -0.0429 -0.3029  0.2841
   46MOL   C24314733   3.227   6.166   2.600  0.4178 -0.6041 -0.4672
   46MOL   C24414734   3.214   6.361   2.783  0.6698  0.4765  0.2482
   46MOL   C24514735   3.184   6.508   2.811 -0.0560  0.2032  0.1846
   46MOL   C24614736   3.120   6.539   2.944  0.3342  0.9769  0.0391
   46MOL   C24714737   3.226   6.608   2.729 -0.6768  0.0968 -0.1125
   46MOL   H24814738   3.288   6.357   2.586 -0.2041  0.4595  0.5989
   46MOL   H24914739   3.335   6.151   2.597  0.9819  2.9220 -0.1759
   46MOL   H25014740   3.183   6.128   2.508 -2.1759  0.6437  0.2155
   46MOL   H25114741   3.174   6.123   2.685 -1.1808  1.2545 -0.4725
   46MOL   H25214742   3.143   6.296   2.836 -2.3223  0.4566 -3.5715
   46MOL   H25314743   3.052   6.457   2.968 -0.1744  1.1989 -0.6246
   46MOL   H25414744   3.062   6.631   2.946  0.1041  0.8426 -0.6096
   46MOL   H25514745   3.190   6.549   3.027  1.4202  0.2715 -0.7818
   46MOL   H25614746   3.280   6.572   2.643 -1.4744  0.8733 -0.9442
   46MOL   H25714747   3.203   6.710   2.755 -0.6775 -0.6508  2.9717
   46MOL   C25814748   3.355   6.328   2.860  0.2902 -0.0053  0.1128
   46MOL   C25914749   3.466   6.374   2.770  0.0120 -0.7257  0.1048
   46MOL   C26014750   3.370   6.187   2.914  0.1738  0.5044  0.0159
   46MOL   C26114751   3.246   6.155   3.006 -0.4993 -0.0909  0.3962
   46MOL   C26214752   3.186   6.019   2.992 -0.0734  0.1090 -0.5372
   46MOL   C26314753   3.202   6.240   3.105  0.1366  0.1579 -0.5828
   46MOL   H26414754   3.347   6.397   2.945 -0.1397 -0.2800  0.2945
   46MOL   H26514755   3.462   6.477   2.734 -0.5946 -1.2139 -1.2628
   46MOL   H26614756   3.476   6.298   2.692  1.8649 -0.7783  0.3605
   46MOL   H26714757   3.565   6.377   2.817 -0.3057 -2.3175  0.9059
   46MOL   H26814758   3.376   6.119   2.829 -2.5504  1.4604 -1.0180
   46MOL   H26914759   3.087   6.018   3.037  0.4171 -1.7659  0.5403
   46MOL   H27014760   3.241   5.943   3.047 -0.0678  1.4284  1.3318
   46MOL   H27114761   3.184   5.989   2.887  1.0588  0.5703 -0.6996
   46MOL   H27214762   3.241   6.338   3.128 -0.9111  0.3102  0.5945
   46MOL   H27314763   3.121   6.203   3.165 -0.2220  1.3724 -0.3135
   46MOL   C27414764   3.498   6.155   3.001 -0.2424  0.1636  0.0799
   46MOL   C27514765   3.530   6.268   3.094 -0.1771 -0.4891  0.1762
   46MOL   C27614766   3.628   6.106   2.912  0.5936 -0.0336  0.2714
   46MOL   C27714767   3.592   5.978   2.830 -0.2208  0.0823 -0.3111
   46MOL   C27814768   3.646   5.969   2.690  0.5283 -0.7626 -0.6468
   46MOL   C27914769   3.503   5.886   2.870  0.6305 -0.5943  0.0684
   46MOL   H28014770   3.483   6.075   3.074  1.0646 -1.3525 -1.2674
   46MOL   H28114771   3.450   6.304   3.159 -0.2014 -1.7130  0.8463
   46MOL   H28214772   3.572   6.346   3.030  0.4406 -0.4941  0.5666
   46MOL   H28314773   3.600   6.254   3.177 -1.5558  0.5046  1.5348
   46MOL   H28414774   3.653   6.184   2.840 -1.0940  0.6252  0.3732
   46MOL   H28514775   3.581   5.911   2.625 -1.5171  1.3834 -0.5878
   46MOL   H28614776   3.742   5.921   2.708  1.1875  1.5712  2.5429
   46MOL   H28714777   3.653   6.066   2.639 -1.1740 -0.6677 -0.7435
   46MOL   H28814778   3.459   5.885   2.968 -1.4714  1.0366 -0.8329
   46MOL   H28914779   3.469   5.809   2.802  0.0431 -0.0999 -0.2075
   46MOL   C29014780   3.757   6.073   2.995  0.0938  0.3082 -0.4697
   46MOL   C29114781   3.737   6.003   3.134  0.3212 -0.3179  0.1174
   46MOL   C29214782   3.851   6.196   3.010 -0.2836 -0.3040 -0.5561
   46MOL   C29314783   3.892   6.262   2.879 -0.4334 -0.0554  0.5983
   46MOL   C29414784   3.949   6.171   2.769  0.7529 -0.3254  0.1927
   46MOL   C29514785   3.860   6.387   2.859  0.1081 -0.1020  0.7771
   46MOL   H29614786   3.802   5.994   2.934 -1.3768  0.0459 -1.2422
   46MOL   H29714787   3.832   5.962   3.166  0.6019  0.6146  0.5004
   46MOL   H29814788   3.665   5.921   3.127 -0.1022  0.0447  0.1429
   46MOL   H29914789   3.712   6.067   3.219  0.2514  1.7897 -1.4405
   46MOL   H30014790   3.780   6.270   3.049  1.0884  1.0343 -0.5741
   46MOL   H30114791   4.046   6.130   2.798  0.1471 -1.8511  0.1243
   46MOL   H30214792   3.966   6.227   2.677  0.2914 -0.7726 -0.1644
   46MOL   H30314793   3.873   6.104   2.729  1.1363 -0.7944  0.2470
   46MOL   H30414794   3.816   6.451   2.934  1.4985  1.3979  0.3314
   46MOL   H30514795   3.876   6.435   2.764 -1.1067 -4.1676 -1.5970
   46MOL   C30614796   3.964   6.196   3.116  0.0718  0.2559  0.5929
   46MOL   C30714797   3.991   6.332   3.183  0.8193 -0.0317 -0.5247
   46MOL   C30814798   4.094   6.125   3.060  0.4758  0.7215 -0.1596
   46MOL   C30914799   4.195   6.074   3.166  0.1366  0.3899  0.1217
   46MOL   C31014800   4.331   6.030   3.117 -0.0717  0.0161  0.7063
   46MOL   C31114801   4.166   6.072   3.302 -0.1877 -0.9102 -0.3283
   46MOL   H31214802   3.937   6.138   3.204  0.5990 -0.5688  0.2171
   46MOL   H31314803   4.081   6.335   3.244 -0.0051  1.6685  0.6769
   46MOL   H31414804   3.909   6.372   3.244  1.3899 -1.1991  1.0528
   46MOL   H31514805   4.005   6.410   3.109 -0.8536 -1.4661 -2.4100
   46MOL   H31614806   4.058   6.043   2.998 -3.0142  0.6652  1.7890
   46MOL   H31714807   4.380   6.124   3.092  1.7558 -1.3444 -0.9188
   46MOL   H31814808   4.305   5.972   3.029 -3.9576  2.9573 -0.2437
   46MOL   H31914809   4.380   5.970   3.194  1.4181  1.4377  0.9053
   46MOL   H32014810   4.073   6.106   3.346 -0.1452  1.0466 -1.6656
   46MOL   H32114811   4.244   6.034   3.365 -0.1390 -0.8921 -0.3787
   46MOL   H32214812   4.142   6.194   2.991  2.0244 -1.1291 -0.9832
   47MOL     C114813   0.565   2.954   4.817 -0.3437 -0.1826  0.4111
   47MOL     C214814   0.689   2.964   4.739  0.9337  0.1561 -0.0946
   47MOL     C314815   0.473   3.084   4.813 -0.2413 -0.3491 -0.2087
   47MOL     C414816   0.372   3.072   4.926  0.7680 -0.2589 -0.2482
   47MOL     C514817   0.342   3.203   4.996  1.0110  0.3163  0.3275
   47MOL     C614818   0.320   2.952   4.961  0.0986 -0.0643  0.2332
   47MOL     H714819   0.515   2.865   4.780 -0.3172 -0.5629  1.2912
   47MOL     H814820   0.671   2.937   4.635 -1.1212 -2.5069  0.8925
   47MOL     H914821   0.763   2.895   4.779 -0.8897 -0.0462  3.1259
   47MOL    H1014822   0.722   3.067   4.752  3.1525 -0.7356  1.6253
   47MOL    H1114823   0.528   3.174   4.843 -1.6138  0.3449  0.2863
   47MOL    H1214824   0.262   3.256   4.945 -0.2976 -2.5718 -0.7354
   47MOL    H1314825   0.432   3.265   4.997 -1.3995  3.9712 -0.7485
   47MOL    H1414826   0.302   3.186   5.096 -1.6193  1.3416 -0.5039
   47MOL    H1514827   0.352   2.864   4.906  1.2799  0.4858  0.0152
   47MOL    H1614828   0.252   2.924   5.040  1.3300  1.7713  1.9668
   47MOL    H1714829   0.587   2.931   4.921  1.0201  0.5338  0.2997
   47MOL    C1814830   0.411   3.122   4.675  0.1546 -0.1648 -0.6391
   47MOL    C1914831   0.347   3.000   4.612  0.6454  0.6078 -0.0946
   47MOL    C2014832   0.500   3.209   4.578 -0.4418  0.2757  1.3927
   47MOL    C2114833   0.571   3.320   4.654 -0.3333 -0.7050  0.3686
   47MOL    C2214834   0.488   3.445   4.697 -0.4577 -0.1376  0.0597
   47MOL    C2314835   0.705   3.321   4.680 -0.4803  0.7467 -0.2806
   47MOL    H2414836   0.322   3.177   4.704  0.2124  0.0041 -0.7811
   47MOL    H2514837   0.260   3.020   4.549  0.0720  0.9683  0.7966
   47MOL    H2614838   0.312   2.934   4.692 -0.5074 -1.2818 -2.1044
   47MOL    H2714839   0.418   2.935   4.562  0.5174  1.4930 -1.4692
   47MOL    H2814840   0.579   3.141   4.547 -1.0919  1.1388 -2.3816
   47MOL    H2914841   0.414   3.427   4.775 -0.9831  1.6031 -0.0051
   47MOL    H3014842   0.437   3.491   4.612 -0.6649  0.6724  0.6184
   47MOL    H3114843   0.558   3.514   4.743  1.4444 -1.8601 -0.2225
   47MOL    H3214844   0.779   3.248   4.648 -2.5457 -1.5636  0.0894
   47MOL    H3314845   0.757   3.399   4.735 -1.5931  2.2368 -1.3166
   47MOL    C3414846   0.421   3.263   4.454 -0.1341 -0.1293  0.1522
   47MOL    C3514847   0.279   3.315   4.488  0.1570 -0.7741 -0.1389
   47MOL    C3614848   0.440   3.162   4.335  0.8268 -0.1537 -0.0984
   47MOL    C3714849   0.587   3.118   4.306  0.3889 -0.1118  0.1688
   47MOL    C3814850   0.683   3.231   4.250 -0.2729  0.0958 -0.2088
   47MOL    C3914851   0.624   2.984   4.308  0.0760  0.3429 -0.6969
   47MOL    H4014852   0.475   3.355   4.432 -1.4352  0.4838 -0.5345
   47MOL    H4114853   0.259   3.386   4.408  0.1939  2.2173  2.4127
   47MOL    H4214854   0.276   3.360   4.587 -0.3142 -0.5517 -0.2535
   47MOL    H4314855   0.210   3.232   4.499 -0.5516 -0.0176  1.2372
   47MOL    H4414856   0.393   3.069   4.368 -3.0951  1.0331 -1.9334
   47MOL    H4514857   0.693   3.314   4.320  1.3549 -0.4720  0.2550
   47MOL    H4614858   0.639   3.261   4.155  0.1837 -0.2332 -0.5274
   47MOL    H4714859   0.784   3.194   4.230 -0.1357  1.6222 -2.4644
   47MOL    H4814860   0.555   2.908   4.343 -2.3502  1.9079 -1.9389
   47MOL    H4914861   0.726   2.962   4.282 -0.4012 -2.7336 -0.1577
   47MOL    C5014862   0.369   3.197   4.199  0.0575 -0.1028  0.1701
   47MOL    C5114863   0.378   3.341   4.159 -0.6687 -0.0452 -0.1871
   47MOL    C5214864   0.213   3.143   4.196 -0.3661  0.1831 -0.3383
   47MOL    C5314865   0.199   2.991   4.235 -0.0370  0.0313 -0.0313
   47MOL    C5414866   0.073   2.952   4.311 -0.0581 -0.6720 -0.0218
   47MOL    C5514867   0.290   2.889   4.218  0.3219  0.0008 -0.1372
   47MOL    H5614868   0.413   3.130   4.125 -2.1683 -0.8722 -0.5185
   47MOL    H5714869   0.299   3.410   4.190 -0.2676  0.5360 -0.4615
   47MOL    H5814870   0.399   3.351   4.052 -2.0861  0.5862 -0.4174
   47MOL    H5914871   0.463   3.384   4.211 -0.7405  0.5266 -0.5419
   47MOL    H6014872   0.156   3.198   4.271 -0.5056 -1.2601  0.6484
   47MOL    H6114873   0.102   2.869   4.374  1.5094  1.6055  2.3420
   47MOL    H6214874   7.884   2.923   4.243  0.7349 -2.1077 -0.3738
   47MOL    H6314875   0.029   3.026   4.377  1.2114 -0.7737  0.9348
   47MOL    H6414876   0.387   2.896   4.169 -0.5746 -0.1683 -1.9984
   47MOL    H6514877   0.248   2.798   4.258 -3.2694  1.5866 -0.1178
   47MOL    C6614878   0.137   3.160   4.052  0.2322  0.1420 -0.3464
   47MOL    C6714879   0.229   3.120   3.937 -0.0975 -0.2259  0.6672
   47MOL    C6814880   0.047   3.293   4.046  0.1646  0.6670 -0.0082
   47MOL    C6914881   7.835   3.295   4.163  0.0591 -0.5926 -0.3544
   47MOL    C7014882   7.710   3.210   4.151  0.2446  0.4695  0.3156
   47MOL    C7114883   7.845   3.384   4.268  0.1588 -0.5469  0.4815
   47MOL    H7214884   0.063   3.081   4.043 -2.7884  2.7695  0.4861
   47MOL    H7314885   0.282   3.030   3.967 -0.4263 -0.1965  1.3440
   47MOL    H7414886   0.298   3.205   3.932  1.4119 -1.4856 -0.2423
   47MOL    H7514887   0.182   3.090   3.843  0.6589  1.0812 -0.1538
   47MOL    H7614888   0.116   3.373   4.071  1.6110 -1.1657  1.9663
   47MOL    H7714889   7.733   3.104   4.144  0.5455  0.5786 -0.4428
   47MOL    H7814890   7.649   3.239   4.066  0.7518 -0.9205 -0.5358
   47MOL    H7914891   7.655   3.215   4.244 -0.1388  0.3038  0.0955
   47MOL    H8014892   0.036   3.453   4.269 -0.9156  0.7757  0.2459
   47MOL    H8114893   7.784   3.391   4.356 -0.1402 -0.2647  0.2522
   47MOL    C8214894   7.877   3.333   3.904 -0.7382 -0.3514 -0.7267
   47MOL    C8314895   7.820   3.211   3.828  0.3155 -0.0964 -0.8556
   47MOL    C8414896   0.080   3.425   3.817 -0.4723 -0.2130 -0.1107
   47MOL    C8514897   0.125   3.548   3.902  0.3527 -0.4537 -0.4507
   47MOL    C8614898   0.272   3.588   3.890  0.3695 -0.3198  0.0859
   47MOL    C8714899   0.044   3.608   3.990  0.4317 -0.9039  0.7164
   47MOL    H8814900   7.788   3.385   3.940 -0.6202 -0.3892 -0.3788
   47MOL    H8914901   0.015   3.169   3.778  0.1502 -2.0885  0.4994
   47MOL    H9014902   7.738   3.217   3.755 -1.5716 -1.1204  1.1327
   47MOL    H9114903   7.790   3.143   3.908 -0.6092  1.4560  0.1436
   47MOL    H9214904   0.165   3.363   3.790 -1.6192 -1.6430 -0.4771
   47MOL    H9314905   0.291   3.673   3.955 -1.5944  0.3276 -0.1372
   47MOL    H9414906   0.291   3.637   3.795  1.8198 -0.5127  0.2649
   47MOL    H9514907   0.337   3.503   3.910  1.5706  0.4022 -0.7228
   47MOL    H9614908   7.833   3.578   4.000 -0.3658  0.9074 -1.6522
   47MOL    H9714909   0.076   3.697   4.043 -0.0356  0.1778 -0.7827
   47MOL    C9814910   0.022   3.473   3.675 -0.0968  0.1142 -0.3535
   47MOL    C9914911   7.762   3.509   3.688  0.7763 -0.0232  0.0263
   47MOL   C10014912   0.055   3.376   3.556  0.3632  0.1034  0.6346
   47MOL   C10114913   0.213   3.353   3.538  0.0244 -0.4581  0.2448
   47MOL   C10214914   0.259   3.204   3.534 -0.0267  0.0425 -0.0158
   47MOL   C10314915   0.300   3.450   3.547 -0.2543 -0.4595 -0.1350
   47MOL   H10414916   0.069   3.569   3.651  0.7753 -0.0683  0.5746
   47MOL   H10514917   7.726   3.564   3.601  0.3049  0.9647  0.8329
   47MOL   H10614918   7.745   3.562   3.782  1.3960  1.4011 -0.6513
   47MOL   H10714919   7.702   3.419   3.700 -1.7387  1.5951  0.0142
   47MOL   H10814920   0.017   3.276   3.579  0.9038 -0.1080  0.6283
   47MOL   H10914921   0.357   3.200   3.487 -1.0021 -1.3121 -1.9756
   47MOL   H11014922   0.198   3.140   3.470  0.1300  0.1680 -0.2926
   47MOL   H11114923   0.269   3.167   3.636 -0.9266  1.1735  0.5045
   47MOL   H11214924   0.271   3.554   3.555 -1.0715 -0.6987  0.0686
   47MOL   H11314925   0.407   3.434   3.548 -0.0810  0.1208 -3.3891
   47MOL   C11414926   0.003   3.421   3.414  0.3439  0.2170  0.4188
   47MOL   C11514927   0.023   3.569   3.382  0.1930  0.2007  0.0222
   47MOL   C11614928   7.754   3.361   3.377  0.3215 -0.0019  0.0646
   47MOL   C11714929   7.750   3.207   3.412  0.7626  0.4334  0.5599
   47MOL   C11814930   7.831   3.107   3.329  0.2667 -0.3670 -0.3028
   47MOL   C11914931   7.669   3.156   3.509  0.6237 -0.3718 -0.2465
   47MOL   H12014932   0.073   3.370   3.348 -0.7652 -1.4748  0.5162
   47MOL   H12114933   0.015   3.587   3.275 -2.3277 -1.6353 -0.1378
   47MOL   H12214934   0.127   3.597   3.401  0.5351  0.3688 -2.0117
   47MOL   H12314935   7.860   3.640   3.443 -1.3270 -0.8775 -0.0903
   47MOL   H12414936   7.677   3.395   3.446  0.6734 -2.6828  1.8853
   47MOL   H12514937   0.043   3.131   3.312 -0.0088  1.4796  0.4797
   47MOL   H12614938   7.791   3.067   3.235  1.4594 -0.7988 -0.6336
   47MOL   H12714939   7.838   3.015   3.387 -1.6982 -1.0116 -1.0165
   47MOL   H12814940   7.606   3.222   3.565 -2.1401 -0.9383 -2.5857
   47MOL   H12914941   7.669   3.050   3.531  1.1124 -0.8546 -2.4136
   47MOL   C13014942   7.697   3.383   3.227  0.3324  0.0497 -0.6874
   47MOL   C13114943   7.809   3.369   3.126 -1.1993 -0.4163 -0.0821
   47MOL   C13214944   7.610   3.512   3.216 -0.2485  0.5975  0.5205
   47MOL   C13314945   7.496   3.515   3.321  0.7847  0.0924 -0.0742
   47MOL   C13414946   7.385   3.413   3.302  0.1031  0.0914 -0.4765
   47MOL   C13514947   7.495   3.594   3.426 -0.2689  0.4092  0.1239
   47MOL   H13614948   7.631   3.300   3.202 -0.7327 -0.3440  3.1024
   47MOL   H13714949   7.889   3.301   3.155 -2.3504 -1.9940 -0.5651
   47MOL   H13814950   7.859   3.462   3.099 -1.5013 -0.3861 -0.5419
   47MOL   H13914951   7.768   3.327   3.034 -1.7115  0.1986 -0.1392
   47MOL   H14014952   7.680   3.587   3.253  2.3507 -0.9307 -1.1198
   47MOL   H14114953   7.313   3.427   3.383  1.0553 -2.3464  0.8534
   47MOL   H14214954   7.423   3.311   3.317 -0.3257 -0.1972 -1.3251
   47MOL   H14314955   7.325   3.424   3.212 -0.0899 -1.1370 -0.5170
   47MOL   H14414956   7.573   3.667   3.444 -1.5296  2.1827 -1.3195
   47MOL   H14514957   7.417   3.593   3.499 -1.8006 -0.5198 -1.4947
   47MOL   C14614958   7.553   3.559   3.074  0.0818  0.4085 -0.1660
   47MOL   C14714959   7.501   3.442   2.985 -0.0574  0.2547  0.2079
   47MOL   C14814960   7.651   3.657   3.005  0.3279 -0.4505  0.1106
   47MOL   C14914961   7.696   3.772   3.102 -0.5739 -0.1986  0.3742
   47MOL   C15014962   7.851   3.808   3.100  0.2684  0.0983  0.2098
   47MOL   C15114963   7.621   3.834   3.191 -0.5782 -0.3401 -0.8950
   47MOL   H15214964   7.468   3.622   3.100  0.7194  0.6806  1.3004
   47MOL   H15314965   7.452   3.358   3.035 -0.7592  0.3085 -0.3778
   47MOL   H15414966   7.591   3.393   2.949 -1.1370  0.5132 -2.9857
   47MOL   H15514967   7.439   3.479   2.903 -1.5141 -0.0286  1.1511
   47MOL   H15614968   7.743   3.599   2.996  0.0683 -0.8934  0.3567
   47MOL   H15714969   7.872   3.881   3.178 -0.3575  0.7626 -0.2396
   47MOL   H15814970   7.862   3.851   3.000  0.8628  1.5574  0.9074
   47MOL   H15914971   0.020   3.718   3.099  0.0903 -0.0239  0.0654
   47MOL   H16014972   7.513   3.829   3.198 -0.4562 -1.0894  0.5234
   47MOL   H16114973   7.656   3.910   3.259 -0.8001 -0.5534 -0.5441
   47MOL   C16214974   7.614   3.721   2.868 -0.7114 -0.4301 -0.3836
   47MOL   C16314975   7.476   3.773   2.869 -0.8850 -0.6664 -0.1085
   47MOL   C16414976   7.642   3.626   2.746 -0.0144 -0.4749  0.2695
   47MOL   C16514977   7.786   3.564   2.747  0.5349  0.6098  0.7624
   47MOL   C16614978   7.792   3.422   2.703  0.1194  0.6067  0.7169
   47MOL   C16714979   7.889   3.637   2.793 -0.3434 -0.0461  0.0003
   47MOL   H16814980   7.675   3.808   2.844  0.6074 -0.8325  1.4013
   47MOL   H16914981   7.397   3.699   2.856 -1.7648 -0.0771  1.6329
   47MOL   H17014982   7.456   3.852   2.796  0.4908 -0.8324 -0.6624
   47MOL   H17114983   7.456   3.809   2.970  0.4075 -0.6472  0.1429
   47MOL   H17214984   7.573   3.544   2.762  0.4808 -1.0309 -0.4278
   47MOL   H17314985   7.690   3.387   2.682 -0.4662  1.8408  1.4457
   47MOL   H17414986   7.824   3.357   2.785  2.1483  1.0218  0.2785
   47MOL   H17514987   7.863   3.400   2.623  1.4582 -0.6679  2.2060
   47MOL   H17614988   7.875   3.738   2.825 -3.5646 -0.5694  0.3992
   47MOL   H17714989   0.086   3.578   2.813 -0.3512  0.0049  0.1835
   47MOL   C17814990   7.606   3.679   2.600 -0.2036 -0.1897  0.0300
   47MOL   C17914991   7.651   3.828   2.571 -0.7553  0.0271 -0.1946
   47MOL   C18014992   7.460   3.654   2.554 -0.2097  0.1163 -0.2417
   47MOL   C18114993   7.432   3.502   2.563  0.1804  0.4294 -0.2448
   47MOL   C18214994   7.507   3.408   2.475 -0.2228  0.0785  0.6804
   47MOL   C18314995   7.338   3.452   2.645 -0.3248  0.0237 -0.0415
   47MOL   H18414996   7.674   3.620   2.539  0.6137  0.4909  0.2693
   47MOL   H18514997   7.753   3.846   2.607 -1.6344  0.2278  2.2698
   47MOL   H18614998   7.593   3.899   2.630  0.8212  2.8579 -1.9241
   47MOL   H18714999   7.651   3.862   2.468 -2.5733  0.1618 -0.1615
   47MOL   H18815000   7.398   3.706   2.628 -2.4406 -0.1444 -1.8727
   47MOL   H18915001   7.613   3.410   2.498  0.1144  1.5115 -0.8618
   47MOL   H19015002   7.494   3.419   2.367  0.0648 -1.0762  0.5250
   47MOL   H19115003   7.483   3.304   2.498 -2.7006  0.4711  0.0748
   47MOL   H19215004   7.279   3.523   2.701  0.1756 -0.7487  1.5127
   47MOL   H19315005   7.323   3.345   2.657  0.4054 -0.1370 -0.5285
   47MOL   C19415006   7.406   3.697   2.414  0.3608 -0.4839  0.5528
   47MOL   C19515007   7.515   3.683   2.304 -0.2291  0.2835  0.4103
   47MOL   C19615008   7.315   3.829   2.413  0.4796  0.3355  0.6582
   47MOL   C19715009   7.214   3.844   2.533  1.1031  0.2189  0.3883
   47MOL   C19815010   7.103   3.742   2.543  0.6777  0.0550 -0.1039
   47MOL   C19915011   7.211   3.950   2.618  0.2372 -0.5655  0.3115
   47MOL   H20015012   7.332   3.620   2.393 -1.0800  1.4972 -1.8233
   47MOL   H20115013   7.553   3.774   2.258 -1.1928 -0.9763 -2.9999
   47MOL   H20215014   7.473   3.624   2.223  0.5200  3.5494 -2.4420
   47MOL   H20315015   7.602   3.624   2.334 -0.0221 -1.2568 -3.0264
   47MOL   H20415016   7.398   3.894   2.442  0.6433  0.5312 -0.2351
   47MOL   H20515017   7.032   3.761   2.463  1.0566  0.4319 -0.3537
   47MOL   H20615018   7.055   3.760   2.639  1.7043  1.3109  0.1919
   47MOL   H20715019   7.140   3.639   2.545  1.0023  0.1474 -1.1084
   47MOL   H20815020   7.278   4.035   2.613 -1.9826  1.2604  0.9512
   47MOL   H20915021   7.141   3.959   2.700 -2.2206  0.4335 -1.8524
   47MOL   C21015022   7.247   3.888   2.282 -0.0534  0.5462  0.5295
   47MOL   C21115023   7.200   3.771   2.195 -0.0054 -0.7755 -0.4970
   47MOL   C21215024   7.342   3.998   2.206  0.3754 -0.2824  0.0391
   47MOL   C21315025   7.393   4.106   2.299 -0.1905 -0.6396  0.2276
   47MOL   C21415026   7.289   4.205   2.355 -0.1357  0.7222 -0.1670
   47MOL   C21515027   7.522   4.121   2.324 -0.5793 -0.1049 -0.6824
   47MOL   H21615028   7.157   3.942   2.313 -0.4259  0.1720  0.1004
   47MOL   H21715029   7.154   3.690   2.252  0.9876 -0.7449  0.3665
   47MOL   H21815030   7.290   3.746   2.139  1.1271  0.5617  0.6755
   47MOL   H21915031   7.119   3.805   2.130 -1.3292  1.6874  2.2796
   47MOL   H22015032   7.422   3.934   2.169 -0.1859 -0.9809  0.0110
   47MOL   H22115033   7.331   4.266   2.435 -0.3073 -0.1311  0.5703
   47MOL   H22215034   7.196   4.159   2.386  0.3100 -1.0974 -1.4529
   47MOL   H22315035   7.254   4.265   2.270  1.1863  1.6350 -0.0894
   47MOL   H22415036   7.603   4.061   2.286 -1.5640 -0.5011 -2.2147
   47MOL   H22515037   7.561   4.203   2.384  0.4347 -0.9430 -0.1889
   47MOL   C22615038   7.294   4.061   2.069  0.0737 -0.4141  1.0015
   47MOL   C22715039   7.144   4.101   2.075 -0.3667 -0.3793 -0.1288
   47MOL   C22815040   7.329   3.965   1.936  0.2123 -0.4014  0.4303
   47MOL   C22915041   7.473   3.919   1.931 -0.2336 -0.6487 -0.2458
   47MOL   C23015042   7.489   3.781   1.866 -0.4355 -0.2419 -0.0950
   47MOL   C23115043   7.575   3.998   1.973  0.1772  0.1981 -0.5261
   47MOL   H23215044   7.345   4.155   2.047 -2.3675  0.5109 -0.9343
   47MOL   H23315045   7.115   4.168   2.156 -0.8699 -0.3955 -0.2941
   47MOL   H23415046   7.074   4.019   2.081 -0.0988 -0.7026 -1.2762
   47MOL   H23515047   7.120   4.159   1.986  0.4738  0.0334 -0.0943
   47MOL   H23615048   7.282   3.867   1.949  0.4641 -0.3886  1.4441
   47MOL   H23715049   7.427   3.772   1.777 -0.9899  0.3013  0.2289
   47MOL   H23815050   7.450   3.706   1.934 -0.7419 -0.1427 -0.1615
   47MOL   H23915051   7.589   3.756   1.829 -0.8657  2.4552 -3.3955
   47MOL   H24015052   7.563   4.097   2.014 -0.3241 -0.1834  0.2507
   47MOL   H24115053   7.675   3.958   1.962 -0.0361 -0.5468  0.1951
   47MOL   C24215054   7.283   4.024   1.794 -0.0707 -0.7022 -0.8625
   47MOL   C24315055   7.325   4.166   1.782  0.6831  0.4314 -0.0444
   47MOL   C24415056   7.138   3.988   1.763  0.2274 -0.1688  0.0692
   47MOL   C24515057   7.135   3.847   1.713 -0.0143 -0.2948 -0.2091
   47MOL   C24615058   7.187   3.821   1.571 -0.2520 -0.3423  0.5290
   47MOL   C24715059   7.090   3.744   1.780 -0.5676  0.0753 -0.4048
   47MOL   H24815060   7.345   3.977   1.717  1.1466 -0.0017 -0.3375
   47MOL   H24915061   7.269   4.240   1.839 -0.1130  0.2536 -0.6017
   47MOL   H25015062   7.322   4.197   1.678 -1.6048  0.8426  0.1107
   47MOL   H25115063   7.427   4.186   1.814  0.3008  1.0256  0.8366
   47MOL   H25215064   7.092   3.977   1.861  1.5951  0.8116  0.8401
   47MOL   H25315065   7.162   3.895   1.495  0.2136 -0.7632 -0.0350
   47MOL   H25415066   7.153   3.722   1.543  1.2809 -0.3672 -1.3490
   47MOL   H25515067   7.295   3.810   1.578 -0.0985  0.0965 -0.9613
   47MOL   H25615068   7.055   3.751   1.882  0.4678  1.7022 -0.1343
   47MOL   H25715069   7.102   3.644   1.743  4.0926  0.0500  0.7912
   47MOL   C25815070   7.037   4.076   1.665  0.0449 -0.5026  0.9069
   47MOL   C25915071   6.992   4.206   1.735 -0.0032 -0.2771 -0.2665
   47MOL   C26015072   6.899   4.009   1.610  0.1525  0.3447 -0.3320
   47MOL   C26115073   6.869   4.056   1.465  0.4732 -0.2895  0.0994
   47MOL   C26215074   6.822   4.199   1.445 -0.8206 -0.1908  0.2284
   47MOL   C26315075   6.883   3.970   1.366 -0.0153 -1.0011  0.0238
   47MOL   H26415076   7.104   4.095   1.582 -2.7231  1.3412 -0.9873
   47MOL   H26515077   7.074   4.274   1.756 -1.9762  1.2367  2.7903
   47MOL   H26615078   6.958   4.171   1.832  0.6952  0.5738  0.2892
   47MOL   H26715079   6.917   4.273   1.691  1.7925  2.1007  0.1874
   47MOL   H26815080   6.928   3.905   1.596  1.2954  0.8168 -1.5652
   47MOL   H26915081   6.900   4.270   1.473 -2.2608  1.3876  0.3038
   47MOL   H27015082   6.739   4.234   1.506  1.7787  1.4332  2.9795
   47MOL   H27115083   6.811   4.218   1.338  0.8417 -2.3022 -0.3431
   47MOL   H27215084   6.908   3.866   1.380  1.3483 -0.6086  0.5384
   47MOL   H27315085   6.875   4.001   1.263 -1.0712 -0.8690  0.1354
   47MOL   C27415086   6.771   3.992   1.706  1.1787  0.0269 -0.3630
   47MOL   C27515087   6.800   3.937   1.843  0.0923  0.0114 -0.5460
   47MOL   C27615088   6.641   3.933   1.641  0.5211  0.2488  0.3162
   47MOL   C27715089   6.508   4.015   1.661 -0.0496 -0.0928  0.1987
   47MOL   C27815090   6.464   4.039   1.810 -0.4722 -0.1293 -1.2013
   47MOL   C27915091   6.445   4.066   1.554  0.6803 -0.5143 -0.6604
   47MOL   H28015092   6.744   4.097   1.719 -2.8678 -0.9094 -0.5796
   47MOL   H28115093   6.874   3.988   1.904  0.6940 -0.6803 -0.6928
   47MOL   H28215094   6.832   3.834   1.833  0.6983  0.2183 -0.7160
   47MOL   H28315095   6.711   3.954   1.904  0.6557  2.7456 -0.4064
   47MOL   H28415096   6.649   3.949   1.533  1.3730  2.4878  0.6936
   47MOL   H28515097   6.365   4.083   1.820  0.2861  0.8610  2.3998
   47MOL   H28615098   6.542   4.107   1.845  0.7491 -2.2035  0.2017
   47MOL   H28715099   6.469   3.944   1.863  0.1395  0.7988  0.4085
   47MOL   H28815100   6.475   4.049   1.451  0.1577  0.8307 -1.0539
   47MOL   H28915101   6.357   4.125   1.578  0.9568  0.3116 -1.6292
   47MOL   C29015102   6.607   3.779   1.663 -0.4039 -0.4885 -0.4657
   47MOL   C29115103   6.730   3.698   1.605 -0.3528 -0.2205  0.2371
   47MOL   C29215104   6.467   3.724   1.606  0.1255  0.3650  1.0553
   47MOL   C29315105   6.410   3.606   1.692 -0.2414 -0.5439  0.7208
   47MOL   C29415106   6.466   3.470   1.661 -0.1844  0.4663 -0.0796
   47MOL   C29515107   6.316   3.626   1.786 -0.0467  0.1126  0.3229
   47MOL   H29615108   6.613   3.778   1.772  0.2746  1.3180 -0.4701
   47MOL   H29715109   6.737   3.724   1.499  0.4951  1.2089  0.6281
   47MOL   H29815110   6.728   3.589   1.603  0.2480 -0.3082  2.8210
   47MOL   H29915111   6.825   3.725   1.652  0.2399  0.2007 -1.1820
   47MOL   H30015112   6.396   3.800   1.638 -0.4521  0.1136  0.3841
   47MOL   H30115113   6.443   3.426   1.758 -1.8391  3.6795  1.0780
   47MOL   H30215114   6.575   3.474   1.649  0.0954  0.2568  2.0732
   47MOL   H30315115   6.409   3.418   1.586 -2.8942  0.5900  1.8272
   47MOL   H30415116   6.279   3.727   1.794  1.7206  0.7264  0.7312
   47MOL   H30515117   6.268   3.547   1.842 -1.0538  0.4327 -0.0743
   47MOL   C30615118   6.437   3.723   1.452  0.8257  0.0153 -0.3704
   47MOL   C30715119   6.283   3.739   1.426 -0.0123  0.2814 -0.0134
   47MOL   C30815120   6.495   3.617   1.369 -0.2946  0.0842  0.9591
   47MOL   C30915121   6.505   3.670   1.226  0.2063  0.3532  0.1785
   47MOL   C31015122   6.626   3.751   1.188  0.1514  0.3436 -0.1460
   47MOL   C31115123   6.410   3.644   1.130  0.3067  0.3663 -0.4984
   47MOL   H31215124   6.475   3.822   1.424 -1.0186  0.4055 -1.5770
   47MOL   H31315125   6.224   3.648   1.444 -0.9618  0.6534 -1.2572
   47MOL   H31415126   6.266   3.760   1.321  1.5472 -2.2457 -0.8142
   47MOL   H31515127   6.232   3.809   1.492 -1.4755 -1.5984  0.9297
   47MOL   H31615128   6.599   3.591   1.388  0.3150 -0.1981 -2.3434
   47MOL   H31715129   6.617   3.775   1.082  1.4814 -1.2323 -0.6276
   47MOL   H31815130   6.719   3.701   1.213 -0.8026 -1.8641 -0.8895
   47MOL   H31915131   6.629   3.842   1.248  1.6647 -0.3685  0.8809
   47MOL   H32015132   6.321   3.586   1.147 -1.1665  2.3477 -1.2319
   47MOL   H32115133   6.420   3.680   1.028  0.1687 -0.0450 -0.6554
   47MOL   H32215134   6.444   3.522   1.386  0.4445 -0.0727  2.3020
   48MOL     C115135   0.964   2.318   1.844 -0.6858  0.1177  0.6271
   48MOL     C215136   1.026   2.461   1.859 -0.5327 -0.2106 -0.4338
   48MOL     C315137   0.979   2.270   1.700  0.2537  0.3451 -0.9581
   48MOL     C415138   0.901   2.352   1.601 -0.1162  0.0715  0.0515
   48MOL     C515139   0.989   2.432   1.506  0.1448 -0.0583 -0.4747
   48MOL     C615140   0.770   2.338   1.578  0.4368  0.0473  0.1757
   48MOL     H715141   1.019   2.251   1.910 -3.1565 -3.2912 -0.6114
   48MOL     H815142   0.967   2.530   1.798  1.8476  1.5714 -0.7917
   48MOL     H915143   1.129   2.467   1.822 -0.0545 -0.9921  0.7516
   48MOL    H1015144   1.028   2.498   1.962  0.4761  0.0232 -0.5300
   48MOL    H1115145   1.082   2.290   1.674  0.6103  0.9363  0.8840
   48MOL    H1215146   0.938   2.455   1.412 -0.6543  0.5240  0.0943
   48MOL    H1315147   1.075   2.373   1.474 -1.1126 -2.4377  0.3947
   48MOL    H1415148   1.012   2.527   1.555 -2.5169  0.1604  0.4321
   48MOL    H1515149   0.709   2.276   1.642 -0.2611  2.6989  2.2180
   48MOL    H1615150   0.723   2.391   1.497 -0.2589 -1.8124 -0.6597
   48MOL    H1715151   0.859   2.325   1.872 -0.0124  0.3268  3.1756
   48MOL    C1815152   0.969   2.122   1.680  0.0419  0.3456  0.5998
   48MOL    C1915153   0.870   2.054   1.774  0.3761  0.2712 -0.2596
   48MOL    C2015154   1.108   2.041   1.677  0.5332 -0.6802 -0.3777
   48MOL    C2115155   1.178   2.031   1.810 -0.1727  0.1854  1.0878
   48MOL    C2215156   1.145   1.924   1.909 -0.2786 -0.1972 -0.3104
   48MOL    C2315157   1.272   2.123   1.839  0.5885  0.1261  1.0932
   48MOL    H2415158   0.923   2.112   1.582 -1.4513  0.5155  1.2612
   48MOL    H2515159   0.776   2.109   1.776 -0.2620 -0.6465 -3.2175
   48MOL    H2615160   0.909   2.048   1.876  0.5928 -1.4074 -0.4349
   48MOL    H2715161   0.841   1.954   1.744 -2.3155  0.6060  1.0738
   48MOL    H2815162   1.077   1.937   1.669 -1.0544 -0.2101 -0.5277
   48MOL    H2915163   1.183   1.957   2.006  2.5453  0.3326 -1.5496
   48MOL    H3015164   1.207   1.836   1.888  1.2783  1.2131 -1.7015
   48MOL    H3115165   1.040   1.898   1.923 -0.2374  1.2449  3.1409
   48MOL    H3215166   1.304   2.194   1.765 -0.3126  0.6467  1.1907
   48MOL    H3315167   1.326   2.125   1.933  3.4975 -1.4797 -0.4593
   48MOL    C3415168   1.205   2.060   1.556 -0.2838  0.4021  0.7687
   48MOL    C3515169   1.131   2.086   1.422  0.4914 -0.3073  0.4789
   48MOL    C3615170   1.319   1.951   1.537  0.2649 -0.2644 -1.0276
   48MOL    C3715171   1.456   2.013   1.516  0.3624 -0.9014  1.0929
   48MOL    C3815172   1.548   2.034   1.637 -0.5973  0.8620  0.3050
   48MOL    C3915173   1.488   2.050   1.393  0.1313  0.2275  0.1479
   48MOL    H4015174   1.264   2.151   1.567 -0.5797  0.7278 -0.2373
   48MOL    H4115175   1.191   2.108   1.333 -1.4086  0.9922 -0.5069
   48MOL    H4215176   1.067   2.172   1.439  0.1840 -0.6774  1.1821
   48MOL    H4315177   1.068   2.001   1.398 -0.8612  0.5960  0.7520
   48MOL    H4415178   1.325   1.916   1.640  0.3487  1.8593 -0.2825
   48MOL    H4515179   1.566   1.941   1.691  1.6985  1.9020  1.3950
   48MOL    H4615180   1.504   2.095   1.716 -2.1911 -0.5969  0.5813
   48MOL    H4715181   1.645   2.077   1.611 -0.2153 -0.4346 -0.4801
   48MOL    H4815182   1.415   2.050   1.313 -0.5672  0.1908  0.7771
   48MOL    H4915183   1.585   2.095   1.375  0.7100 -0.2121  2.1014
   48MOL    C5015184   1.289   1.819   1.454 -1.4372 -0.7810  0.0230
   48MOL    C5115185   1.173   1.733   1.509 -0.1443  0.1687  0.1914
   48MOL    C5215186   1.414   1.725   1.401  0.6282 -0.0256  0.1259
   48MOL    C5315187   1.414   1.705   1.253  0.5152 -0.1491 -0.0101
   48MOL    C5415188   1.324   1.611   1.184  0.2641 -0.5234 -0.1081
   48MOL    C5515189   1.485   1.786   1.171  0.2529  0.1097  0.9516
   48MOL    H5615190   1.263   1.860   1.356 -3.5163 -0.6152  0.6284
   48MOL    H5715191   1.083   1.793   1.497 -0.0392  0.2830 -0.0405
   48MOL    H5815192   1.189   1.712   1.615  1.5274 -1.1014 -0.2813
   48MOL    H5915193   1.157   1.637   1.459 -1.4552 -0.2054  1.3181
   48MOL    H6015194   1.506   1.779   1.421  0.9921  0.2925 -2.2523
   48MOL    H6115195   1.379   1.526   1.145  1.0424  0.1175 -0.4192
   48MOL    H6215196   1.289   1.666   1.096  1.1886 -1.8373 -1.3135
   48MOL    H6315197   1.244   1.570   1.246  0.7522 -2.4253 -0.7089
   48MOL    H6415198   1.541   1.868   1.214 -1.4975  0.4431  2.6533
   48MOL    H6515199   1.469   1.775   1.065 -0.2582 -1.8702  1.2142
   48MOL    C6615200   1.449   1.600   1.483  0.4826 -0.3625  0.1198
   48MOL    C6715201   1.486   1.646   1.633 -0.7867  0.0915  0.4716
   48MOL    C6815202   1.554   1.493   1.414  0.5960 -0.0701 -0.1235
   48MOL    C6915203   1.514   1.358   1.474  0.0313 -0.4767 -0.6286
   48MOL    C7015204   1.396   1.291   1.409 -0.5271  0.1736  0.0163
   48MOL    C7115205   1.579   1.298   1.578 -0.4075  0.2898  0.6586
   48MOL    H7215206   1.355   1.546   1.495  1.1167 -1.6618 -0.6323
   48MOL    H7315207   1.395   1.686   1.678 -1.0001  0.7761 -0.5449
   48MOL    H7415208   1.576   1.705   1.651 -0.1910 -0.5673 -0.3081
   48MOL    H7515209   1.496   1.550   1.684 -1.1915 -1.1669 -1.7394
   48MOL    H7615210   1.526   1.479   1.310  3.2379 -0.5542 -0.7861
   48MOL    H7715211   1.413   1.281   1.302  0.7255 -1.2480  0.3389
   48MOL    H7815212   1.295   1.332   1.421 -0.7352 -0.4618  0.4171
   48MOL    H7915213   1.383   1.190   1.448 -3.0801  0.6607  0.5726
   48MOL    H8015214   1.660   1.341   1.634  1.5115  0.7954 -2.4169
   48MOL    H8115215   1.544   1.205   1.622 -0.9728 -1.0851 -2.6026
   48MOL    C8215216   1.705   1.536   1.423  0.1687  0.5510 -0.6768
   48MOL    C8315217   1.746   1.684   1.388 -0.0395  1.0192 -0.0883
   48MOL    C8415218   1.805   1.434   1.355  0.5029  0.0371 -0.7534
   48MOL    C8515219   1.926   1.402   1.437 -0.4420 -0.2981  0.1399
   48MOL    C8615220   2.035   1.508   1.433 -0.0629 -0.5735  0.6912
   48MOL    C8715221   1.932   1.289   1.518  0.3678  0.3332 -0.7578
   48MOL    H8815222   1.724   1.533   1.530  0.3038  1.2368 -0.6775
   48MOL    H8915223   1.852   1.695   1.366  0.4135 -3.5108 -0.6695
   48MOL    H9015224   1.733   1.740   1.480 -1.4465 -1.8934  1.5383
   48MOL    H9115225   1.707   1.728   1.296  1.4380  2.2086 -0.1626
   48MOL    H9215226   1.770   1.332   1.372  0.6939 -0.2324 -1.9713
   48MOL    H9315227   2.059   1.554   1.337  0.8364  1.8023  2.0172
   48MOL    H9415228   2.126   1.449   1.447  0.2209 -0.7391 -1.6097
   48MOL    H9515229   2.018   1.586   1.507 -4.8247 -1.0697  0.2333
   48MOL    H9615230   1.851   1.218   1.521  0.9712 -0.4210 -1.9864
   48MOL    H9715231   2.013   1.272   1.587 -2.2143 -1.3006  2.0316
   48MOL    C9815232   1.829   1.430   1.208  0.2628 -0.3426  0.4483
   48MOL    C9915233   1.697   1.456   1.126 -0.2028  0.1891  0.0989
   48MOL   C10015234   1.923   1.319   1.142  0.3534 -0.3732  0.8244
   48MOL   C10115235   2.022   1.379   1.042 -0.7839  0.3465 -0.6488
   48MOL   C10215236   1.970   1.425   0.913 -0.2081  0.1227  0.3780
   48MOL   C10315237   2.156   1.390   1.074  0.3613 -0.2808 -0.1208
   48MOL   H10415238   1.886   1.521   1.186  0.3713 -0.6047 -0.3840
   48MOL   H10515239   1.726   1.461   1.021 -2.0505  2.8846 -0.3504
   48MOL   H10615240   1.650   1.552   1.148 -2.7913 -1.0483  0.1416
   48MOL   H10715241   1.618   1.382   1.134  1.1279 -1.2561  0.0821
   48MOL   H10815242   1.982   1.288   1.228 -1.2044  1.1014  2.4709
   48MOL   H10915243   1.894   1.504   0.912  1.8645  2.1596 -0.4058
   48MOL   H11015244   1.917   1.343   0.865  2.1704 -1.6804  0.7746
   48MOL   H11115245   2.052   1.458   0.849  0.3835  1.0097  1.5713
   48MOL   H11215246   2.205   1.356   1.163 -1.9537 -0.7238  1.0341
   48MOL   H11315247   2.225   1.443   1.010 -2.7927  1.8780 -1.8602
   48MOL   C11415248   1.859   1.189   1.090  0.5769 -0.1333 -0.3777
   48MOL   C11515249   1.780   1.122   1.207  0.0805  0.8868 -0.0896
   48MOL   C11615250   1.943   1.084   1.012  0.0963 -0.3822  0.5519
   48MOL   C11715251   1.846   0.998   0.924 -0.2747 -0.1813  0.0182
   48MOL   C11815252   1.804   1.053   0.789  0.1974 -0.3412  0.8625
   48MOL   C11915253   1.810   0.876   0.960  0.9767  0.0788 -0.8403
   48MOL   H12015254   1.787   1.227   1.019  0.8476  0.6746 -0.2220
   48MOL   H12115255   1.838   1.118   1.300 -0.9178 -0.7250  0.4913
   48MOL   H12215256   1.740   1.026   1.174 -0.5128  0.8269  0.7875
   48MOL   H12315257   1.691   1.179   1.233  1.2327  2.5382  0.2978
   48MOL   H12415258   1.988   1.149   0.937 -0.8060 -1.8499 -1.3032
   48MOL   H12515259   1.720   1.000   0.744 -0.1637  0.4219  0.6100
   48MOL   H12615260   1.893   1.033   0.730 -0.0102  0.2549  0.3371
   48MOL   H12715261   1.780   1.160   0.789 -1.9214 -0.7994  1.1027
   48MOL   H12815262   1.841   0.829   1.052 -0.7983  1.4133  0.4646
   48MOL   H12915263   1.742   0.819   0.899  0.9965 -1.0843  0.1928
   48MOL   C13015264   2.075   1.013   1.065 -0.6506 -0.3432  0.1207
   48MOL   C13115265   2.104   1.032   1.217  0.2059 -0.2586  0.3567
   48MOL   C13215266   2.207   1.035   0.981 -0.1127 -0.3297  0.0359
   48MOL   C13315267   2.181   1.033   0.828 -0.2943  0.1664 -0.2260
   48MOL   C13415268   2.142   0.900   0.763 -0.8217  0.2509 -0.0301
   48MOL   C13515269   2.204   1.146   0.758  0.8577 -0.4066  0.1244
   48MOL   H13615270   2.047   0.908   1.058 -1.0397 -0.2380  0.0909
   48MOL   H13715271   2.010   1.005   1.266 -0.9053  1.3939 -0.7949
   48MOL   H13815272   2.126   1.137   1.237 -2.9940  0.1275  2.1980
   48MOL   H13915273   2.184   0.969   1.255  0.4429 -0.2936 -0.1995
   48MOL   H14015274   2.243   1.136   1.000 -0.7653 -0.4219  1.8114
   48MOL   H14115275   2.232   0.838   0.760 -0.7389  0.3541  0.3592
   48MOL   H14215276   2.117   0.921   0.659 -1.0740  1.2460  0.2232
   48MOL   H14315277   2.069   0.848   0.825  0.0660  0.7731  1.4739
   48MOL   H14415278   2.244   1.234   0.806 -1.5123  1.5659 -1.3413
   48MOL   H14515279   2.188   1.146   0.651  0.5949 -0.5609  0.1619
   48MOL   C14615280   2.324   0.930   1.012  0.5699  0.3018 -0.0920
   48MOL   C14715281   2.273   0.789   1.052  0.1482  0.0215  0.0574
   48MOL   C14815282   2.440   0.976   1.111  0.3476  0.0035  0.2073
   48MOL   C14915283   2.494   1.107   1.048  0.1031 -0.7283  0.4818
   48MOL   C15015284   2.530   1.220   1.137 -0.7518  0.3542  0.6231
   48MOL   C15115285   2.537   1.119   0.922  0.2820  0.1542 -0.8179
   48MOL   H15215286   2.370   0.921   0.913  1.6748 -0.9310  0.5286
   48MOL   H15315287   2.180   0.765   0.999  0.3890 -0.7240 -0.0306
   48MOL   H15415288   2.242   0.783   1.157  2.0073  2.2502  0.7702
   48MOL   H15515289   2.335   0.703   1.029 -0.3976 -0.4407  0.3015
   48MOL   H15615290   2.393   1.019   1.200  0.1830  0.2556 -0.0029
   48MOL   H15715291   2.528   1.314   1.082 -0.0495 -0.3613 -0.6306
   48MOL   H15815292   2.627   1.201   1.184 -0.9400 -0.3549  0.7331
   48MOL   H15915293   2.449   1.231   1.210 -1.3921 -0.4567  0.0386
   48MOL   H16015294   2.525   1.038   0.851 -0.0732  0.5302 -1.1882
   48MOL   H16115295   2.595   1.207   0.898  0.6193  0.0469 -0.4124
   48MOL   C16215296   2.561   0.885   1.150 -0.6636 -0.1029 -0.5264
   48MOL   C16315297   2.615   0.804   1.035  0.8541 -0.6470  0.0104
   48MOL   C16415298   2.539   0.795   1.274  0.4980  0.1600  0.4989
   48MOL   C16515299   2.453   0.861   1.384  1.1192  0.7130  0.1366
   48MOL   C16615300   2.499   0.995   1.436 -0.2054  0.0552  0.1548
   48MOL   C16715301   2.360   0.786   1.450 -0.8259 -0.3007  0.3646
   48MOL   H16815302   2.643   0.952   1.174 -0.1983 -1.2548  1.1850
   48MOL   H16915303   2.621   0.858   0.940  2.0038  0.4163  0.6748
   48MOL   H17015304   2.550   0.722   1.007  0.4189  0.1202 -1.2926
   48MOL   H17115305   2.709   0.753   1.057  0.5781 -0.4560  1.6263
   48MOL   H17215306   2.468   0.722   1.237  2.9274 -3.0112  1.8290
   48MOL   H17315307   2.418   1.063   1.461 -0.4743 -0.4140  0.5703
   48MOL   H17415308   2.557   1.033   1.352 -3.7274  2.6823 -1.2011
   48MOL   H17515309   2.562   0.991   1.525 -0.3646  1.6529  0.3595
   48MOL   H17615310   2.357   0.683   1.416  1.0343  0.6088 -2.7769
   48MOL   H17715311   2.297   0.825   1.528 -1.0694  1.2763 -0.6016
   48MOL   C17815312   2.654   0.716   1.330 -0.0528  0.3085  0.1910
   48MOL   C17915313   2.772   0.805   1.372  0.3841 -0.9689  1.1014
   48MOL   C18015314   2.679   0.573   1.269 -0.4339  0.1849  0.5131
   48MOL   C18115315   2.548   0.490   1.253  1.0055 -0.2146 -0.7578
   48MOL   C18215316   2.528   0.429   1.116  0.0873 -0.0385  0.6400
   48MOL   C18315317   2.472   0.448   1.357 -0.1508  0.0419 -0.0904
   48MOL   H18415318   2.614   0.689   1.428 -1.5160 -0.6012 -0.6349
   48MOL   H18515319   2.836   0.815   1.285 -1.8537 -1.4149 -0.6663
   48MOL   H18615320   2.835   0.770   1.454  1.0999  2.4134  2.0560
   48MOL   H18715321   2.742   0.905   1.403 -1.3289 -0.9027 -0.6406
   48MOL   H18815322   2.707   0.590   1.165  1.7254 -0.8538  0.8971
   48MOL   H18915323   2.611   0.362   1.096 -0.5688 -0.8413  0.5648
   48MOL   H19015324   2.521   0.502   1.035  3.3931 -0.9656 -0.5580
   48MOL   H19115325   2.433   0.376   1.129 -0.4484  1.1207  1.6226
   48MOL   H19215326   2.485   0.485   1.458  2.0554  1.6794 -0.9394
   48MOL   H19315327   2.390   0.380   1.341  0.5010 -0.8118  0.1674
   48MOL   C19415328   2.786   0.479   1.329 -0.1267  0.6482  0.4972
   48MOL   C19515329   2.778   0.471   1.477 -0.6223 -0.1360 -0.4223
   48MOL   C19615330   2.941   0.507   1.293 -0.0303 -0.5387  0.2358
   48MOL   C19715331   2.969   0.549   1.142 -0.0616  0.0328 -0.4940
   48MOL   C19815332   2.927   0.450   1.032  0.3516  0.1791 -0.3455
   48MOL   C19915333   3.019   0.669   1.109 -0.2705 -0.2933  0.1437
   48MOL   H20015334   2.771   0.379   1.289 -2.0256  0.6313  1.1953
   48MOL   H20115335   2.832   0.390   1.527  1.2134  1.4366  0.2064
   48MOL   H20215336   2.675   0.460   1.511 -1.1384  0.0422 -1.9061
   48MOL   H20315337   2.808   0.566   1.522 -1.2899  1.2730 -2.8274
   48MOL   H20415338   2.963   0.600   1.347 -1.0571 -0.5039  0.6138
   48MOL   H20515339   2.821   0.430   1.044  0.3382  1.5741  2.1690
   48MOL   H20615340   2.987   0.359   1.032 -0.7102 -0.5166 -1.0881
   48MOL   H20715341   2.944   0.499   0.936 -1.9432 -1.5188 -1.6443
   48MOL   H20815342   3.044   0.735   1.191 -2.1192  2.6992 -1.6310
   48MOL   H20915343   3.029   0.708   1.009 -0.4574  1.4160  0.7836
   48MOL   C21015344   3.050   0.397   1.336 -0.2714  0.0528 -0.0158
   48MOL   C21115345   2.991   0.255   1.309  0.2202 -0.6093  0.4682
   48MOL   C21215346   3.124   0.421   1.477  0.1704 -0.3531 -0.8347
   48MOL   C21315347   3.179   0.560   1.488 -0.2829 -0.1699  0.3894
   48MOL   C21415348   3.134   0.631   1.620  0.9233  0.3805 -0.7412
   48MOL   C21515349   3.254   0.612   1.389  0.6006 -0.2477  0.0640
   48MOL   H21615350   3.137   0.401   1.270 -0.7492 -0.6195 -0.6994
   48MOL   H21715351   2.919   0.233   1.388  0.2896  0.5213  0.8518
   48MOL   H21815352   3.069   0.179   1.309  0.9863  0.1265 -1.6781
   48MOL   H21915353   2.950   0.254   1.208 -0.9340  0.2258  0.9177
   48MOL   H22015354   3.040   0.419   1.547 -0.3698  2.3724 -1.3420
   48MOL   H22115355   3.202   0.716   1.633  3.6840 -2.2331  2.9279
   48MOL   H22215356   3.145   0.563   1.704 -2.1857  1.2296  0.4077
   48MOL   H22315357   3.031   0.664   1.613  1.1475  1.0364 -1.0085
   48MOL   H22415358   3.274   0.562   1.295 -2.6264  0.2312 -0.9508
   48MOL   H22515359   3.291   0.713   1.398  2.4727 -0.7330 -1.8429
   48MOL   C22615360   3.221   0.320   1.543  0.2201 -0.3128 -0.5311
   48MOL   C22715361   3.336   0.277   1.439  0.4880  0.1769  0.3914
   48MOL   C22815362   3.164   0.182   1.601 -1.2821  0.0493  0.0289
   48MOL   C22915363   3.050   0.209   1.693  0.3708 -0.1227  0.5245
   48MOL   C23015364   2.926   0.127   1.671  0.6553  0.0080 -0.3728
   48MOL   C23115365   3.049   0.312   1.782  0.3390 -0.1113  0.8060
   48MOL   H23215366   3.272   0.376   1.622 -1.3327 -2.0970  1.8156
   48MOL   H23315367   3.305   0.207   1.362  1.5736  0.2297 -0.1040
   48MOL   H23415368   3.427   0.231   1.478 -0.4940 -1.3178  0.9667
   48MOL   H23515369   3.384   0.358   1.385  0.7310  0.1842  0.6177
   48MOL   H23615370   3.124   0.135   1.511  1.8864 -0.7680 -0.9960
   48MOL   H23715371   2.939   0.043   1.602  3.6424  1.5535 -1.7989
   48MOL   H23815372   2.841   0.186   1.637 -0.3041 -0.0475  1.8335
   48MOL   H23915373   2.919   0.073   1.766  0.5879 -1.6758 -1.3147
   48MOL   H24015374   3.125   0.384   1.808 -0.3404  0.5770  0.9056
   48MOL   H24115375   2.958   0.321   1.840  1.2125  1.7784  1.8862
   48MOL   C24215376   3.266   0.070   1.647 -0.0290 -0.1275  0.3779
   48MOL   C24315377   3.374   0.115   1.741 -0.6320 -0.7100 -0.6278
   48MOL   C24415378   3.301   7.850   1.537 -0.0089  0.1934 -0.4808
   48MOL   C24515379   3.176   7.795   1.460  0.0978 -0.0399  0.1557
   48MOL   C24615380   3.078   7.722   1.552  0.2426  0.1311  0.6039
   48MOL   C24715381   3.151   7.819   1.329 -0.1140  0.5253  0.6220
   48MOL   H24815382   3.208   0.013   1.721 -0.3680  1.1933  1.1493
   48MOL   H24915383   3.421   0.038   1.801  0.7987  1.0887  0.6172
   48MOL   H25015384   3.357   0.197   1.812 -0.3922  0.2666 -1.6781
   48MOL   H25115385   3.453   0.153   1.676 -0.0985  0.0497  0.4571
   48MOL   H25215386   3.362   0.007   1.461 -0.6345  0.0219 -1.0979
   48MOL   H25315387   2.975   7.738   1.522  1.0750 -1.2497 -3.1859
   48MOL   H25415388   3.085   7.728   1.661 -1.4665 -1.4593  0.8210
   48MOL   H25515389   3.093   7.616   1.534  1.2159  0.3168  0.3084
   48MOL   H25615390   3.222   7.877   1.272 -0.6429  1.0332  0.4794
   48MOL   H25715391   3.058   7.788   1.285  0.6949  0.0639 -0.8131
   48MOL   C25815392   3.406   7.734   1.567  0.1086  0.2719  0.1633
   48MOL   C25915393   3.544   7.785   1.594 -0.3226 -0.1952  0.5028
   48MOL   C26015394   3.410   7.605   1.474 -0.0560 -0.2190  0.1719
   48MOL   C26115395   3.439   7.483   1.566 -0.2762  0.2163 -0.0575
   48MOL   C26215396   3.321   7.415   1.630  0.1546  0.3360 -0.9966
   48MOL   C26315397   3.566   7.437   1.590  0.7407 -0.3845  0.3695
   48MOL   H26415398   3.368   7.694   1.661  2.2095 -2.1449  0.0447
   48MOL   H26515399   3.554   7.803   1.701 -0.0791 -0.4931  0.5329
   48MOL   H26615400   3.568   7.883   1.553 -1.6399  1.3097  3.2263
   48MOL   H26715401   3.621   7.712   1.568  0.4334  0.7746 -0.0279
   48MOL   H26815402   3.306   7.587   1.449 -0.6291  0.9433  1.6555
   48MOL   H26915403   3.274   7.334   1.574 -0.5404  1.4495 -2.0465
   48MOL   H27015404   3.235   7.471   1.669 -0.8919 -1.7370 -0.2377
   48MOL   H27115405   3.356   7.369   1.723  0.7055  2.0346 -0.3428
   48MOL   H27215406   3.653   7.490   1.557  0.7006 -0.4071  0.2282
   48MOL   H27315407   3.576   7.343   1.643 -1.5310  0.0262  1.5874
   48MOL   C27415408   3.503   7.620   1.347 -0.1360 -0.4374  0.2468
   48MOL   C27515409   3.477   7.738   1.248 -0.1069  0.0907  0.4527
   48MOL   C27615410   3.511   7.484   1.260  0.2980  0.2889  0.2600
   48MOL   C27715411   3.653   7.475   1.201  0.4185 -0.1908  0.6234
   48MOL   C27815412   3.746   7.393   1.284 -0.1368  0.3915 -0.7219
   48MOL   C27915413   3.691   7.538   1.087  0.1872 -0.1249  0.1581
   48MOL   H28015414   3.604   7.648   1.377 -0.9144  1.8493  0.8030
   48MOL   H28115415   3.561   7.749   1.178  0.2008  1.8365  1.0720
   48MOL   H28215416   3.490   7.825   1.312 -2.8728  2.2349 -1.7823
   48MOL   H28315417   3.388   7.741   1.185  1.3524  0.6352 -1.6647
   48MOL   H28415418   3.496   7.399   1.326  1.5740 -0.8521 -0.8821
   48MOL   H28515419   3.778   7.454   1.368  1.4038 -1.0568 -0.2360
   48MOL   H28615420   3.827   7.355   1.222  0.3243 -1.4143  0.9475
   48MOL   H28715421   3.688   7.309   1.323  1.0620 -1.2247 -2.3095
   48MOL   H28815422   3.625   7.593   1.021 -0.1900  0.4132  0.9789
   48MOL   H28915423   3.792   7.533   1.049  0.1563  1.6312 -0.2275
   48MOL   C29015424   3.401   7.469   1.156 -0.3872 -0.5765  0.0340
   48MOL   C29115425   3.261   7.460   1.216  0.4439  0.0968 -0.9175
   48MOL   C29215426   3.420   7.340   1.060 -0.7185 -0.0895  0.1079
   48MOL   C29315427   3.365   7.345   0.913  0.9638  0.1460 -0.7396
   48MOL   C29415428   3.455   7.290   0.808 -0.0164  0.0434 -0.1853
   48MOL   C29515429   3.249   7.405   0.882  0.5631 -0.6418 -0.1866
   48MOL   H29615430   3.398   7.544   1.077 -1.4003 -0.3227  0.3012
   48MOL   H29715431   3.226   7.561   1.236 -1.1332 -0.7860  0.9404
   48MOL   H29815432   3.260   7.405   1.310  1.2746  1.4802 -0.0984
   48MOL   H29915433   3.183   7.417   1.152 -0.0275 -0.7695  0.2252
   48MOL   H30015434   3.527   7.336   1.040 -0.8304  0.4378 -0.6152
   48MOL   H30115435   3.423   7.311   0.706  1.6842  0.8512 -0.5813
   48MOL   H30215436   3.460   7.182   0.819  0.5638 -0.0087 -0.9301
   48MOL   H30315437   3.559   7.324   0.809  0.1913 -0.5564 -0.9416
   48MOL   H30415438   3.195   7.467   0.952  3.5311  0.8065  0.8970
   48MOL   H30515439   3.218   7.410   0.778 -0.5466 -0.3308  0.1534
   48MOL   C30615440   3.394   7.199   1.134  0.3891 -0.6395  0.3449
   48MOL   C30715441   3.498   7.089   1.106  0.2600  0.6137  0.7541
   48MOL   C30815442   3.251   7.138   1.121 -0.3323 -0.2142 -0.3051
   48MOL   C30915443   3.187   7.123   1.258 -0.1495 -0.5180 -0.3975
   48MOL   C31015444   3.254   7.024   1.352 -0.4967 -0.4172 -0.0998
   48MOL   C31115445   3.085   7.198   1.300 -0.4941  0.0529  0.1482
   48MOL   H31215446   3.409   7.218   1.241 -0.1883  0.9483  0.1637
   48MOL   H31315447   3.490   7.060   1.001 -2.0856 -0.8255  1.2985
   48MOL   H31415448   3.494   7.008   1.179 -0.7762  2.1075  2.4023
   48MOL   H31515449   3.597   7.134   1.114  0.9463 -0.6581 -0.3578
   48MOL   H31615450   3.203   7.206   1.050  0.2523  0.3889 -0.1302
   48MOL   H31715451   3.363   7.023   1.350 -0.5036 -1.2144 -0.3186
   48MOL   H31815452   3.239   6.916   1.340  1.7616 -0.6497 -1.0143
   48MOL   H31915453   3.245   7.050   1.458 -2.0708 -0.6145 -0.1698
   48MOL   H32015454   3.029   7.270   1.243 -0.1936 -0.4700 -0.8264
   48MOL   H32115455   3.045   7.185   1.400  0.1534  0.3700  0.4484
   48MOL   H32215456   3.257   7.043   1.069  0.8808  0.3963 -1.3053
   49MOL     C115457   3.382   3.830   7.669 -0.7993 -0.3770  0.6985
   49MOL     C215458   3.510   3.859   7.748  0.6056  0.3273 -0.4021
   49MOL     C315459   3.259   3.933   7.684 -0.5216  0.2289  0.1139
   49MOL     C415460   3.253   3.992   7.829  0.2870 -0.1133 -0.4664
   49MOL     C515461   3.232   3.901   0.058  0.3404 -0.3983 -0.5764
   49MOL     C615462   3.280   4.126   7.845  0.1598 -0.0277 -0.0474
   49MOL     H715463   3.405   3.831   7.562  4.1124 -2.1675  1.6096
   49MOL     H815464   3.497   3.830   7.852 -2.7072  0.7463 -0.6630
   49MOL     H915465   3.526   3.967   7.748  1.6053  0.2706  3.9913
   49MOL    H1015466   3.592   3.799   7.709  0.0040  0.1408 -1.3764
   49MOL    H1115467   3.273   4.019   7.619  1.0538  0.6706  1.0053
   49MOL    H1215468   3.273   3.948   0.147  1.6606 -0.7183 -0.9981
   49MOL    H1315469   3.305   3.820   0.069 -1.4348 -1.6685  2.3106
   49MOL    H1415470   3.130   3.865   0.071  0.3024  0.6290  2.0819
   49MOL    H1515471   3.298   4.187   7.757  1.1724 -1.7637 -1.0830
   49MOL    H1615472   3.274   4.172   0.050  0.7931 -1.5833  0.7391
   49MOL    H1715473   3.353   3.727   7.689  2.9399 -1.4149  1.1002
   49MOL    C1815474   3.128   3.872   7.640 -0.8495  0.1157  0.2091
   49MOL    C1915475   3.143   3.799   7.497  1.5731 -0.2210 -0.1559
   49MOL    C2015476   3.007   3.972   7.639  0.4503 -0.1145 -0.0103
   49MOL    C2115477   2.876   3.887   7.643  0.0229  0.0274 -0.5914
   49MOL    C2215478   2.834   3.844   7.783 -0.2580  0.3594  0.3942
   49MOL    C2315479   2.800   3.854   7.532 -0.1667 -0.6038  0.7386
   49MOL    H2415480   3.099   3.792   7.709 -0.6133 -1.4314 -1.4450
   49MOL    H2515481   3.212   3.714   7.491  0.7368 -0.9497  0.3720
   49MOL    H2615482   3.187   3.871   7.428  1.0901  0.1119 -0.1191
   49MOL    H2715483   3.047   3.765   7.459  1.5842 -0.0150 -0.3707
   49MOL    H2815484   3.006   4.030   7.731  2.6511 -0.0064 -0.0159
   49MOL    H2915485   2.750   3.775   7.785 -1.2729  1.4559 -2.7023
   49MOL    H3015486   2.828   3.933   7.846 -0.3035  0.5643  0.0986
   49MOL    H3115487   2.915   3.778   7.814  0.1355  0.3651 -0.6034
   49MOL    H3215488   2.825   3.890   7.433  1.5781 -1.3394  0.8957
   49MOL    H3315489   2.713   3.793   7.547 -0.3606 -0.9716 -1.6189
   49MOL    C3415490   2.997   4.084   7.529 -0.1832 -0.2095 -0.4189
   49MOL    C3515491   3.132   4.159   7.489 -0.6807 -0.5332 -0.0642
   49MOL    C3615492   2.873   4.184   7.553 -0.6489 -0.2659  0.2244
   49MOL    C3715493   2.789   4.193   7.429 -0.3644  0.4382 -0.7039
   49MOL    C3815494   2.849   4.236   7.298  0.5396  0.1812 -0.4537
   49MOL    C3915495   2.658   4.165   7.424  0.2576 -0.2206 -0.0907
   49MOL    H4015496   2.975   4.034   7.435 -0.3229 -2.3542  0.7267
   49MOL    H4115497   3.119   4.242   7.421 -0.6605 -1.1670 -0.8525
   49MOL    H4215498   3.193   4.085   7.435 -0.0438  0.7138 -1.0771
   49MOL    H4315499   3.201   4.198   7.564  0.8472 -1.5231 -0.9180
   49MOL    H4415500   2.808   4.128   7.621 -1.3428  0.1144 -0.1241
   49MOL    H4515501   2.790   4.222   7.207 -2.0571  0.2138  1.1593
   49MOL    H4615502   2.949   4.196   7.280  0.6709 -0.6651  1.9585
   49MOL    H4715503   2.869   4.341   7.315  0.1086 -0.1285  2.1570
   49MOL    H4815504   2.609   4.138   7.516  0.0878  1.4593  0.3287
   49MOL    H4915505   2.589   4.165   7.340  0.4639 -0.1758 -0.2612
   49MOL    C5015506   2.901   4.319   7.630 -0.2415  0.1279 -0.4323
   49MOL    C5115507   2.981   4.297   7.760 -0.3037 -0.0978 -0.1941
   49MOL    C5215508   2.800   4.432   7.618 -0.3462  0.1854 -0.4689
   49MOL    C5315509   2.877   4.562   7.594 -0.2402  0.3005 -0.2504
   49MOL    C5415510   2.890   4.600   7.449 -0.4690  0.5311  0.1392
   49MOL    C5515511   2.929   4.640   7.685 -0.9689  0.0686  0.4939
   49MOL    H5615512   2.988   4.351   7.571  0.0821  1.5760  0.8085
   49MOL    H5715513   3.081   4.260   7.738 -0.6127  0.3735 -2.5945
   49MOL    H5815514   2.934   4.224   7.826  1.2168 -0.6211  0.3251
   49MOL    H5915515   3.007   4.389   7.813  0.7752 -0.4622 -0.0891
   49MOL    H6015516   2.743   4.416   7.526 -1.6672 -3.7678  0.9197
   49MOL    H6115517   2.953   4.519   7.411 -0.2463  1.1112 -0.7356
   49MOL    H6215518   2.949   4.690   7.433  0.5691  0.0175  0.9330
   49MOL    H6315519   2.795   4.605   7.397  0.2395  0.4359 -1.1801
   49MOL    H6415520   2.929   4.606   7.787  0.3419 -2.0764 -0.2013
   49MOL    H6515521   2.967   4.737   7.655 -1.6627  0.8396  2.0385
   49MOL    C6615522   2.685   4.428   7.736  0.1189 -0.2433 -0.1301
   49MOL    C6715523   2.604   4.298   7.752  0.0551 -0.5353  0.8032
   49MOL    C6815524   2.606   4.567   7.738 -0.3059  0.3564 -0.8003
   49MOL    C6915525   2.587   4.618   7.878 -0.3854  0.0734 -0.0337
   49MOL    C7015526   2.489   4.549   0.076  0.4135 -0.2679  0.0492
   49MOL    C7115527   2.643   4.730   0.033  0.1646 -0.4547 -0.3596
   49MOL    H7215528   2.757   4.433   7.818  0.1922 -0.0443 -0.2051
   49MOL    H7315529   2.531   4.290   7.832 -0.7101  0.2532  0.1860
   49MOL    H7415530   2.672   4.214   7.771 -1.1458 -1.1379  2.6308
   49MOL    H7515531   2.555   4.267   7.660  0.7162  0.0038  0.2621
   49MOL    H7615532   2.671   4.635   7.683 -1.7546 -0.7051 -3.9461
   49MOL    H7715533   2.426   4.605   0.145 -1.6828 -0.8611 -1.3538
   49MOL    H7815534   2.543   4.505   0.160 -0.4076 -1.4059 -0.0108
   49MOL    H7915535   2.425   4.474   0.029 -1.0449  0.8796  0.1619
   49MOL    H8015536   2.722   4.772   7.865 -0.6647  0.2811 -0.9390
   49MOL    H8115537   2.623   4.767   0.132  0.9680 -1.8021  0.3307
   49MOL    C8215538   2.480   4.577   7.645  0.0991 -0.6481 -0.1081
   49MOL    C8315539   2.494   4.510   7.506  0.3867  0.7750  0.1309
   49MOL    C8415540   2.400   4.712   7.637  0.0335  0.2602  0.5813
   49MOL    C8515541   2.250   4.675   7.635 -0.2003 -0.4343  0.3867
   49MOL    C8615542   2.184   4.617   7.510 -0.9625  0.7178  0.2665
   49MOL    C8715543   2.169   4.713   7.734  0.7425  0.3452  0.4596
   49MOL    H8815544   2.413   4.505   7.694 -0.2862  0.4716  1.0370
   49MOL    H8915545   2.409   4.531   7.441  0.6028  2.7373  0.4462
   49MOL    H9015546   2.499   4.402   7.513 -0.8173  0.8347  2.4253
   49MOL    H9115547   2.585   4.539   7.453  1.1963 -0.7799  0.6551
   49MOL    H9215548   2.406   4.764   7.732  0.4272  1.9130 -0.3352
   49MOL    H9315549   2.202   4.510   7.501  1.4189  1.1243  0.0014
   49MOL    H9415550   2.231   4.662   7.423 -0.2513  1.3795  0.9738
   49MOL    H9515551   2.077   4.636   7.500 -0.7706  1.8982  0.3998
   49MOL    H9615552   2.204   4.755   7.827 -1.2762  0.3127  1.2446
   49MOL    H9715553   2.062   4.697   7.731  0.6841  0.9260 -1.6492
   49MOL    C9815554   2.451   4.809   7.525 -1.1562  0.7814  0.0692
   49MOL    C9915555   2.601   4.834   7.547 -0.1927 -0.1919  0.0490
   49MOL   C10015556   2.372   4.940   7.493 -0.1743 -0.2471  0.0415
   49MOL   C10115557   2.385   4.971   7.350  0.4065  1.3566  0.2988
   49MOL   C10215558   2.308   4.900   7.247  0.1592 -1.0679  0.0376
   49MOL   C10315559   2.476   5.059   7.309  0.0049 -0.4327 -0.2855
   49MOL   H10415560   2.456   4.757   7.429 -1.4118 -1.5896  1.3181
   49MOL   H10515561   2.636   4.853   7.648 -1.2719  1.2167  0.1807
   49MOL   H10615562   2.633   4.919   7.487  1.0237 -0.4194  0.3748
   49MOL   H10715563   2.661   4.751   7.511 -1.5759 -1.0817 -0.2768
   49MOL   H10815564   2.267   4.917   7.511 -0.1466  0.7544  1.6113
   49MOL   H10915565   2.345   4.919   7.146  0.3589 -1.3819  0.0533
   49MOL   H11015566   2.209   4.946   7.243  1.5470  1.9106 -1.3305
   49MOL   H11115567   2.298   4.793   7.265  0.3386 -0.9390  0.9111
   49MOL   H11215568   2.528   5.117   7.384 -0.1376 -1.0849  0.3223
   49MOL   H11315569   2.508   5.082   7.209 -0.2994  0.8998 -0.0904
   49MOL   C11415570   2.401   5.062   7.597  0.3532 -0.7891 -0.4117
   49MOL   C11515571   2.375   5.023   7.745 -0.7143 -0.3906  0.5499
   49MOL   C11615572   2.330   5.199   7.559 -0.6311 -0.4125  0.0441
   49MOL   C11715573   2.435   5.311   7.575  0.4044 -0.4083 -0.3382
   49MOL   C11815574   2.477   5.351   7.714  0.4252  0.0692 -1.5519
   49MOL   C11915575   2.492   5.371   7.476  0.1703 -0.6585  0.4206
   49MOL   H12015576   2.508   5.080   7.588  0.4047 -0.4017  0.8916
   49MOL   H12115577   2.463   4.970   7.779 -1.7277 -1.3654  1.7006
   49MOL   H12215578   2.285   4.967   7.772 -0.8307 -0.2383  0.4824
   49MOL   H12315579   2.372   5.116   7.801  2.6074  0.5025 -0.6086
   49MOL   H12415580   2.313   5.199   7.451 -0.9653  2.2380  0.0573
   49MOL   H12515581   2.526   5.269   7.766  1.0015  0.5533 -1.3307
   49MOL   H12615582   2.389   5.373   7.776  1.7552  0.0572  0.3821
   49MOL   H12715583   2.543   5.437   7.711 -0.9699  1.2517  0.1656
   49MOL   H12815584   2.472   5.356   7.371 -0.9538 -1.0305  0.6771
   49MOL   H12915585   2.575   5.435   7.504  1.0573 -1.2467 -0.8147
   49MOL   C13015586   2.188   5.231   7.620 -0.2958  0.2306 -0.3405
   49MOL   C13115587   2.090   5.125   7.572 -0.6934  0.1183 -0.3892
   49MOL   C13215588   2.127   5.373   7.595  1.3909 -0.0385 -0.3193
   49MOL   C13315589   2.044   5.419   7.715  0.0367  0.0978 -0.6877
   49MOL   C13415590   2.117   5.497   7.824 -0.2450  0.1888 -0.1973
   49MOL   C13515591   1.918   5.386   7.734  0.1048 -0.0015 -0.6716
   49MOL   H13615592   2.209   5.226   7.727 -1.2341  0.7316 -0.1270
   49MOL   H13715593   2.114   5.099   7.469 -1.3330  1.8040 -0.9891
   49MOL   H13815594   1.985   5.141   7.595 -0.7072 -1.3983  0.6484
   49MOL   H13915595   2.111   5.041   7.637 -0.8020  1.5122  1.4950
   49MOL   H14015596   2.212   5.441   7.602  1.6878 -0.4000 -0.3717
   49MOL   H14115597   2.050   5.552   7.889 -0.4051  0.4325 -0.5646
   49MOL   H14215598   2.188   5.563   7.773 -1.1574  0.3896 -1.2366
   49MOL   H14315599   2.187   5.439   7.883 -0.2623  0.3557 -0.0129
   49MOL   H14415600   1.864   5.315   7.674 -0.3333 -1.5784  1.5225
   49MOL   H14515601   1.856   5.428   7.812 -0.9221 -3.1044  0.2376
   49MOL   C14615602   2.057   5.410   7.457  0.4290 -0.1498 -0.2899
   49MOL   C14715603   2.136   5.357   7.329 -0.5251 -0.2721 -1.0793
   49MOL   C14815604   2.015   5.560   7.436  0.1509 -0.1163 -0.7859
   49MOL   C14915605   1.880   5.574   7.374  0.2709  0.3922  0.0260
   49MOL   C15015606   1.874   5.560   7.220  0.7177 -0.6862 -0.9939
   49MOL   C15115607   1.770   5.600   7.446 -0.1766 -0.4233 -0.1515
   49MOL   H15215608   1.968   5.347   7.459  0.6985 -0.5207  0.0343
   49MOL   H15315609   2.236   5.394   7.308 -0.9255  0.7075 -1.2459
   49MOL   H15415610   2.078   5.388   7.242 -2.7654 -0.1815  0.4371
   49MOL   H15515611   2.131   5.249   7.309 -0.2429 -0.5688  0.4200
   49MOL   H15615612   2.002   5.610   7.532 -0.5110 -1.8256  0.0402
   49MOL   H15715613   1.886   5.458   7.183  1.4403 -0.2955 -1.8479
   49MOL   H15815614   1.945   5.619   7.162 -0.4498  1.9038  0.1457
   49MOL   H15915615   1.777   5.590   7.181  0.9443  1.7803  0.2454
   49MOL   H16015616   1.774   5.606   7.554  2.2226  0.0779 -0.2370
   49MOL   H16115617   1.673   5.617   7.401 -0.4565  1.2471  1.0020
   49MOL   C16215618   2.118   5.659   7.377 -0.0449 -0.0558 -0.6887
   49MOL   C16315619   2.241   5.663   7.469  0.2276 -0.0580  0.2252
   49MOL   C16415620   2.063   5.809   7.356  0.0366 -0.2723 -0.2026
   49MOL   C16515621   2.134   5.871   7.238 -0.5337 -0.2053  0.3207
   49MOL   C16615622   2.080   5.855   7.098  0.2289 -0.7212  0.1315
   49MOL   C16715623   2.262   5.926   7.253 -0.1802  0.4864 -0.0322
   49MOL   H16815624   2.157   5.624   7.281  0.7827  1.9989 -1.1269
   49MOL   H16915625   2.213   5.672   7.574  0.8676  0.8469  0.3239
   49MOL   H17015626   2.311   5.743   7.446  0.0473  0.3922  1.2337
   49MOL   H17115627   2.303   5.573   7.457 -0.1880 -0.2500 -0.5388
   49MOL   H17215628   1.959   5.802   7.325 -0.8736  0.6510  2.4520
   49MOL   H17315629   1.971   5.866   7.091  0.1323 -1.6380  0.2077
   49MOL   H17415630   2.096   5.753   7.064 -1.0930 -0.4067 -1.4898
   49MOL   H17515631   2.126   5.927   7.030 -0.3410 -0.0822  0.4024
   49MOL   H17615632   2.308   5.933   7.350 -0.8395 -2.3490  0.5098
   49MOL   H17715633   2.324   5.953   7.168 -1.9908 -1.7763 -2.1397
   49MOL   C17815634   2.056   5.912   7.477 -0.7222  0.3294  0.2239
   49MOL   C17915635   1.969   5.865   7.594  0.0879 -0.8021 -0.0714
   49MOL   C18015636   2.016   6.060   7.443 -0.0715  0.4435  0.4102
   49MOL   C18115637   2.096   6.147   7.548 -0.1035  0.5245  0.1923
   49MOL   C18215638   2.240   6.187   7.518 -0.1634  0.4246  0.7305
   49MOL   C18315639   2.043   6.201   7.658  0.1014  0.3266  0.3771
   49MOL   H18415640   2.155   5.905   7.522 -0.7896 -3.2712 -0.0541
   49MOL   H18515641   2.006   5.785   7.659 -4.5849 -2.5591  0.5799
   49MOL   H18615642   1.875   5.830   7.552 -0.0105 -0.3405 -0.2380
   49MOL   H18715643   1.955   5.949   7.662  1.0252 -2.6804  2.5551
   49MOL   H18815644   2.061   6.087   7.348  0.6144  0.6949  0.8111
   49MOL   H18915645   2.303   6.098   7.512 -0.9430 -0.0786 -0.1532
   49MOL   H19015646   2.291   6.256   7.585  1.5455  0.9018 -0.9983
   49MOL   H19115647   2.255   6.249   7.429 -0.6058  1.7004  1.5358
   49MOL   H19215648   1.942   6.183   7.692  0.6158 -1.1155  1.2212
   49MOL   H19315649   2.111   6.258   7.720  0.2615  0.4887  0.0490
   49MOL   C19415650   1.862   6.099   7.417 -0.0423  0.2630 -0.3979
   49MOL   C19515651   1.784   5.995   7.340  0.2398 -0.0073  0.3181
   49MOL   C19615652   1.856   6.247   7.376  0.5053 -0.1244 -0.5837
   49MOL   C19715653   1.744   6.320   7.449  0.1126 -0.1880 -0.0957
   49MOL   C19815654   1.604   6.282   7.419 -0.2677 -0.1649 -0.0877
   49MOL   C19915655   1.772   6.414   7.542 -0.6431  0.2195 -0.4817
   49MOL   H20015656   1.826   6.099   7.520  1.3733  0.9030  0.1092
   49MOL   H20115657   1.822   5.994   7.238  1.2707 -0.4290  0.7011
   49MOL   H20215658   1.678   6.018   7.330 -0.4526 -1.9280  2.6485
   49MOL   H20315659   1.772   5.900   7.393  0.3951  0.2299  0.7825
   49MOL   H20415660   1.950   6.293   7.407  0.8844 -0.3526 -1.3645
   49MOL   H20515661   1.588   6.284   7.311 -0.6922  3.1429 -0.0143
   49MOL   H20615662   1.529   6.354   7.451  0.2531  0.3976 -0.1027
   49MOL   H20715663   1.592   6.184   7.464  0.5749 -0.3642 -0.2804
   49MOL   H20815664   1.874   6.444   7.561 -0.0903 -1.6671 -0.4716
   49MOL   H20915665   1.699   6.469   7.601 -0.7525  1.3900 -1.6783
   49MOL   C21015666   1.867   6.285   7.216 -0.4094 -0.2269 -0.3414
   49MOL   C21115667   1.995   6.237   7.153 -0.1024  0.1586 -0.0960
   49MOL   C21215668   1.838   6.435   7.181  0.1098 -0.4939  0.0172
   49MOL   C21315669   1.760   6.456   7.045 -0.7456  0.3521 -0.8687
   49MOL   C21415670   1.618   6.520   7.052  0.1441  0.5987 -1.1595
   49MOL   C21515671   1.817   6.431   6.925  0.0396 -0.1539  0.3043
   49MOL   H21615672   1.790   6.232   7.161 -1.6798  1.2066  0.0152
   49MOL   H21715673   1.988   6.251   7.045 -0.9609 -1.9268 -0.3260
   49MOL   H21815674   1.997   6.128   7.148 -1.6136  0.1357 -0.2571
   49MOL   H21915675   2.093   6.274   7.184  0.0447 -1.4492  1.4527
   49MOL   H22015676   1.761   6.466   7.251  2.7288  0.3903  2.5873
   49MOL   H22115677   1.567   6.492   7.144  1.7318 -2.4336 -1.1439
   49MOL   H22215678   1.564   6.483   6.965 -0.0244 -1.0230 -0.3893
   49MOL   H22315679   1.619   6.629   7.055  1.7767  0.5935 -0.8285
   49MOL   H22415680   1.918   6.397   6.908 -0.1440 -0.4364 -0.2225
   49MOL   H22515681   1.745   6.460   6.849 -1.3951  1.4199  2.1755
   49MOL   C22615682   1.957   6.539   7.192  0.2322 -0.1157 -0.2838
   49MOL   C22715683   2.040   6.528   7.313 -0.6863  1.2066 -0.1473
   49MOL   C22815684   1.926   6.688   7.156  0.4146 -0.1347 -0.2743
   49MOL   C22915685   2.037   6.744   7.060  0.2899 -0.4071 -0.0124
   49MOL   C23015686   2.005   6.756   6.917 -0.1398  0.2583  0.1267
   49MOL   C23115687   2.164   6.769   7.097  0.2048  0.0320 -0.2627
   49MOL   H23215688   2.027   6.510   7.114 -0.5082 -0.3821 -0.8594
   49MOL   H23315689   2.128   6.592   7.310  0.6492 -0.5577  0.3676
   49MOL   H23415690   2.092   6.433   7.322 -2.5895 -0.1755 -3.1213
   49MOL   H23515691   1.984   6.536   7.406 -0.6163 -2.7974  0.3197
   49MOL   H23615692   1.836   6.686   7.096 -0.2747 -0.5086  0.7542
   49MOL   H23715693   2.082   6.812   6.864  0.0364 -1.4459 -1.4946
   49MOL   H23815694   1.913   6.813   6.904  0.1308  0.9398  1.1632
   49MOL   H23915695   1.983   6.656   6.879  0.2567 -0.0537  0.7144
   49MOL   H24015696   2.208   6.765   7.195 -1.5204 -0.5393  0.5025
   49MOL   H24115697   2.232   6.806   7.021  2.5245 -0.7649  1.3495
   49MOL   C24215698   1.895   6.792   7.270 -0.1145 -0.1022  0.1051
   49MOL   C24315699   1.774   6.729   7.348  0.0485  0.0018 -0.5096
   49MOL   C24415700   1.862   6.940   7.222 -0.3437  0.0745  0.6608
   49MOL   C24515701   1.987   7.023   7.193 -0.8512 -0.0273  0.3603
   49MOL   C24615702   1.997   7.111   7.066 -0.5956  0.0238  0.1037
   49MOL   C24715703   2.097   7.027   7.279  0.6595 -0.5088  0.5386
   49MOL   H24815704   1.971   6.796   7.348  0.1844 -0.3647 -0.1715
   49MOL   H24915705   1.732   6.801   7.418 -0.5519  0.5052 -1.3766
   49MOL   H25015706   1.797   6.634   7.396  0.0405 -0.0247 -0.5587
   49MOL   H25115707   1.692   6.714   7.278  0.9084  0.3671 -1.6205
   49MOL   H25215708   1.821   6.919   7.123  2.2923 -1.0560 -0.2263
   49MOL   H25315709   2.024   7.048   6.981  0.2214 -0.5878  0.8155
   49MOL   H25415710   2.082   7.179   7.063  0.8899 -1.8100  0.2299
   49MOL   H25515711   1.901   7.162   7.057 -1.0767 -0.9301 -0.1920
   49MOL   H25615712   2.106   6.968   7.369 -0.1221  1.7235  2.1465
   49MOL   H25715713   2.172   7.103   7.261 -0.4370  0.9789  2.0750
   49MOL   C25815714   1.761   7.037   7.301  0.1791  1.3301  0.7899
   49MOL   C25915715   1.806   7.062   7.453 -0.9532  0.2572  0.4277
   49MOL   C26015716   1.607   7.013   7.287  0.1474  0.4256 -0.0024
   49MOL   C26115717   1.557   7.027   7.139 -0.0629  0.9271 -1.4136
   49MOL   C26215718   1.550   7.158   7.067  0.0976  0.2813 -0.4542
   49MOL   C26315719   1.532   6.916   7.077  0.7214 -0.6816 -0.0884
   49MOL   H26415720   1.774   7.137   7.259 -0.7053  1.1439  0.0449
   49MOL   H26515721   1.798   6.979   7.523 -1.4082 -1.3979 -1.5416
   49MOL   H26615722   1.753   7.143   7.504  1.1265  2.8840 -1.4175
   49MOL   H26715723   1.911   7.090   7.451 -0.3103 -2.0614  0.7282
   49MOL   H26815724   1.591   6.907   7.305 -1.3366  0.8023  0.9689
   49MOL   H26915725   1.632   7.220   7.102  0.3783 -0.4526  0.2169
   49MOL   H27015726   1.453   7.204   7.087 -0.0537  0.9895 -2.6992
   49MOL   H27115727   1.562   7.151   6.959 -0.3202  3.2460 -0.7233
   49MOL   H27215728   1.550   6.819   7.121  0.5445 -0.6838 -0.0213
   49MOL   H27315729   1.493   6.920   6.976 -0.8957 -4.7296  0.3035
   49MOL   C27415730   1.501   7.089   7.381  0.3022 -0.2653 -0.1188
   49MOL   C27515731   1.531   7.246   7.388  0.3393  0.4759  0.0827
   49MOL   C27615732   1.483   7.024   7.524  0.0017  0.2449  0.4198
   49MOL   C27715733   1.454   6.875   7.520 -0.0680 -0.1843  0.0384
   49MOL   C27815734   1.520   6.799   7.633  0.4255  0.0732  0.8203
   49MOL   C27915735   1.382   6.819   7.424 -0.0737 -0.5922 -0.8061
   49MOL   H28015736   1.403   7.079   7.333 -0.6915  2.0894  1.3158
   49MOL   H28115737   1.591   7.277   7.473 -1.1215  1.1731  0.8894
   49MOL   H28215738   1.434   7.296   7.395 -0.3053 -0.7146  0.0133
   49MOL   H28315739   1.582   7.285   7.300 -0.4628 -0.3064 -0.7553
   49MOL   H28415740   1.584   7.038   7.562 -0.1606  0.6859  0.6959
   49MOL   H28515741   1.519   6.691   7.618 -0.2310  0.4716 -2.3694
   49MOL   H28615742   1.488   6.827   7.734 -2.2785  0.8492 -0.2079
   49MOL   H28715743   1.627   6.816   7.641  0.5343  1.0533 -2.1979
   49MOL   H28815744   1.328   6.861   7.341 -0.1620 -2.0162 -1.4892
   49MOL   H28915745   1.368   6.712   7.423 -0.0266 -0.5964 -2.1757
   49MOL   C29015746   1.383   7.093   7.616  0.0512 -0.2384 -0.2354
   49MOL   C29115747   1.248   7.131   7.546  0.5351 -1.1102  0.5052
   49MOL   C29215748   1.435   7.209   7.705  0.4461 -0.1495  0.3230
   49MOL   C29315749   1.573   7.170   7.769 -0.2727 -0.6809  0.1879
   49MOL   C29415750   1.585   7.062   7.871  0.7208 -0.1805 -0.4685
   49MOL   C29515751   1.682   7.249   7.749  0.5298  0.1840  0.4088
   49MOL   H29615752   1.356   7.015   7.687  1.0763 -0.4657 -0.0884
   49MOL   H29715753   1.209   7.044   7.492  1.3021  0.6145 -2.9624
   49MOL   H29815754   1.251   7.208   7.469 -1.8145  0.2990  1.7822
   49MOL   H29915755   1.172   7.159   7.618 -0.3487 -0.8578 -0.5108
   49MOL   H30015756   1.456   7.291   7.637 -2.4763  0.2621 -0.1416
   49MOL   H30115757   1.500   6.994   7.864  0.4942  0.1697 -1.2167
   49MOL   H30215758   1.582   7.108   0.078  0.4684  3.2564 -1.9954
   49MOL   H30315759   1.676   7.002   7.864  0.8401  0.0726 -1.1340
   49MOL   H30415760   1.685   7.331   7.678  0.3797 -0.4488 -0.3321
   49MOL   H30515761   1.775   7.215   7.792  0.7139 -0.8180 -0.7629
   49MOL   C30615762   1.340   7.254   7.814  0.0493  0.9243 -0.3737
   49MOL   C30715763   1.406   7.362   0.011  0.0084  0.1017  0.1403
   49MOL   C30815764   1.272   7.150   0.015  0.9174  0.3284 -0.7106
   49MOL   C30915765   1.159   7.188   0.103  0.2157 -0.3636  0.0900
   49MOL   C31015766   1.027   7.224   0.031  0.6288  0.4470 -0.5348
   49MOL   C31115767   1.159   7.198   0.232 -0.4370  0.8241  0.1188
   49MOL   H31215768   1.259   7.310   7.769 -1.3597  0.3338  1.3688
   49MOL   H31315769   1.328   7.427   0.052 -0.2952 -0.2093  0.0637
   49MOL   H31415770   1.476   7.426   7.849 -1.3467  2.5192  1.1386
   49MOL   H31515771   1.461   7.309   0.089 -0.0277 -0.1137  0.0207
   49MOL   H31615772   1.218   7.077   7.847 -0.0428 -0.0576  0.5998
   49MOL   H31715773   0.956   7.265   0.102  1.9627 -0.1762  1.2082
   49MOL   H31815774   0.998   7.135   7.867 -0.2415 -0.2882  1.0427
   49MOL   H31915775   1.040   7.318   7.869  3.1818 -0.0809 -0.9282
   49MOL   H32015776   1.253   7.185   0.284 -0.2537 -0.7060 -0.5974
   49MOL   H32115777   1.067   7.216   0.285 -0.0388  1.2508  0.6862
   49MOL   H32215778   1.332   7.083   0.078  0.0757  0.6105  0.3928
   50MOL     C115779   4.560   1.412   4.416  0.4689 -0.2335 -0.0333
   50MOL     C215780   4.478   1.492   4.522  0.5793  0.6475  0.2829
   50MOL     C315781   4.702   1.371   4.465 -0.1088  0.3688  0.2137
   50MOL     C415782   4.777   1.493   4.519 -0.1258  0.2641  0.1047
   50MOL     C515783   4.798   1.614   4.434  0.1395  0.3703  0.0660
   50MOL     C615784   4.809   1.492   4.650 -1.2031 -0.5969 -0.0978
   50MOL     H715785   4.514   1.316   4.395  0.3277 -0.2986  0.5621
   50MOL     H815786   4.480   1.452   4.624 -1.5444  1.1241  0.5273
   50MOL     H915787   4.376   1.506   4.488  1.0459  0.2409 -1.3221
   50MOL    H1015788   4.516   1.593   4.538  1.0530  0.3589  1.0620
   50MOL    H1115789   4.683   1.296   4.542  1.9465 -0.7046 -0.2978
   50MOL    H1215790   4.720   1.651   4.368  0.3945 -1.6524 -1.4074
   50MOL    H1315791   4.877   1.584   4.366  0.2562 -0.3525  0.5140
   50MOL    H1415792   4.832   1.695   4.499 -0.2799  2.1210 -1.8348
   50MOL    H1515793   4.800   1.402   4.709  1.5409 -1.0117 -0.2768
   50MOL    H1615794   4.867   1.568   4.700 -1.3365  0.5401 -1.6570
   50MOL    H1715795   4.568   1.467   4.322 -0.2211  0.6655  0.4171
   50MOL    C1815796   4.786   1.301   4.356  0.0577  0.2296 -0.3866
   50MOL    C1915797   4.708   1.187   4.282  0.0059 -0.0092  0.1603
   50MOL    C2015798   4.934   1.269   4.386 -0.7141  0.2837 -0.1434
   50MOL    C2115799   5.032   1.310   4.267 -0.1947 -0.0404  0.0702
   50MOL    C2215800   5.010   1.241   4.133  0.1158  0.5682  0.7006
   50MOL    C2315801   5.138   1.394   4.291  0.8756  0.2812  0.2877
   50MOL    H2415802   4.801   1.382   4.285  0.2341  0.7357  0.2178
   50MOL    H2515803   4.666   1.117   4.353  0.1029 -0.2172  0.0118
   50MOL    H2615804   4.771   1.129   4.215  2.3312 -1.6179  3.5865
   50MOL    H2715805   4.629   1.232   4.221 -1.5549 -3.7169 -0.6462
   50MOL    H2815806   4.962   1.339   4.465 -1.6822  0.5887 -0.0544
   50MOL    H2915807   5.104   1.251   4.080  1.2394 -2.9276  1.8749
   50MOL    H3015808   4.928   1.291   4.082  0.3310  1.0382  0.8074
   50MOL    H3115809   4.990   1.135   4.151 -0.7549  1.0348  2.6842
   50MOL    H3215810   5.149   1.443   4.387  0.0836  1.7777 -0.3705
   50MOL    H3315811   5.205   1.418   4.210 -0.9194 -0.1850 -1.3567
   50MOL    C3415812   4.964   1.122   4.444 -0.1348 -0.0590 -0.5026
   50MOL    C3515813   4.866   1.082   4.557 -0.3485  0.2692  0.3647
   50MOL    C3615814   5.115   1.082   4.473  0.3368  0.1007  0.1994
   50MOL    C3715815   5.151   0.945   4.413  0.1925 -0.1166  0.8656
   50MOL    C3815816   5.219   0.950   4.279 -0.3656 -0.0649  0.1558
   50MOL    C3915817   5.142   0.833   4.486  0.3175 -0.2702 -0.2650
   50MOL    H4015818   4.933   1.062   4.358 -0.1565 -0.8438  0.0591
   50MOL    H4115819   4.761   1.070   4.529 -0.8045  2.4668  1.0101
   50MOL    H4215820   4.866   1.132   4.654  1.8562  0.7948  0.1120
   50MOL    H4315821   4.896   0.981   4.585 -1.3069  0.2206  1.2598
   50MOL    H4415822   5.173   1.147   4.408  0.8093  0.5101  1.0340
   50MOL    H4515823   5.316   0.999   4.281 -0.4067  0.0165  0.1293
   50MOL    H4615824   5.153   0.994   4.203 -0.9130 -1.8357 -0.4243
   50MOL    H4715825   5.208   0.854   4.227 -1.6390  0.8163 -1.2630
   50MOL    H4815826   5.112   0.832   4.589 -0.5512  0.9516 -0.4851
   50MOL    H4915827   5.177   0.741   4.442  0.9614  0.0615 -0.4484
   50MOL    C5015828   5.163   1.112   4.622 -0.1843  0.1743 -0.0263
   50MOL    C5115829   5.140   1.259   4.649  0.6221 -0.1684 -0.2571
   50MOL    C5215830   5.310   1.065   4.659 -0.0055 -0.4625  0.4161
   50MOL    C5315831   5.305   1.004   4.799 -0.2039  0.2957  0.2800
   50MOL    C5415832   5.307   1.102   4.920  0.0261 -0.0672  0.5756
   50MOL    C5515833   5.304   0.869   4.821 -0.0346 -0.0117 -0.1344
   50MOL    H5615834   5.102   1.049   4.687 -0.9819 -1.3006 -2.1695
   50MOL    H5715835   5.180   1.329   4.577  0.5851  0.0312 -0.0825
   50MOL    H5815836   5.183   1.281   4.747  2.4082 -2.8183 -0.3670
   50MOL    H5915837   5.039   1.289   4.676  1.4902  2.4026  0.2794
   50MOL    H6015838   5.330   0.981   4.593  2.1542  1.7916 -1.9364
   50MOL    H6115839   5.202   1.107   4.950 -0.0802 -1.4843  0.4790
   50MOL    H6215840   5.365   1.193   4.906  0.5215 -0.6652 -1.3828
   50MOL    H6315841   5.349   1.058   5.010  0.7985 -1.3123 -0.3868
   50MOL    H6415842   5.294   0.798   4.740 -3.4398 -0.6489  0.7701
   50MOL    H6515843   5.303   0.817   4.915 -0.1324  1.1405  0.5067
   50MOL    C6615844   5.434   1.157   4.638  1.4329 -0.0011  0.9419
   50MOL    C6715845   5.433   1.214   4.492  0.2153 -0.1707 -0.3651
   50MOL    C6815846   5.574   1.097   4.681  0.3578 -0.4170 -0.1615
   50MOL    C6915847   5.657   1.217   4.744 -0.6294 -0.1462  1.0261
   50MOL    C7015848   5.712   1.320   4.650  0.2281 -0.0300 -0.0285
   50MOL    C7115849   5.681   1.226   4.876 -0.4686 -0.1952  0.0766
   50MOL    H7215850   5.415   1.243   4.702 -0.4627  0.1488  0.1825
   50MOL    H7315851   5.349   1.281   4.473 -1.5724 -2.0965  0.5735
   50MOL    H7415852   5.428   1.140   4.413 -1.4632 -1.9338  1.3135
   50MOL    H7515853   5.522   1.272   4.468  0.2868  0.4098  1.2073
   50MOL    H7615854   5.551   1.043   4.773 -1.1618 -1.2066 -0.9861
   50MOL    H7715855   5.748   1.263   4.564 -0.2234 -1.2991  0.6203
   50MOL    H7815856   5.805   1.363   4.689 -1.0320  0.8977  2.0024
   50MOL    H7915857   5.640   1.399   4.629 -0.5966 -0.4701  1.1159
   50MOL    H8015858   5.642   1.153   4.946  2.7803 -0.6667  1.4669
   50MOL    H8115859   5.744   1.301   4.922  1.2238 -1.4168 -0.1841
   50MOL    C8215860   5.660   1.005   4.586  0.0443 -0.0861  0.7749
   50MOL    C8315861   5.587   0.906   4.495  0.0219  0.2606 -0.5738
   50MOL    C8415862   5.787   0.945   4.653  0.0775 -0.6602 -0.0134
   50MOL    C8515863   5.912   0.943   4.556  0.4315 -0.0645 -0.0873
   50MOL    C8615864   6.011   1.061   4.556  0.3176 -0.1213 -0.0306
   50MOL    C8715865   5.935   0.842   4.474  0.2813 -0.2310 -0.2246
   50MOL    H8815866   5.706   1.070   4.511 -2.8362 -0.1959 -1.1658
   50MOL    H8915867   5.657   0.833   4.455 -0.8834 -1.5212  1.0303
   50MOL    H9015868   5.548   0.958   4.407  0.1885 -0.5167 -1.1112
   50MOL    H9115869   5.501   0.850   4.532 -0.2580  0.2795 -1.1826
   50MOL    H9215870   5.810   1.023   4.725  2.0602 -0.1257 -1.1881
   50MOL    H9315871   6.084   1.057   4.636  1.3422  0.2405 -0.9335
   50MOL    H9415872   5.962   1.156   4.533  1.3610  0.1212 -1.3824
   50MOL    H9515873   6.067   1.035   4.466 -0.2484  1.9940 -1.0452
   50MOL    H9615874   5.860   0.764   4.471  0.0731 -0.0032 -1.0724
   50MOL    H9715875   6.020   0.834   4.409  0.2737  0.1117 -0.2769
   50MOL    C9815876   5.771   0.809   4.729 -0.0192  0.0170  0.4704
   50MOL    C9915877   5.639   0.804   4.810 -0.2051  0.3405  0.4385
   50MOL   C10015878   5.902   0.770   4.814  0.0141  0.2002 -0.3399
   50MOL   C10115879   5.903   0.616   4.829 -0.2789 -0.6793  0.9270
   50MOL   C10215880   5.982   0.544   4.718  0.0949 -0.2719  0.4010
   50MOL   C10315881   5.850   0.546   4.933  0.5377 -0.7057  0.0290
   50MOL   H10415882   5.745   0.736   4.653 -1.6101  0.2931  0.7225
   50MOL   H10515883   5.544   0.821   4.760 -0.8955  1.5264  2.0869
   50MOL   H10615884   5.639   0.866   4.900 -1.2847  0.5438  0.3011
   50MOL   H10715885   5.627   0.706   4.855  3.3285 -1.7168 -2.8460
   50MOL   H10815886   5.988   0.804   4.756 -1.5199  0.9753 -2.2196
   50MOL   H10915887   5.967   0.439   4.745 -0.2240 -0.0597  1.0438
   50MOL   H11015888   6.087   0.573   4.725 -0.1597  0.9991 -0.9384
   50MOL   H11115889   5.940   0.555   4.618  2.0245 -2.5979 -0.7328
   50MOL   H11215890   5.803   0.599   5.014  0.1593 -1.6184  0.4117
   50MOL   H11315891   5.858   0.438   4.929  2.8482 -0.5219 -1.4771
   50MOL   C11415892   5.923   0.844   4.954  0.6937  0.2048  0.1331
   50MOL   C11515893   5.937   0.994   4.932  0.5648  0.0805 -0.2316
   50MOL   C11615894   6.045   0.792   5.047  0.1762  0.2520 -0.7960
   50MOL   C11715895   6.006   0.809   5.195 -0.2758 -0.0958 -0.0651
   50MOL   C11815896   5.913   0.711   5.253  0.2099  0.1978  0.4430
   50MOL   C11915897   6.038   0.915   5.273 -0.4743 -0.8722 -0.0734
   50MOL   H12015898   5.830   0.837   5.010  1.8354 -1.1468  1.9255
   50MOL   H12115899   5.836   1.034   4.922 -0.6943 -2.7247  0.8612
   50MOL   H12215900   6.003   1.029   4.853  0.1180 -1.5837 -1.3723
   50MOL   H12315901   5.982   1.043   5.019 -0.1247  0.5775 -0.1453
   50MOL   H12415902   6.051   0.683   5.037 -1.4255  0.0657  0.1721
   50MOL   H12515903   5.940   0.608   5.231  1.2802  0.5990 -0.1551
   50MOL   H12615904   5.808   0.729   5.226  0.5962 -0.1460 -1.3745
   50MOL   H12715905   5.908   0.717   5.361  0.9095 -0.2608  0.5045
   50MOL   H12815906   6.089   0.995   5.221 -3.1048  1.3333  0.6215
   50MOL   H12915907   6.025   0.932   5.379  1.1950  0.9713 -0.1393
   50MOL   C13015908   6.191   0.849   5.013  0.1164 -0.7333 -0.0621
   50MOL   C13115909   6.240   0.830   4.866  0.6950  0.2134 -0.0083
   50MOL   C13215910   6.301   0.812   5.125  0.9899 -0.6584  0.1470
   50MOL   C13315911   6.393   0.936   5.150 -0.3915 -0.5120  0.5046
   50MOL   C13415912   6.489   0.979   5.041  0.4395  1.1288 -0.0188
   50MOL   C13515913   6.401   1.002   5.266  0.0315  0.0408  0.3629
   50MOL   H13615914   6.182   0.957   5.020 -2.4942 -0.8236 -1.3465
   50MOL   H13715915   6.192   0.901   4.798 -0.5122  0.1226  0.7337
   50MOL   H13815916   6.217   0.731   4.826 -0.4665  0.1670  0.7545
   50MOL   H13915917   6.348   0.846   4.858  0.6590  2.5787  3.4103
   50MOL   H14015918   6.253   0.789   5.220  0.1825 -1.1253 -0.3727
   50MOL   H14115919   6.546   0.905   4.984  0.5146  2.4215 -1.6508
   50MOL   H14215920   6.572   1.015   5.101  0.9237  0.0660 -0.0244
   50MOL   H14315921   6.466   1.064   4.977 -0.0627  0.0076 -1.3828
   50MOL   H14415922   6.349   0.980   5.358 -0.3331 -0.6960 -0.0131
   50MOL   H14515923   6.475   1.080   5.281 -0.6970  0.7936  0.0589
   50MOL   C14615924   6.376   0.667   5.103  0.3942 -0.0714  0.5214
   50MOL   C14715925   6.290   0.546   5.061 -0.0441  0.3518  0.0046
   50MOL   C14815926   6.487   0.623   5.210 -0.0647  0.2107  0.1625
   50MOL   C14915927   6.615   0.568   5.141  0.2486  0.2105  0.2650
   50MOL   C15015928   6.709   0.661   5.080 -0.8414 -0.0115  0.1224
   50MOL   C15115929   6.638   0.438   5.130 -0.2952  0.1026 -0.0032
   50MOL   H15215930   6.447   0.694   5.025  0.2151  2.1052  1.0705
   50MOL   H15315931   6.209   0.529   5.131 -0.3695  1.6234 -0.0496
   50MOL   H15415932   6.346   0.452   5.059 -0.1292  0.2951  0.3311
   50MOL   H15515933   6.251   0.563   4.961  0.3163  0.7176 -0.0733
   50MOL   H15615934   6.513   0.720   5.250 -1.6365  2.3885 -3.8397
   50MOL   H15715935   6.811   0.623   5.072 -1.1657 -0.7231 -0.8360
   50MOL   H15815936   6.706   0.756   5.134 -0.3796  1.7188 -2.7454
   50MOL   H15915937   6.664   0.690   4.985  0.4216  1.6669  0.0103
   50MOL   H16015938   6.568   0.367   5.171  1.8386 -1.7120  0.6158
   50MOL   H16115939   6.724   0.398   5.079 -1.2273 -1.2417 -0.5355
   50MOL   C16215940   6.439   0.551   5.335  0.1895  0.1896 -0.2081
   50MOL   C16315941   6.311   0.602   5.388  0.5748 -1.0589  0.4491
   50MOL   C16415942   6.553   0.535   5.449 -0.0384  0.7663  0.0542
   50MOL   C16515943   6.559   0.386   5.475  0.1084  0.1958 -0.6874
   50MOL   C16615944   6.447   0.332   5.559 -0.5466  0.2620 -0.0827
   50MOL   C16715945   6.663   0.309   5.435 -0.5941  0.3028 -0.0642
   50MOL   H16815946   6.401   0.458   5.293  1.1774 -1.3111  2.1841
   50MOL   H16915947   6.304   0.705   5.422  0.8446 -0.8377 -0.1635
   50MOL   H17015948   6.298   0.535   5.473  1.1227 -0.7213  0.7999
   50MOL   H17115949   6.224   0.581   5.325  0.9761  0.0179 -0.4800
   50MOL   H17215950   6.647   0.561   5.401 -1.8408  0.6463 -3.7848
   50MOL   H17315951   6.452   0.389   5.652 -1.1571 -0.4550  0.3926
   50MOL   H17415952   6.470   0.226   5.568  0.4808  0.3621 -1.2723
   50MOL   H17515953   6.343   0.345   5.530 -0.3025 -2.5101 -2.5262
   50MOL   H17615954   6.739   0.360   5.377 -1.0681  0.3429 -0.6619
   50MOL   H17715955   6.674   0.202   5.447 -0.2690  0.5155  1.5588
   50MOL   C17815956   6.550   0.642   5.566 -0.4362 -0.2406 -0.3164
   50MOL   C17915957   6.586   0.790   5.520 -0.3817  0.1040  0.2714
   50MOL   C18015958   6.619   0.602   5.704 -0.4646 -0.1149 -0.5006
   50MOL   C18115959   6.540   0.663   5.822  0.1022  0.1424 -1.2823
   50MOL   C18215960   6.429   0.575   5.875  0.2604  0.0073  0.3340
   50MOL   C18315961   6.568   0.781   5.884 -0.0895 -0.3416  0.3926
   50MOL   H18415962   6.445   0.653   5.595 -1.0509 -2.7444 -1.4173
   50MOL   H18515963   6.603   0.862   5.600  2.3660 -1.7074  1.3983
   50MOL   H18615964   6.513   0.834   5.453 -3.3776 -2.0971  1.9930
   50MOL   H18715965   6.686   0.789   5.477 -0.1756  0.1821  0.7353
   50MOL   H18815966   6.606   0.496   5.729  0.6098  0.3675  2.2810
   50MOL   H18915967   6.359   0.554   5.793  1.9717  1.1795 -1.4821
   50MOL   H19015968   6.367   0.622   5.952 -0.5167 -0.4083 -0.0243
   50MOL   H19115969   6.462   0.478   5.910 -0.4028  0.4590  2.2619
   50MOL   H19215970   6.640   0.852   5.845  0.7384 -0.7049  1.2534
   50MOL   H19315971   6.509   0.805   5.971  0.4660 -0.9780  0.9535
   50MOL   C19415972   6.770   0.625   5.722 -0.1657 -0.1427 -0.2298
   50MOL   C19515973   6.850   0.571   5.604  0.0584 -0.4378 -0.1547
   50MOL   C19615974   6.817   0.564   5.866  0.2222 -0.0023 -0.1550
   50MOL   C19715975   6.893   0.679   5.934  0.3328  0.2654  0.1677
   50MOL   C19815976   7.024   0.702   5.861 -0.0176 -0.0722 -0.4178
   50MOL   C19915977   6.846   0.755   6.034  0.5344  0.9978 -0.5075
   50MOL   H20015978   6.783   0.733   5.716  2.7257 -0.4906 -0.9624
   50MOL   H20115979   6.951   0.558   5.642 -0.0933 -1.4323 -0.0861
   50MOL   H20215980   6.855   0.637   5.518 -0.6608 -2.1132 -1.5043
   50MOL   H20315981   6.815   0.475   5.567  1.6687 -1.2687  0.4433
   50MOL   H20415982   6.726   0.563   5.926  0.6338 -0.7826  0.4652
   50MOL   H20515983   7.089   0.769   5.918 -0.2406  0.2382 -0.5277
   50MOL   H20615984   7.003   0.750   5.766  0.0789  1.0654  0.1222
   50MOL   H20715985   7.075   0.607   5.841 -3.9389 -2.4617  0.3702
   50MOL   H20815986   6.755   0.731   6.086  1.3243 -0.8187  0.0830
   50MOL   H20915987   6.906   0.839   6.069  2.1098  0.4886 -1.9254
   50MOL   C21015988   6.869   0.422   5.883 -0.0691  0.1219  0.3427
   50MOL   C21115989   6.787   0.312   5.807  0.4486  0.6970 -0.7153
   50MOL   C21215990   6.903   0.384   6.034  0.2716 -0.1124 -0.1947
   50MOL   C21315991   7.042   0.326   6.048  0.1952 -0.3034 -0.1002
   50MOL   C21415992   7.068   0.197   5.982 -0.7626  0.2401  0.1236
   50MOL   C21515993   7.132   0.400   6.113 -0.5611  0.3684 -1.3536
   50MOL   H21615994   6.957   0.415   5.820  0.7498 -1.2800  1.6157
   50MOL   H21715995   6.687   0.303   5.848  0.6802 -0.0343 -0.3025
   50MOL   H21815996   6.831   0.213   5.819  0.4436  0.7566 -0.2200
   50MOL   H21915997   6.776   0.331   5.700 -1.4573  0.7221 -0.5203
   50MOL   H22015998   6.907   0.480   6.084  1.0653  1.2648 -2.7798
   50MOL   H22115999   7.172   0.167   5.994 -0.5027  0.4794 -1.4902
   50MOL   H22216000   7.055   0.202   5.874 -0.6067 -1.3142  0.0194
   50MOL   H22316001   6.997   0.125   6.022 -3.8836  2.0706 -1.9182
   50MOL   H22416002   7.107   0.498   6.151  0.8261 -0.3084  1.4183
   50MOL   H22516003   7.227   0.352   6.128  0.2726  2.4124  0.1158
   50MOL   C22616004   6.788   0.312   6.112 -0.0381  0.4005 -1.2685
   50MOL   C22716005   6.654   0.398   6.115 -0.0016  0.1647 -0.5789
   50MOL   C22816006   6.817   0.235   6.247 -0.0589 -0.5139  0.3152
   50MOL   C22916007   6.720   0.120   6.269 -0.2729 -0.6961  0.9583
   50MOL   C23016008   6.748   7.884   6.187  0.3836  0.0363 -0.5446
   50MOL   C23116009   6.609   0.113   6.345  0.4204 -0.3597  0.0071
   50MOL   H23216010   6.762   0.224   6.052  1.5641  0.7834 -2.5394
   50MOL   H23316011   6.574   0.366   6.182  0.4021  1.5649  0.6042
   50MOL   H23416012   6.604   0.380   6.020 -1.5762  0.0020  0.2470
   50MOL   H23516013   6.680   0.502   6.133  0.6335 -0.2237  0.8603
   50MOL   H23616014   6.902   0.173   6.217  1.0015  1.0825 -0.0006
   50MOL   H23716015   6.835   7.866   6.124 -1.0255 -1.9793 -1.9988
   50MOL   H23816016   6.655   7.860   6.135 -0.8815  0.5013  1.4585
   50MOL   H23916017   6.764   7.805   6.261 -0.2206  0.6289  0.2326
   50MOL   H24016018   6.584   0.199   6.405 -0.1704 -1.3041  1.1298
   50MOL   H24116019   6.538   0.032   6.349 -1.1376  0.9848 -0.0089
   50MOL   C24216020   6.842   0.310   6.377 -0.2991  0.2740 -0.6260
   50MOL   C24316021   6.765   0.442   6.386  0.8042 -0.5507 -0.1905
   50MOL   C24416022   6.994   0.316   6.419  0.3889  0.4920  0.8268
   50MOL   C24516023   7.059   0.172   6.428 -0.4803  0.1120 -0.6557
   50MOL   C24616024   7.188   0.143   6.369  0.4376  0.1102  0.2364
   50MOL   C24716025   6.986   0.070   6.479  0.5837  0.2031  0.6069
   50MOL   H24816026   6.794   0.258   6.460 -1.0872  1.6690 -0.1792
   50MOL   H24916027   6.662   0.411   6.366  0.6283 -0.6872  0.8896
   50MOL   H25016028   6.783   0.521   6.313 -3.5945  0.8155  0.0849
   50MOL   H25116029   6.758   0.477   6.489  0.1138 -0.8450 -0.1338
   50MOL   H25216030   7.041   0.370   6.337 -0.2177  0.0240  0.1619
   50MOL   H25316031   7.258   0.227   6.361  0.2566  0.3072  0.7386
   50MOL   H25416032   7.186   0.103   6.267 -2.4970 -0.6358  0.5310
   50MOL   H25516033   7.233   0.073   6.439  0.5837  0.6205  0.6546
   50MOL   H25616034   6.887   0.081   6.521  0.7346  3.1750  0.2861
   50MOL   H25716035   7.022   7.861   6.473  2.0633  0.7935 -0.8400
   50MOL   C25816036   7.023   0.392   6.554  0.1658 -0.7012  0.1030
   50MOL   C25916037   6.945   0.332   6.677 -0.4195 -0.6983  0.2924
   50MOL   C26016038   7.037   0.552   6.556 -0.1534 -0.1551  0.0868
   50MOL   C26116039   7.095   0.607   6.421 -0.0969  0.5921 -0.3766
   50MOL   C26216040   7.232   0.562   6.381 -0.8158  0.5812 -0.0218
   50MOL   C26316041   7.028   0.696   6.342  0.3405  0.0920  0.1257
   50MOL   H26416042   7.131   0.379   6.566  0.3762  0.6890 -0.1758
   50MOL   H26516043   6.948   0.223   6.672  1.6184 -0.6769  0.7496
   50MOL   H26616044   6.848   0.379   6.695  0.0578  0.0241  1.0245
   50MOL   H26716045   7.001   0.353   6.768 -3.1644 -1.4918  2.2543
   50MOL   H26816046   6.931   0.577   6.548  0.4683  2.7910  0.3167
   50MOL   H26916047   7.307   0.599   6.451  2.0782  1.6106 -3.5234
   50MOL   H27016048   7.264   0.598   6.283 -0.8228 -0.9240 -0.5971
   50MOL   H27116049   7.240   0.453   6.382 -0.1855  0.5961 -2.1981
   50MOL   H27216050   6.931   0.725   6.378  1.6307  3.4612  1.1051
   50MOL   H27316051   7.056   0.742   6.248 -0.0311 -0.5276 -0.2862
   50MOL   C27416052   7.109   0.620   6.681 -0.0063  1.0654 -0.3725
   50MOL   C27516053   7.241   0.553   6.720  0.0428  0.0763  0.1696
   50MOL   C27616054   7.020   0.651   6.804 -0.0611 -0.9348 -0.2900
   50MOL   C27716055   6.881   0.711   6.768 -0.0535  0.1141 -0.5129
   50MOL   C27816056   6.875   0.854   6.712 -1.0747  0.0072  0.2616
   50MOL   C27916057   6.770   0.652   6.803  0.2167  0.2045  0.3699
   50MOL   H28016058   7.138   0.719   6.646  1.4655  0.8133  0.1193
   50MOL   H28116059   7.315   0.631   6.739 -1.1043  2.4242 -4.0954
   50MOL   H28216060   7.269   0.493   6.633  1.2035  0.0950  0.5227
   50MOL   H28316061   7.214   0.492   6.805 -1.1270 -0.4422 -0.5617
   50MOL   H28416062   6.996   0.558   6.855 -0.5480 -0.3894  0.4831
   50MOL   H28516063   6.893   0.922   6.794  3.0154  1.5717 -1.7675
   50MOL   H28616064   6.780   0.882   6.667 -1.2153  0.0056  0.5611
   50MOL   H28716065   6.957   0.878   6.644 -2.2852 -1.4287 -1.7683
   50MOL   H28816066   6.772   0.557   6.853  3.8441  1.0084  1.8970
   50MOL   H28916067   6.673   0.695   6.783  0.4218  0.3887 -0.2405
   50MOL   C29016068   7.081   0.741   6.917  0.3937  0.2746  0.8235
   50MOL   C29116069   7.171   0.864   6.873 -0.9995  0.3075 -0.5257
   50MOL   C29216070   7.162   0.665   7.034  0.4557  0.3203 -0.4338
   50MOL   C29316071   7.106   0.527   7.068  0.8597  0.6861 -0.4129
   50MOL   C29416072   6.961   0.537   7.112 -0.0126  0.5739  0.8322
   50MOL   C29516073   7.175   0.409   7.055  0.3540  0.6532  0.0154
   50MOL   H29616074   6.999   0.791   6.968  0.9342  0.6943  1.2830
   50MOL   H29716075   7.275   0.832   6.861 -0.2544  2.8540 -1.0785
   50MOL   H29816076   7.185   0.945   6.944  1.3897 -1.0335  0.5934
   50MOL   H29916077   7.137   0.919   6.786  0.3750  1.4742 -0.3360
   50MOL   H30016078   7.255   0.653   6.978 -0.0575  1.9379 -1.6935
   50MOL   H30116079   6.905   0.609   7.054  2.8091  0.8525 -1.6526
   50MOL   H30216080   6.961   0.563   7.218  1.6838  0.2512  0.9371
   50MOL   H30316081   6.923   0.439   7.083  1.3143  0.0655  0.7878
   50MOL   H30416082   7.277   0.409   7.022 -0.0168 -2.1219 -1.3177
   50MOL   H30516083   7.125   0.314   7.072 -0.5020  0.8417 -1.3529
   50MOL   C30616084   7.181   0.739   7.174 -0.6737 -0.5726 -0.2166
   50MOL   C30716085   7.081   0.849   7.203 -0.3184 -0.4302 -0.5229
   50MOL   C30816086   7.314   0.815   7.189  0.2716  0.6231 -0.1150
   50MOL   C30916087   7.438   0.732   7.211 -0.0121 -0.1438 -0.6120
   50MOL   C31016088   7.566   0.812   7.200 -0.3650  0.2455 -0.0866
   50MOL   C31116089   7.441   0.597   7.219  0.7477 -0.4526  0.5910
   50MOL   H31216090   7.173   0.667   7.255 -1.6987  0.0357  0.2352
   50MOL   H31316091   7.075   0.874   7.309  0.8946 -1.5348 -0.1932
   50MOL   H31416092   6.978   0.815   7.209 -1.2696  2.6769  4.3024
   50MOL   H31516093   7.090   0.938   7.140 -2.9023 -0.4363 -0.9755
   50MOL   H31616094   7.334   0.864   7.094 -0.3989  2.4710  0.6695
   50MOL   H31716095   7.556   0.907   7.252 -0.1743 -0.2731  0.9067
   50MOL   H31816096   7.587   0.825   7.094  0.9451  0.7877  0.2344
   50MOL   H31916097   7.659   0.760   7.223 -0.8890 -0.0217  1.5401
   50MOL   H32016098   7.346   0.544   7.222  1.2938 -1.4435  0.5875
   50MOL   H32116099   7.526   0.533   7.234  1.1759 -0.3901 -1.4431
   50MOL   H32216100   7.316   0.893   7.265  0.7433  0.7744 -0.2866
   51MOL     C116101   0.874   0.883   1.742  0.3569 -0.0668 -0.3606
   51MOL     C216102   0.965   0.764   1.732  0.3746  0.4339 -0.4372
   51MOL     C316103   0.750   0.851   1.833 -0.1434 -0.3857  0.0857
   51MOL     C416104   0.648   0.753   1.769 -0.7406  0.2109  0.6755
   51MOL     C516105   0.552   0.691   1.868 -0.4880 -0.2669 -0.2753
   51MOL     C616106   0.638   0.719   1.636 -0.1555 -0.3469 -0.6683
   51MOL     H716107   0.928   0.974   1.770 -1.4828  0.4981  1.4732
   51MOL     H816108   0.918   0.700   1.656  0.3712  0.9012 -0.8351
   51MOL     H916109   0.987   0.714   1.826 -0.8081  1.3041  0.3216
   51MOL    H1016110   1.057   0.797   1.683  0.6979  0.6368  0.3102
   51MOL    H1116111   0.779   0.790   1.918 -2.5786 -2.9736 -0.8745
   51MOL    H1216112   0.497   0.607   1.826  1.0788 -0.8822 -1.1059
   51MOL    H1316113   0.472   0.762   1.889  1.3220  0.9540  2.8306
   51MOL    H1416114   0.598   0.670   1.964 -0.2324 -1.6784 -0.6888
   51MOL    H1516115   0.699   0.761   1.558 -0.0445  0.1599 -0.3087
   51MOL    H1616116   0.550   0.665   1.603 -0.2209 -1.2587  0.9195
   51MOL    H1716117   0.828   0.905   1.646 -2.9160  0.9560  1.3551
   51MOL    C1816118   0.671   0.986   1.874  0.7840  0.1057  0.1751
   51MOL    C1916119   0.634   1.075   1.759 -0.1516  0.4926  0.3406
   51MOL    C2016120   0.729   1.073   1.992 -0.5543 -0.3729 -0.9020
   51MOL    C2116121   0.881   1.110   1.983  0.1677  0.6380 -0.1693
   51MOL    C2216122   0.915   1.227   1.888  0.9568 -0.1193 -0.3695
   51MOL    C2316123   0.989   1.054   2.039  0.6958  0.2303  0.2545
   51MOL    H2416124   0.577   0.945   1.912  0.6986  0.0742 -0.0668
   51MOL    H2516125   0.588   1.012   1.682  1.0165  0.8912 -0.6903
   51MOL    H2616126   0.727   1.107   1.712 -0.7669 -0.1203 -1.3428
   51MOL    H2716127   0.576   1.165   1.778  0.9793  1.7674 -2.0457
   51MOL    H2816128   0.684   1.172   1.991  0.4592  0.1889  2.5274
   51MOL    H2916129   0.943   1.198   1.787 -4.9519 -1.2660 -1.9023
   51MOL    H3016130   0.982   1.299   1.935  0.3402  0.5861 -0.5687
   51MOL    H3116131   0.821   1.281   1.884 -0.1657 -2.1175 -2.1211
   51MOL    H3216132   0.991   0.962   2.096 -0.7701 -0.8343 -1.3669
   51MOL    H3316133   1.087   1.098   2.027 -0.4142  3.1979  1.6667
   51MOL    C3416134   0.679   1.028   2.133  0.4862  0.6367 -0.1176
   51MOL    C3516135   0.712   0.884   2.168 -1.0330  0.0777 -0.0394
   51MOL    C3616136   0.542   1.074   2.186 -0.3033  0.8577  0.1519
   51MOL    C3716137   0.417   1.015   2.113 -0.2181  0.2026 -0.1740
   51MOL    C3816138   0.347   0.903   2.192  0.4570 -0.6006  0.4118
   51MOL    C3916139   0.372   1.062   1.998  0.1439 -0.7264  0.4902
   51MOL    H4016140   0.755   1.080   2.191  1.3872  0.4510 -1.1190
   51MOL    H4116141   0.743   0.890   2.272  1.4556  2.2848 -0.8577
   51MOL    H4216142   0.810   0.860   2.128 -0.9416  0.9780 -0.3567
   51MOL    H4316143   0.637   0.811   2.136 -0.7092  0.6974 -2.3422
   51MOL    H4416144   0.545   1.036   2.288 -2.1231 -1.2078 -0.5290
   51MOL    H4516145   0.276   0.948   2.262  0.4794  1.8541 -1.1019
   51MOL    H4616146   0.417   0.846   2.253  1.1507 -0.4837 -0.2640
   51MOL    H4716147   0.289   0.827   2.140 -1.8273  0.5812  1.1563
   51MOL    H4816148   0.442   1.129   1.951  1.4829 -2.9355 -0.7390
   51MOL    H4916149   0.278   1.039   1.952 -0.4261 -0.2311  1.3888
   51MOL    C5016150   0.520   1.232   2.214 -0.3700  0.3380  1.0119
   51MOL    C5116151   0.651   1.317   2.239  0.1190 -0.8486 -0.3863
   51MOL    C5216152   0.401   1.269   2.314  0.2295  0.2516 -0.0616
   51MOL    C5316153   0.308   1.383   2.267 -0.0620  0.4193 -0.4547
   51MOL    C5416154   0.370   1.523   2.252  0.1082  0.8454  0.4638
   51MOL    C5516155   0.184   1.365   2.236 -0.3844  0.4028 -0.2433
   51MOL    H5616156   0.484   1.271   2.118  0.7229  0.8367  0.8031
   51MOL    H5716157   0.698   1.294   2.334 -1.2223  0.4141  0.6004
   51MOL    H5816158   0.637   1.425   2.243 -0.7812 -0.9377 -0.9003
   51MOL    H5916159   0.728   1.291   2.166 -0.0035  1.5136 -1.3980
   51MOL    H6016160   0.341   1.178   2.310  0.8245 -0.3038  2.8115
   51MOL    H6116161   0.425   1.535   2.158  0.1438 -0.2773  0.3375
   51MOL    H6216162   0.434   1.558   2.333 -0.4677 -1.0896  1.7769
   51MOL    H6316163   0.284   1.588   2.268 -0.2476  0.2486  0.9758
   51MOL    H6416164   0.129   1.274   2.254  0.1883 -0.3170 -1.9651
   51MOL    H6516165   0.122   1.445   2.198  0.1418  0.5802 -0.7394
   51MOL    C6616166   0.437   1.272   2.467  0.0832 -0.3911  0.7288
   51MOL    C6716167   0.525   1.156   2.512  0.5940  0.2853 -0.7474
   51MOL    C6816168   0.315   1.307   2.564 -0.7979 -0.6993  0.2886
   51MOL    C6916169   0.356   1.431   2.650 -0.0354  0.3889 -0.0379
   51MOL    C7016170   0.447   1.405   2.771  0.2026  0.1821 -1.5226
   51MOL    C7116171   0.330   1.555   2.605 -0.0141  0.0466 -0.5546
   51MOL    H7216172   0.504   1.358   2.466 -1.1395  0.5816 -2.1670
   51MOL    H7316173   0.622   1.146   2.463  1.4467  1.1077  0.7580
   51MOL    H7416174   0.477   1.058   2.506  4.0009 -1.7441  2.5246
   51MOL    H7516175   0.557   1.171   2.615 -3.3327  1.0739  0.4418
   51MOL    H7616176   0.235   1.352   2.504  0.3859 -0.6969 -1.3242
   51MOL    H7716177   0.476   1.502   2.812  2.3545 -0.4204 -1.5894
   51MOL    H7816178   0.525   1.333   2.750 -0.2920 -1.0915  0.7824
   51MOL    H7916179   0.397   1.368   2.861 -0.4986 -0.3311 -2.1149
   51MOL    H8016180   0.267   1.575   2.521 -0.1586  2.5385  0.1212
   51MOL    H8116181   0.378   1.641   2.649 -1.3003  1.4906 -1.9456
   51MOL    C8216182   0.251   1.189   2.633 -0.5629  0.0349  0.5079
   51MOL    C8316183   0.192   1.090   2.528  0.3437  0.4606  0.1386
   51MOL    C8416184   0.151   1.238   2.740 -0.2323  0.5091 -0.0798
   51MOL    C8516185   0.151   1.128   2.847  0.2589  0.6041  0.3766
   51MOL    C8616186   0.258   1.143   2.957 -0.1312  0.1683 -0.4084
   51MOL    C8716187   0.064   1.022   2.855 -0.4939  0.3966  0.0150
   51MOL    H8816188   0.337   1.144   2.682  0.5038 -0.0842 -1.4215
   51MOL    H8916189   0.260   1.044   2.456 -0.8325  2.3658 -2.2587
   51MOL    H9016190   0.115   1.140   2.468 -0.9019 -1.1952  0.3159
   51MOL    H9116191   0.146   1.002   2.574  2.1297 -0.2121  0.6572
   51MOL    H9216192   0.190   1.326   2.792 -1.5521  0.4161  1.1006
   51MOL    H9316193   0.247   1.245   2.995  1.0961  0.5244 -0.9967
   51MOL    H9416194   0.357   1.118   2.920 -0.3986  0.7844 -1.5748
   51MOL    H9516195   0.233   1.069   3.032 -0.8617 -1.9033 -2.6385
   51MOL    H9616196   7.866   1.011   2.797 -0.8440  2.7398  0.0490
   51MOL    H9716197   0.074   0.942   2.927 -4.1194  0.5320  0.7705
   51MOL    C9816198   0.003   1.295   2.707  0.4136 -0.2147 -0.5082
   51MOL    C9916199   7.870   1.379   2.577  0.1327 -0.3431 -0.7689
   51MOL   C10016200   7.820   1.351   2.825  0.7349 -0.2875  0.0265
   51MOL   C10116201   7.669   1.306   2.820 -0.0171 -0.6017 -0.2940
   51MOL   C10216202   7.625   1.202   2.920 -0.8961 -0.8122 -0.4911
   51MOL   C10316203   7.581   1.365   2.739  0.5327 -0.2139  0.2639
   51MOL   H10416204   7.843   1.202   2.686  0.9617 -0.5930 -0.1847
   51MOL   H10516205   7.886   1.324   2.484 -2.7519  1.6293 -2.5117
   51MOL   H10616206   0.047   1.463   2.566 -0.7416  0.6262  0.9142
   51MOL   H10716207   7.771   1.422   2.563  1.0451  1.7292 -1.0763
   51MOL   H10816208   7.852   1.291   2.910 -0.8248 -2.6217 -0.9775
   51MOL   H10916209   7.527   1.166   2.889 -0.5935 -0.7249 -1.5805
   51MOL   H11016210   7.613   1.242   3.020  0.2359  0.3888 -0.8274
   51MOL   H11116211   7.692   1.116   2.926  1.2403  0.8590  0.1560
   51MOL   H11216212   7.597   1.442   2.665  0.5712 -2.5887 -2.2663
   51MOL   H11316213   7.481   1.326   2.744 -0.5193  1.9733 -2.1457
   51MOL   C11416214   7.840   1.502   2.863 -0.2927 -0.3744  0.7670
   51MOL   C11516215   0.096   1.556   2.847  0.3561  0.3111  0.2394
   51MOL   C11616216   7.774   1.529   3.006  0.3861 -0.0170 -0.8348
   51MOL   C11716217   7.663   1.637   2.989  0.0041 -0.5631  0.8603
   51MOL   C11816218   7.709   1.778   2.974 -0.1218  0.3191 -0.4020
   51MOL   C11916219   7.533   1.615   2.996  0.0801 -0.1689 -0.1793
   51MOL   H12016220   7.790   1.548   2.777 -0.1150  1.2405  1.5095
   51MOL   H12116221   0.163   1.502   2.913  0.9564  2.0628  1.0793
   51MOL   H12216222   0.108   1.662   2.868 -3.7275  0.7710  0.6375
   51MOL   H12316223   0.124   1.553   2.742  0.8925 -1.8303  0.4066
   51MOL   H12416224   7.720   1.439   3.035  0.0487  0.8698  1.4051
   51MOL   H12516225   7.789   1.808   3.041 -0.2151  1.9159 -0.9815
   51MOL   H12616226   7.627   1.848   2.990 -1.4073 -1.0345 -0.9518
   51MOL   H12716227   7.755   1.791   2.876  2.3845 -1.4136  0.5031
   51MOL   H12816228   7.500   1.513   3.011 -0.0115 -0.1911 -0.5173
   51MOL   H12916229   7.445   1.678   2.987  2.0909  2.8606  0.8010
   51MOL   C13016230   7.867   1.562   3.130  0.2743  0.3533 -0.1622
   51MOL   C13116231   0.062   1.438   3.167  0.2148  0.3029 -0.4659
   51MOL   C13216232   7.805   1.623   3.262  0.1784  0.2346 -0.4145
   51MOL   C13316233   0.022   1.694   3.342 -0.0684 -0.0631  0.1188
   51MOL   C13416234   0.028   1.844   3.329 -0.0129  0.3639  0.3055
   51MOL   C13516235   0.118   1.631   3.414  0.5579  0.2184  0.7068
   51MOL   H13616236   0.043   1.636   3.090 -0.8671  1.9830  0.8254
   51MOL   H13716237   0.056   1.367   3.084 -2.0039 -1.0391  0.8079
   51MOL   H13816238   0.031   1.385   3.257 -1.5680  0.1322 -1.1746
   51MOL   H13916239   0.166   1.464   3.189 -0.1214  1.7249 -0.5457
   51MOL   H14016240   7.725   1.692   3.233 -0.9931 -0.8667  0.1206
   51MOL   H14116241   0.049   1.904   3.418  0.8892  2.2204 -1.1396
   51MOL   H14216242   7.826   1.876   3.286 -0.6447 -1.9060 -0.0594
   51MOL   H14316243   0.110   1.859   3.260 -0.1655 -1.4552 -0.2890
   51MOL   H14416244   0.118   1.523   3.418 -2.1601  0.0964 -0.8560
   51MOL   H14516245   0.184   1.682   3.483 -0.5777 -0.7096  2.5474
   51MOL   C14616246   7.713   1.526   3.352 -0.2355  0.1188 -0.2446
   51MOL   C14716247   7.627   1.420   3.279 -0.2507  0.1792 -0.4307
   51MOL   C14816248   7.626   1.590   3.469  0.4014 -0.0160 -0.4980
   51MOL   C14916249   7.519   1.679   3.409  0.0263 -0.1347  0.3773
   51MOL   C15016250   7.386   1.616   3.382  0.1801 -0.2485 -0.3109
   51MOL   C15116251   7.538   1.809   3.380 -0.5053  0.0840 -0.0822
   51MOL   H15216252   7.784   1.471   3.414  0.3772 -0.0691 -1.1192
   51MOL   H15316253   7.547   1.462   3.219  0.4529 -1.2263 -2.4353
   51MOL   H15416254   7.575   1.356   3.350 -0.2443  0.8458  0.1774
   51MOL   H15516255   7.693   1.356   3.219 -0.5788 -1.3595  0.8216
   51MOL   H15616256   7.569   1.512   3.520  0.8169 -0.4276 -0.6514
   51MOL   H15716257   7.338   1.668   3.299 -0.3501 -0.5256 -0.1800
   51MOL   H15816258   7.322   1.624   3.470  0.5535  1.1093 -0.1539
   51MOL   H15916259   7.387   1.510   3.357 -0.1115 -0.1479 -0.7468
   51MOL   H16016260   7.624   1.870   3.402  1.8621 -3.3229  0.5751
   51MOL   H16116261   7.461   1.859   3.324  1.6983  2.4247 -1.1280
   51MOL   C16216262   7.706   1.648   3.597  0.1025 -0.2043 -0.4389
   51MOL   C16316263   7.799   1.545   3.660 -0.1790 -0.1050 -0.2165
   51MOL   C16416264   7.619   1.730   3.707  1.1313 -0.1379  0.2671
   51MOL   C16516265   7.702   1.851   3.746 -0.0803  0.1255  0.3556
   51MOL   C16616266   7.656   1.976   3.676  0.3018 -0.2031  0.3418
   51MOL   C16716267   7.807   1.854   3.832  0.0102 -0.2996 -0.0769
   51MOL   H16816268   7.768   1.724   3.549 -0.3740 -0.3963 -1.3680
   51MOL   H16916269   7.801   1.543   3.769 -1.6973 -0.7709 -0.1920
   51MOL   H17016270   0.012   1.544   3.632 -0.5876 -2.2107 -1.7776
   51MOL   H17116271   7.768   1.444   3.635  1.0704 -0.4742 -0.3268
   51MOL   H17216272   7.532   1.764   3.651  0.2652  1.0057  2.2428
   51MOL   H17316273   7.549   1.982   3.659  0.2341  5.6145  1.8235
   51MOL   H17416274   7.699   1.967   3.576 -0.1128 -1.6423  0.2871
   51MOL   H17516275   7.687   2.072   3.718 -3.6898  0.2965  2.2958
   51MOL   H17616276   7.840   1.765   3.883 -0.8739 -0.9133 -0.5767
   51MOL   H17716277   7.857   1.948   3.853  0.2771 -0.5146  0.2513
   51MOL   C17816278   7.555   1.663   3.837 -0.1255 -0.7319  0.2537
   51MOL   C17916279   7.502   1.523   3.809  0.3983 -0.5793  0.0785
   51MOL   C18016280   7.454   1.760   3.917 -0.3184 -0.5644 -0.0586
   51MOL   C18116281   7.496   1.750   4.069  0.3305 -0.3438 -0.1327
   51MOL   C18216282   7.466   1.618   4.138  0.2414 -0.1476 -0.7304
   51MOL   C18316283   7.566   1.842   4.134 -1.3323  0.2604  0.1535
   51MOL   H18416284   7.638   1.662   3.907 -0.7408 -1.6769  0.9761
   51MOL   H18516285   7.580   1.448   3.801  1.0129  0.0401  0.2009
   51MOL   H18616286   7.447   1.514   3.715  0.9205  0.9344 -0.3945
   51MOL   H18716287   7.430   1.498   3.887  0.8416 -0.5208  0.5112
   51MOL   H18816288   7.494   1.859   3.897  1.1890 -1.1776 -0.1958
   51MOL   H18916289   7.480   1.648   4.242  1.1527 -0.1693 -0.8356
   51MOL   H19016290   7.551   1.551   4.122  1.9423  1.5002  1.0985
   51MOL   H19116291   7.369   1.573   4.118 -0.2694  1.1530 -1.2264
   51MOL   H19216292   7.593   1.936   4.087 -0.6174  0.1195  0.2867
   51MOL   H19316293   7.601   1.838   4.236 -1.1362 -0.5566  0.0550
   51MOL   C19416294   7.302   1.747   3.887  0.3948 -0.1801 -0.0422
   51MOL   C19516295   7.280   1.774   3.731  0.4429 -0.3900  0.6744
   51MOL   C19616296   7.198   1.826   3.976 -0.9287 -0.0466 -0.0765
   51MOL   C19716297   7.061   1.753   3.980  0.0360 -0.2895 -0.3990
   51MOL   C19816298   7.038   1.665   4.100 -0.1184  0.2656 -0.0234
   51MOL   C19916299   6.960   1.767   3.898 -0.1049  0.1432  0.2220
   51MOL   H20016300   7.275   1.642   3.893  0.4520 -0.1156  1.3792
   51MOL   H20116301   7.326   1.699   3.668 -0.4349 -0.3674 -0.0051
   51MOL   H20216302   7.323   1.869   3.698  1.0146 -1.4368 -1.7315
   51MOL   H20316303   7.175   1.773   3.704  1.1350 -0.7545 -2.2196
   51MOL   H20416304   7.236   1.806   4.076 -1.0054  1.2724  0.2206
   51MOL   H20516305   6.937   1.627   4.117 -0.1966 -0.1086 -1.2670
   51MOL   H20616306   7.071   1.719   4.189 -1.2076 -2.7417  2.2985
   51MOL   H20716307   7.096   1.574   4.087 -1.5329 -0.3893 -1.9365
   51MOL   H20816308   6.954   1.826   3.807 -1.7581 -2.5588 -1.4942
   51MOL   H20916309   6.873   1.706   3.914  0.1365 -0.6623 -1.3820
   51MOL   C21016310   7.183   1.982   3.960  0.6620  0.0708  0.5993
   51MOL   C21116311   7.316   2.060   3.915  0.9549  0.7527  0.2518
   51MOL   C21216312   7.083   2.057   4.057  0.3843  0.2887 -0.4711
   51MOL   C21316313   6.983   2.143   3.975 -0.7327 -0.7451 -0.5379
   51MOL   C21416314   7.038   2.264   3.911 -0.5561  0.1121  0.7628
   51MOL   C21516315   6.850   2.120   3.959  0.4609  0.4759 -0.0578
   51MOL   H21616316   7.135   1.985   3.862  0.0617  0.1560  0.8926
   51MOL   H21716317   7.336   2.051   3.809  2.8911 -1.1605  0.7308
   51MOL   H21816318   7.406   2.044   3.974 -0.2488 -0.0177  1.9407
   51MOL   H21916319   7.294   2.166   3.912  0.1699  0.5993  0.2463
   51MOL   H22016320   7.025   1.976   4.100 -1.4330  2.8420  2.1285
   51MOL   H22116321   7.099   2.333   3.969 -0.0133  1.0365 -0.8681
   51MOL   H22216322   6.964   2.318   3.853 -2.4636 -0.8359  2.2713
   51MOL   H22316323   7.106   2.231   3.832 -0.3977  1.1128  0.4685
   51MOL   H22416324   6.808   2.035   4.012  0.2792 -0.9000 -2.3429
   51MOL   H22516325   6.783   2.184   3.903 -0.9420  2.5895  3.8054
   51MOL   C22616326   7.154   2.121   4.178  0.2082  0.1577 -0.5973
   51MOL   C22716327   7.241   2.017   4.252 -0.4743  0.5685  1.1449
   51MOL   C22816328   7.069   2.211   4.282 -0.7316  0.8393 -0.5719
   51MOL   C22916329   7.161   2.311   4.331  0.8871  0.0736  0.1788
   51MOL   C23016330   7.183   2.431   4.236 -0.1768 -0.0308  0.1612
   51MOL   C23116331   7.221   2.308   4.453 -0.1686  0.4377  0.1740
   51MOL   H23216332   7.227   2.193   4.141 -0.4117  1.1323  0.0655
   51MOL   H23316333   7.328   1.982   4.196 -0.9090  0.5816  0.4558
   51MOL   H23416334   7.187   1.928   4.286  1.2875 -0.9623  0.0849
   51MOL   H23516335   7.282   2.063   4.341 -0.8517 -0.3457  1.8043
   51MOL   H23616336   7.003   2.270   4.218 -1.1643  2.0064  0.9171
   51MOL   H23716337   7.252   2.501   4.281  0.5915 -1.7580  1.7466
   51MOL   H23816338   7.091   2.490   4.230  0.6522  1.5532  2.4845
   51MOL   H23916339   7.212   2.402   4.134  1.8352  0.1990  0.6475
   51MOL   H24016340   7.216   2.220   4.515  1.3594  0.4923  0.3931
   51MOL   H24116341   7.289   2.388   4.475 -1.7360  1.9098 -0.1759
   51MOL   C24216342   6.978   2.150   4.395 -0.4793 -0.2849  0.4335
   51MOL   C24316343   6.898   2.024   4.351  0.6188 -0.1402 -0.3517
   51MOL   C24416344   6.890   2.263   4.457 -0.4267  0.2914 -0.4113
   51MOL   C24516345   6.887   2.259   4.608 -0.3797 -0.0765 -0.8246
   51MOL   C24616346   6.826   2.136   4.677 -0.7581 -0.3731  0.5566
   51MOL   C24716347   6.936   2.356   4.688 -1.0188 -0.6914 -0.1954
   51MOL   H24816348   7.045   2.117   4.474  0.8677 -1.8280 -1.3114
   51MOL   H24916349   6.822   2.013   4.429 -0.3210  1.0114 -1.0864
   51MOL   H25016350   6.969   1.941   4.344  1.0433  0.0910  1.1250
   51MOL   H25116351   6.859   2.039   4.250  1.4047 -0.6114 -0.7319
   51MOL   H25216352   6.943   2.356   4.436  1.0860 -0.5078 -0.2179
   51MOL   H25316353   6.884   2.044   4.671  1.5967  1.1383 -0.9349
   51MOL   H25416354   6.728   2.118   4.634  0.0578 -3.9825  0.0849
   51MOL   H25516355   6.804   2.159   4.781 -1.2603 -0.1192  0.3962
   51MOL   H25616356   6.982   2.446   4.651  1.6098 -0.4942  3.2538
   51MOL   H25716357   6.922   2.351   4.795 -2.4727 -2.9538 -0.4605
   51MOL   C25816358   6.746   2.278   4.395 -0.6461 -0.3341 -0.0446
   51MOL   C25916359   6.734   2.301   4.240  0.1178  0.7767 -0.2081
   51MOL   C26016360   6.649   2.382   4.468  0.0208 -0.3606 -0.9134
   51MOL   C26116361   6.505   2.323   4.483  0.1422  0.5661 -0.5049
   51MOL   C26216362   6.428   2.291   4.356 -0.5230  0.7945  0.3581
   51MOL   C26316363   6.461   2.272   4.604 -0.2080  0.6527 -0.6769
   51MOL   H26416364   6.694   2.183   4.410  0.1417 -0.7973 -0.2119
   51MOL   H26516365   6.632   2.318   4.205 -0.9513  0.5598  2.7057
   51MOL   H26616366   6.764   2.212   4.184  2.1906  1.5193 -0.3086
   51MOL   H26716367   6.801   2.372   4.191  0.2682 -0.5893 -2.0737
   51MOL   H26816368   6.680   2.391   4.572 -1.4667 -0.5731 -0.4429
   51MOL   H26916369   6.470   2.207   4.301 -0.5349  2.0545 -1.6300
   51MOL   H27016370   6.431   2.371   4.282  1.5818 -0.1975 -0.6469
   51MOL   H27116371   6.321   2.270   4.369 -0.5532  0.4790 -0.3693
   51MOL   H27216372   6.524   2.286   4.690  1.1583  1.2112 -1.7354
   51MOL   H27316373   6.370   2.214   4.614 -0.7860  1.4290 -1.4182
   51MOL   C27416374   6.660   2.533   4.422  0.1200  0.2697  0.5023
   51MOL   C27516375   6.809   2.585   4.434  0.6161  0.1240 -0.5956
   51MOL   C27616376   6.553   2.623   4.488  0.3956 -0.4705 -0.2723
   51MOL   C27716377   6.488   2.715   4.390 -0.5247  0.1405 -0.0579
   51MOL   C27816378   6.570   2.839   4.350  0.4020  0.1643  0.1622
   51MOL   C27916379   6.367   2.701   4.332  0.9732 -0.3699  0.4519
   51MOL   H28016380   6.624   2.526   4.320  0.1072 -2.1204  0.6558
   51MOL   H28116381   6.872   2.544   4.356 -1.1450 -2.6495 -0.6085
   51MOL   H28216382   6.850   2.558   4.532  0.0029 -1.3200 -0.7319
   51MOL   H28316383   6.822   2.692   4.415 -2.2665 -0.0105 -3.8686
   51MOL   H28416384   6.462   2.564   4.503  0.7495 -1.0155 -0.2553
   51MOL   H28516385   6.644   2.802   4.279  0.9265  2.2044 -0.3958
   51MOL   H28616386   6.616   2.897   4.430 -1.6358  0.1019  1.4088
   51MOL   H28716387   6.507   2.906   4.292  0.8594  0.3404 -0.1316
   51MOL   H28816388   6.304   2.616   4.355 -2.1947  1.2637 -1.7795
   51MOL   H28916389   6.322   2.761   4.254  2.0170 -1.1381 -0.7650
   51MOL   C29016390   6.576   2.703   4.626  0.1044 -0.0610 -0.3116
   51MOL   C29116391   6.614   2.612   4.740  0.2192 -0.6657  0.2686
   51MOL   C29216392   6.472   2.813   4.673 -0.2827  0.3596  0.1319
   51MOL   C29316393   6.550   2.932   4.733  0.6253  0.4878  0.0594
   51MOL   C29416394   6.629   2.908   4.861  0.1610  0.0304 -0.3478
   51MOL   C29516395   6.536   3.059   4.682  0.4448  0.1668  0.0279
   51MOL   H29616396   6.661   2.766   4.598 -2.0531  1.9674 -2.5246
   51MOL   H29716397   6.595   2.649   4.840 -0.2735  0.6855 -0.3129
   51MOL   H29816398   6.715   2.573   4.723 -0.6219 -2.7868 -0.0331
   51MOL   H29916399   6.554   2.521   4.737  0.9521 -1.1092 -1.5358
   51MOL   H30016400   6.415   2.854   4.589  2.1554  1.7570 -0.8956
   51MOL   H30116401   6.575   2.842   4.929  0.9471 -1.4099 -1.0796
   51MOL   H30216402   6.649   2.999   4.917 -1.7290 -0.9204  1.9544
   51MOL   H30316403   6.724   2.867   4.827  1.1126  1.3597  0.6857
   51MOL   H30416404   6.479   3.079   4.592  0.6807  0.7163 -0.0056
   51MOL   H30516405   6.582   3.139   4.739 -0.4098 -0.5151  1.6617
   51MOL   C30616406   6.354   2.754   4.758  0.6272 -0.1565  0.0434
   51MOL   C30716407   6.267   2.654   4.677 -0.0937  0.2966 -0.0470
   51MOL   C30816408   6.270   2.878   4.797 -0.2407 -0.1844 -0.8254
   51MOL   C30916409   6.137   2.861   4.869  0.2945 -0.2263 -0.0175
   51MOL   C31016410   6.151   2.824   5.016  0.0743 -0.5076  0.3229
   51MOL   C31116411   6.018   2.876   4.811  0.2766 -0.4429 -0.3633
   51MOL   H31216412   6.395   2.712   4.849 -0.0123  1.1788  0.9555
   51MOL   H31316413   6.176   2.640   4.735 -0.4251  0.3272 -0.5531
   51MOL   H31416414   6.312   2.557   4.658  0.9953  0.7679  0.1022
   51MOL   H31516415   6.238   2.709   4.586 -1.9339  1.7077  1.3335
   51MOL   H31616416   6.339   2.932   4.861 -0.2084  0.7616 -1.6506
   51MOL   H31716417   6.217   2.892   5.068 -0.1107 -0.6544  0.7481
   51MOL   H31816418   6.162   2.717   5.033  1.5609 -0.2542  0.9614
   51MOL   H31916419   6.050   2.844   5.053 -0.7992 -0.6346 -1.8671
   51MOL   H32016420   6.011   2.910   4.709 -1.1681 -0.4023 -0.2514
   51MOL   H32116421   5.925   2.869   4.866 -2.0984  0.2394 -4.1310
   51MOL   H32216422   6.256   2.949   4.716  1.0474  0.4017 -0.5368
   52MOL     C116423   6.952   6.996   2.261  0.6665 -0.3614 -0.3734
   52MOL     C216424   6.900   7.139   2.257  0.1501 -0.6202  0.4227
   52MOL     C316425   6.851   6.885   2.300 -0.3846  0.8384 -0.0281
   52MOL     C416426   6.800   6.896   2.444  0.6205 -0.3918  0.3135
   52MOL     C516427   6.657   6.855   2.473  0.7673 -0.2603  1.0905
   52MOL     C616428   6.878   6.938   2.545 -0.0516  0.8416  0.2284
   52MOL     H716429   6.987   6.974   2.160 -0.5541  1.2872 -1.1732
   52MOL     H816430   6.974   7.204   2.211  0.4566 -0.3143  1.3389
   52MOL     H916431   6.867   7.193   2.345 -0.9233  2.2835 -1.6714
   52MOL    H1016432   6.813   7.148   2.191  2.1611 -1.4840 -2.4685
   52MOL    H1116433   6.764   6.901   2.237  0.6998 -2.3129 -2.4534
   52MOL    H1216434   6.644   6.821   2.576 -0.3639 -2.4065  0.2824
   52MOL    H1316435   6.637   6.766   2.412  0.3546  0.7315 -0.2461
   52MOL    H1416436   6.596   6.945   2.463 -0.2382 -0.9039  1.3972
   52MOL    H1516437   6.983   6.961   2.537  0.1941 -0.1218  0.6617
   52MOL    H1616438   6.832   6.948   2.643  1.5682 -0.8642  1.1963
   52MOL    H1716439   7.029   6.995   2.338 -1.3619  0.7717  1.7154
   52MOL    C1816440   6.901   6.741   2.253  0.0303 -0.3850  0.2355
   52MOL    C1916441   7.034   6.716   2.332 -0.0545 -0.3513 -0.5472
   52MOL    C2016442   6.920   6.719   2.102 -0.4422 -0.4356  0.7167
   52MOL    C2116443   6.802   6.778   2.027  0.0051 -0.1738 -0.5797
   52MOL    C2216444   6.669   6.716   2.058 -0.1910  0.5584  0.5105
   52MOL    C2316445   6.812   6.883   1.951 -0.7332  0.4938  0.4949
   52MOL    H2416446   6.827   6.672   2.292 -0.1499  0.3358  1.1907
   52MOL    H2516447   7.068   6.613   2.324 -2.0530 -1.1066  0.1889
   52MOL    H2616448   7.004   6.725   2.437 -1.6654 -0.9305 -0.9429
   52MOL    H2716449   7.113   6.786   2.306  0.6480 -1.3577 -1.1527
   52MOL    H2816450   7.001   6.781   2.063 -0.0974 -0.7666  0.9007
   52MOL    H2916451   6.589   6.789   2.042 -1.9757 -1.6187 -0.9197
   52MOL    H3016452   6.655   6.694   2.164  0.1254  0.8602  0.6159
   52MOL    H3116453   6.638   6.633   1.994  1.9327  2.1805 -2.7508
   52MOL    H3216454   6.909   6.922   1.924  0.5778 -3.9883 -1.8439
   52MOL    H3316455   6.714   6.910   1.916 -0.8058 -0.8718 -0.4333
   52MOL    C3416456   6.944   6.567   2.052 -0.1883  0.0595  0.7353
   52MOL    C3516457   6.876   6.462   2.142  0.0075  0.4815  0.1757
   52MOL    C3616458   7.102   6.535   2.042 -0.1648 -0.7957 -0.5498
   52MOL    C3716459   7.178   6.633   1.946 -0.1797  0.0663 -0.7607
   52MOL    C3816460   7.315   6.690   1.984  0.3257 -0.2073 -0.5272
   52MOL    C3916461   7.123   6.674   1.828 -0.9773  0.2295 -0.5568
   52MOL    H4016462   6.898   6.551   1.954  0.1729 -1.2038  0.7661
   52MOL    H4116463   6.884   6.359   2.108  0.0424  0.6966 -0.4871
   52MOL    H4216464   6.775   6.496   2.165  0.9686  2.3053  1.7969
   52MOL    H4316465   6.925   6.454   2.239 -0.8224 -1.8886  0.4224
   52MOL    H4416466   7.137   6.570   2.139  0.7601  0.9914 -1.5025
   52MOL    H4516467   7.312   6.705   2.092 -1.1006  0.1809 -0.6030
   52MOL    H4616468   7.340   6.787   1.940  0.5080  0.3261  0.7385
   52MOL    H4716469   7.394   6.618   1.962  1.5066 -0.2383  3.5643
   52MOL    H4816470   7.024   6.652   1.791 -0.5340 -0.7595 -1.1675
   52MOL    H4916471   7.188   6.738   1.770 -1.9534  1.9196  0.1471
   52MOL    C5016472   7.155   6.390   2.012  0.0609  0.4538 -0.8686
   52MOL    C5116473   7.074   6.336   1.889 -0.4905  0.3478  0.5500
   52MOL    C5216474   7.177   6.301   2.137 -0.3674 -0.6583  0.1719
   52MOL    C5316475   7.246   6.377   2.243 -0.2110 -0.0073  0.1617
   52MOL    C5416476   7.388   6.428   2.223 -0.0420  0.1187  0.4267
   52MOL    C5516477   7.177   6.391   2.361 -0.1381  0.0960 -0.3546
   52MOL    H5616478   7.256   6.406   1.975  0.4554  0.8715  0.3689
   52MOL    H5716479   6.978   6.299   1.925  0.0039 -1.5254 -0.0352
   52MOL    H5816480   7.116   6.248   1.843 -0.4461 -0.3887  1.9592
   52MOL    H5916481   7.056   6.404   1.806 -1.4991  0.0259  0.4913
   52MOL    H6016482   7.075   6.290   2.174 -0.0230 -2.9191  0.5155
   52MOL    H6116483   7.458   6.348   2.246 -2.0931 -1.8117  0.1706
   52MOL    H6216484   7.399   6.502   2.302  0.6613 -0.4954  0.9110
   52MOL    H6316485   7.425   6.473   2.131 -2.1127  1.3272  0.1552
   52MOL    H6416486   7.079   6.350   2.379 -0.0704 -0.2487 -0.7690
   52MOL    H6516487   7.219   6.449   2.442  1.3809 -2.4963  0.7971
   52MOL    C6616488   7.232   6.157   2.112 -0.0282 -0.4805  0.3809
   52MOL    C6716489   7.359   6.158   2.032 -0.1184 -0.4486  0.0833
   52MOL    C6816490   7.131   6.048   2.068 -0.2001  0.2131  0.5858
   52MOL    C6916491   6.995   6.060   2.141 -0.0514  0.7086 -0.4115
   52MOL    C7016492   7.005   6.056   2.298 -0.7864  0.1658  0.3934
   52MOL    C7116493   6.877   6.089   2.078 -0.1326  0.6023 -0.1843
   52MOL    H7216494   7.250   6.131   2.217 -0.9487  0.3898  0.7648
   52MOL    H7316495   7.340   6.187   1.928  2.2070  0.9321  0.0003
   52MOL    H7416496   7.413   6.063   2.032  1.5042  0.4263 -1.8596
   52MOL    H7516497   7.435   6.227   2.070  0.7768 -1.1707 -0.3619
   52MOL    H7616498   7.111   6.083   1.966  0.6315 -1.0018 -0.0067
   52MOL    H7716499   6.923   6.119   2.333  0.2222  2.4191 -1.1652
   52MOL    H7816500   7.090   6.109   2.340 -0.9656  0.6903  0.0947
   52MOL    H7916501   7.014   5.953   2.334 -0.6623 -0.2823 -0.9166
   52MOL    H8016502   6.864   6.097   1.971  0.8256 -0.5593 -0.4053
   52MOL    H8116503   6.787   6.112   2.132  0.3670  1.5456  0.2697
   52MOL    C8216504   7.181   5.902   2.066 -0.4986 -0.1420 -0.4378
   52MOL    C8316505   7.272   5.874   2.184 -0.4162  0.2966 -0.3851
   52MOL    C8416506   7.252   5.851   1.935  0.2993  0.2248  0.7221
   52MOL    C8516507   7.185   5.888   1.806  0.7572 -1.0588 -0.3445
   52MOL    C8616508   7.271   5.930   1.696 -0.1860 -1.1800  0.4014
   52MOL    C8716509   7.051   5.885   1.791 -0.5483  0.1328  0.2444
   52MOL    H8816510   7.098   5.833   2.083  0.6712 -1.2538  0.9152
   52MOL    H8916511   7.361   5.935   2.170 -1.8574  2.3861 -0.6844
   52MOL    H9016512   7.304   5.771   2.167 -1.6810 -0.0085 -0.9849
   52MOL    H9116513   7.230   5.900   2.281 -0.5692 -1.0048 -0.0918
   52MOL    H9216514   7.342   5.913   1.932 -0.6430  1.6130  1.0251
   52MOL    H9316515   7.343   5.851   1.670  1.7624 -0.2850  2.8563
   52MOL    H9416516   7.317   6.028   1.705  1.4957 -2.1372  2.6846
   52MOL    H9516517   7.200   5.938   1.614  0.7099  0.6354 -0.2142
   52MOL    H9616518   6.980   5.859   1.868  0.7420 -0.5689  1.2112
   52MOL    H9716519   7.002   5.907   1.697 -0.3356  3.0883  0.7934
   52MOL    C9816520   7.300   5.699   1.927 -0.5183 -0.1069 -0.2082
   52MOL    C9916521   7.187   5.609   1.991 -0.0836 -0.1399 -0.0668
   52MOL   C10016522   7.438   5.665   1.974 -0.1657  0.4093  0.2584
   52MOL   C10116523   7.547   5.765   1.954  0.3305 -0.3096 -0.3494
   52MOL   C10216524   7.603   5.796   1.809 -0.0520  0.2487 -0.0728
   52MOL   C10316525   7.602   5.819   2.064  0.5212  0.0536 -0.5266
   52MOL   H10416526   7.293   5.677   1.821  0.6589  2.7709 -0.9511
   52MOL   H10516527   7.190   5.595   2.099 -0.5442 -0.2968 -0.0753
   52MOL   H10616528   7.213   5.508   1.961 -2.2031 -1.1388  1.3458
   52MOL   H10716529   7.088   5.634   1.952  0.3541  1.2006 -0.3581
   52MOL   H10816530   7.422   5.655   2.081 -0.1876 -4.2008 -0.0763
   52MOL   H10916531   7.582   5.717   1.736  0.6841 -0.3008  0.3018
   52MOL   H11016532   7.710   5.813   1.806  0.0675 -0.6629 -1.8312
   52MOL   H11116533   7.559   5.883   1.760 -0.9612  0.6618  1.4472
   52MOL   H11216534   7.567   5.799   2.164  2.7289 -0.4951  0.1540
   52MOL   H11316535   7.681   5.893   2.054  1.5490 -1.1071 -1.0656
   52MOL   C11416536   7.496   5.519   1.931  0.6163  0.3378  0.4769
   52MOL   C11516537   7.444   5.484   1.793 -0.0916  0.6801 -0.2500
   52MOL   C11616538   7.475   5.399   2.036  0.3808 -0.0344  0.1127
   52MOL   C11716539   7.518   5.436   2.182  0.2494 -0.3717  0.0840
   52MOL   C11816540   7.441   5.369   2.297  0.5984  0.6599  0.3134
   52MOL   C11916541   7.625   5.516   2.217 -0.1913  0.8693  0.7867
   52MOL   H12016542   7.602   5.543   1.917  1.6528 -3.0603  2.1395
   52MOL   H12116543   7.355   5.421   1.799  1.0741 -0.9062  0.7082
   52MOL   H12216544   7.527   5.450   1.731 -0.4335  0.4399 -0.5849
   52MOL   H12316545   7.419   5.570   1.732 -0.0287  0.4832 -0.5535
   52MOL   H12416546   7.366   5.391   2.048  0.4054  0.0651  0.4090
   52MOL   H12516547   7.337   5.402   2.300  0.3657  0.1475 -1.6821
   52MOL   H12616548   7.466   5.386   2.402 -0.7319  0.3328  0.6913
   52MOL   H12716549   7.440   5.263   2.272  1.6687  0.4299  1.2137
   52MOL   H12816550   7.673   5.569   2.137 -1.5780 -0.1262 -0.7297
   52MOL   H12916551   7.662   5.532   2.318  1.1065 -0.4087  0.5308
   52MOL   C13016552   7.554   5.269   2.001  0.6219  0.1027  0.0353
   52MOL   C13116553   7.703   5.298   1.961  0.0831 -0.0104 -0.2697
   52MOL   C13216554   7.486   5.175   1.891  0.1737  0.1060  0.3800
   52MOL   C13316555   7.337   5.161   1.911 -0.3137 -0.1318  0.1382
   52MOL   C13416556   7.282   5.119   2.048 -0.4424 -0.1014  0.6869
   52MOL   C13516557   7.256   5.173   1.807 -0.0718 -0.2736 -0.7465
   52MOL   H13616558   7.545   5.204   2.088  0.2768 -1.2127 -0.9659
   52MOL   H13716559   7.739   5.380   2.024  0.3076 -1.2597  1.2644
   52MOL   H13816560   7.718   5.326   1.857  2.4461 -0.2836 -0.0353
   52MOL   H13916561   7.768   5.213   1.980 -0.4153 -0.4043 -0.3292
   52MOL   H14016562   7.494   5.228   1.796  0.7814  0.4539  0.6186
   52MOL   H14116563   7.308   5.180   2.134 -0.7402  1.6367 -0.4266
   52MOL   H14216564   7.298   5.012   2.058 -1.3361 -0.2515  0.6160
   52MOL   H14316565   7.173   5.120   2.045 -0.5820 -3.0721  2.5748
   52MOL   H14416566   7.300   5.204   1.713  0.1021  1.3298 -0.1451
   52MOL   H14516567   7.149   5.155   1.799 -0.3607  1.3992 -0.9346
   52MOL   C14616568   7.549   5.031   1.868 -0.1082 -0.4854  0.0844
   52MOL   C14716569   7.594   4.967   2.005 -0.0084  0.2332 -0.1368
   52MOL   C14816570   7.653   5.016   1.755  0.0443  0.2516 -0.3665
   52MOL   C14916571   7.593   5.066   1.621 -0.0727 -0.0917 -0.1169
   52MOL   C15016572   7.475   4.994   1.552 -0.1363  0.2118  0.7114
   52MOL   C15116573   7.647   5.171   1.559 -0.2977  0.1993  0.1451
   52MOL   H15216574   7.473   4.965   1.826  0.6548 -0.4906 -1.3016
   52MOL   H15316575   7.695   4.995   2.037 -0.4443  0.2234  1.2951
   52MOL   H15416576   7.586   4.859   2.019  0.3357  0.3033  0.6601
   52MOL   H15516577   7.533   4.996   2.091  1.2213  0.4624  0.6806
   52MOL   H15616578   7.725   5.095   1.778 -1.3421  1.7278 -0.9928
   52MOL   H15716579   7.385   4.980   1.612 -0.4991 -0.7301 -0.0436
   52MOL   H15816580   7.499   4.888   1.538  2.7732  1.1788 -2.2906
   52MOL   H15916581   7.440   5.032   1.456  1.0693 -0.8411 -0.1725
   52MOL   H16016582   7.730   5.226   1.601  0.1154 -1.0188  0.9444
   52MOL   H16116583   7.613   5.205   1.462 -1.0094  2.5070  1.1620
   52MOL   C16216584   7.730   4.882   1.734 -0.0305 -0.1152  0.7486
   52MOL   C16316585   7.635   4.760   1.762 -0.1641  0.1022  0.6622
   52MOL   C16416586   7.864   4.856   1.812  0.4190  0.4816 -0.3928
   52MOL   C16516587   0.062   4.984   1.794  0.4699 -0.5610 -0.2552
   52MOL   C16616588   0.103   5.013   1.648  0.1077 -0.2496  0.1637
   52MOL   C16716589   0.102   5.059   1.897 -0.4100 -0.6610 -0.4816
   52MOL   H16816590   7.753   4.881   1.627 -1.2524  1.0244  0.4627
   52MOL   H16916591   7.626   4.733   1.867 -1.3481  0.3874  0.6402
   52MOL   H17016592   7.659   4.665   1.712  2.3649  0.3884  1.2723
   52MOL   H17116593   7.538   4.780   1.716 -0.3600 -0.7725  0.6738
   52MOL   H17216594   7.835   4.852   1.917 -0.2266 -1.7962 -0.6355
   52MOL   H17316595   0.158   4.936   1.595 -0.8489 -1.6598  1.1756
   52MOL   H17416596   0.150   5.111   1.646 -2.4890  1.0358 -1.3792
   52MOL   H17516597   0.014   5.017   1.585  1.2251  1.2231 -1.3706
   52MOL   H17616598   0.080   5.047   2.002  1.8728  3.5092  0.5754
   52MOL   H17716599   0.163   5.147   1.880 -0.4804 -0.4027  0.5860
   52MOL   C17816600   0.060   4.730   1.777 -0.3267  0.3763 -0.2543
   52MOL   C17916601   0.041   4.675   1.635  0.0070 -0.0663 -0.1862
   52MOL   C18016602   0.046   4.615   1.893 -0.3079 -0.3271 -0.8069
   52MOL   C18116603   0.073   4.672   2.038  0.1409  0.9457  0.0879
   52MOL   C18216604   7.875   4.616   2.147  0.0119  0.0123 -0.2212
   52MOL   C18316605   0.162   4.771   2.059 -0.2495  0.4485 -0.3616
   52MOL   H18416606   0.165   4.758   1.770  0.5381 -2.6993 -0.5343
   52MOL   H18516607   7.832   4.641   1.610 -0.7497  1.1244  1.1698
   52MOL   H18616608   0.121   4.609   1.603  0.1183  1.3605 -2.9794
   52MOL   H18716609   0.048   4.748   1.554  0.4305 -1.3935 -1.3762
   52MOL   H18816610   7.831   4.601   1.880 -0.6704  0.4674  1.2464
   52MOL   H18916611   0.002   4.509   2.141  4.8518  0.8005 -0.9494
   52MOL   H19016612   7.772   4.635   2.118 -0.1540 -0.6015 -0.0571
   52MOL   H19116613   7.886   4.655   2.249  0.2190  0.2135 -0.3204
   52MOL   H19216614   0.213   4.809   1.971  0.8157  0.9931  0.4688
   52MOL   H19316615   0.184   4.816   2.155  3.2281 -0.8977 -0.4410
   52MOL   C19416616   0.134   4.486   1.878 -0.6237  0.1774  0.2564
   52MOL   C19516617   0.287   4.514   1.849  0.2673 -0.1534 -0.4210
   52MOL   C19616618   0.069   4.374   1.792  0.0681 -0.8842 -0.1374
   52MOL   C19716619   7.808   4.366   1.775  0.3410  0.2922  0.4364
   52MOL   C19816620   7.724   4.342   1.902 -0.4603 -0.1606 -0.8315
   52MOL   C19916621   7.744   4.388   1.658 -0.3459  0.3366 -0.0855
   52MOL   H20016622   0.123   4.444   1.979  0.2166 -2.7792 -0.8191
   52MOL   H20116623   0.297   4.549   1.746  0.4732  3.1401  0.6487
   52MOL   H20216624   0.341   4.420   1.857 -1.0860 -0.9245 -0.2193
   52MOL   H20316625   0.324   4.587   1.920 -0.1164  1.4461 -1.8251
   52MOL   H20416626   0.093   4.415   1.694  1.4328 -0.2644  0.4479
   52MOL   H20516627   7.731   4.244   1.949  0.9953  0.6802  0.7744
   52MOL   H20616628   7.618   4.350   1.880 -0.6524 -1.1392 -0.2899
   52MOL   H20716629   7.745   4.420   1.976  0.9093 -1.1534 -0.1525
   52MOL   H20816630   7.793   4.395   1.562 -0.7996  0.3196 -0.3162
   52MOL   H20916631   7.638   4.407   1.656 -1.0381 -3.1062  0.5063
   52MOL   C21016632   0.123   4.220   1.801 -0.7709  0.9851 -0.3240
   52MOL   C21116633   0.248   4.190   1.876 -0.2160  0.0134  0.1876
   52MOL   C21216634   0.116   4.131   1.664  0.3920 -0.3284 -0.0655
   52MOL   C21316635   0.066   3.996   1.705 -0.6847  0.1420 -0.0920
   52MOL   C21416636   7.811   3.983   1.727  0.4335 -0.2653 -0.2126
   52MOL   C21516637   0.150   3.893   1.704  0.1130  0.1043 -0.4576
   52MOL   H21616638   0.055   4.176   1.874  1.5151 -1.9263  0.1240
   52MOL   H21716639   0.257   4.246   1.969  1.6990 -0.5926  0.3908
   52MOL   H21816640   0.330   4.219   1.810 -1.1702  1.1008 -0.5473
   52MOL   H21916641   0.258   4.083   1.896 -3.9854 -0.6628 -1.0692
   52MOL   H22016642   0.028   4.165   1.610  2.0912  1.2089 -1.9272
   52MOL   H22116643   7.760   3.991   1.632  1.7973  0.9988 -0.8525
   52MOL   H22216644   7.770   4.060   1.793  0.3604  1.8715 -2.6991
   52MOL   H22316645   7.793   3.885   1.771  2.2020 -2.0219 -3.2215
   52MOL   H22416646   0.257   3.903   1.696  0.3981 -1.2442  1.3719
   52MOL   H22516647   0.111   3.792   1.716  0.8511 -0.3082 -1.4420
   52MOL   C22616648   0.227   4.137   1.553 -0.0203  0.0082  0.3960
   52MOL   C22716649   0.249   4.283   1.507  0.0570 -0.6113 -0.1294
   52MOL   C22816650   0.224   4.043   1.420  0.1197 -0.3184 -0.0290
   52MOL   C22916651   0.369   4.020   1.376 -0.4558  0.0978  0.6550
   52MOL   C23016652   0.435   3.899   1.439  0.3130  0.2589  0.0170
   52MOL   C23116653   0.431   4.096   1.286 -1.0010  0.0685  0.1545
   52MOL   H23216654   0.314   4.106   1.610 -0.0588 -4.1750 -1.5969
   52MOL   H23316655   0.293   4.344   1.586 -1.8086 -1.3181  1.5053
   52MOL   H23416656   0.153   4.331   1.487  0.3934  0.4774  0.8059
   52MOL   H23516657   0.318   4.287   1.424  2.3527 -0.7187  1.7262
   52MOL   H23616658   0.200   3.943   1.455  1.0126 -1.0539 -1.4628
   52MOL   H23716659   0.508   3.861   1.367 -1.1366 -1.7883 -0.3889
   52MOL   H23816660   0.365   3.819   1.461  0.6588  0.2616  1.1638
   52MOL   H23916661   0.488   3.924   1.531 -1.3423  0.2090  0.9940
   52MOL   H24016662   0.385   4.188   1.255  0.9447  1.1813  0.4789
   52MOL   H24116663   0.532   4.079   1.252 -1.0952 -0.2327  0.0214
   52MOL   C24216664   0.132   4.068   1.293 -0.0620 -0.7471 -0.1097
   52MOL   C24316665   0.003   4.144   1.322 -0.7431 -0.0487  0.2537
   52MOL   C24416666   0.101   3.935   1.209 -0.1333 -0.4063 -0.1818
   52MOL   C24516667   0.128   3.955   1.053 -0.3832  0.0444  0.6715
   52MOL   C24616668   0.076   4.066   0.977 -0.6923 -0.8277 -0.3583
   52MOL   C24716669   0.210   3.867   0.991  0.1970  0.1201  0.0824
   52MOL   H24816670   0.177   4.138   1.223 -0.7186 -0.3991 -0.1889
   52MOL   H24916671   7.826   4.084   1.381  1.3447 -2.2219  0.5721
   52MOL   H25016672   7.843   4.158   1.227 -2.8864 -1.3554  1.2095
   52MOL   H25116673   0.015   4.245   1.362 -0.3827 -0.3489  0.9002
   52MOL   H25216674   0.198   3.894   1.237  0.4338  0.4526 -0.8823
   52MOL   H25316675   7.861   4.073   0.995 -0.2490  0.8583  1.8857
   52MOL   H25416676   0.090   4.069   0.869  2.1479  0.7957  0.0020
   52MOL   H25516677   0.111   4.162   1.014 -0.3479 -1.4913  1.0493
   52MOL   H25616678   0.247   3.780   1.043 -1.2108 -1.1756 -1.0515
   52MOL   H25716679   0.244   3.882   0.890 -0.2587  1.4784  0.1176
   52MOL   C25816680   7.886   3.830   1.251 -0.6145  0.6503 -0.3844
   52MOL   C25916681   0.053   3.691   1.219 -0.2434 -0.6864  0.2030
   52MOL   C26016682   7.740   3.852   1.203  0.0873 -0.2274  0.6519
   52MOL   C26116683   7.645   3.847   1.322  0.6484 -0.1810  0.1338
   52MOL   C26216684   7.641   3.708   1.393  0.9987  0.5239 -0.2060
   52MOL   C26316685   7.579   3.952   1.365 -0.3870 -0.0804  0.0624
   52MOL   H26416686   7.888   3.827   1.360  1.3273 -1.1435 -0.4419
   52MOL   H26516687   0.154   3.677   1.258 -0.7082 -1.0422  1.3153
   52MOL   H26616688   0.061   3.672   1.112  0.1572  0.6814 -0.0197
   52MOL   H26716689   7.889   3.612   1.268  0.9707 -1.5229  0.2902
   52MOL   H26816690   7.737   3.957   1.174 -0.4364 -0.6194 -0.7733
   52MOL   H26916691   7.547   3.707   1.448  0.7656  0.4701 -0.6083
   52MOL   H27016692   7.721   3.700   1.467  0.1000  0.0577  0.7260
   52MOL   H27116693   7.635   3.625   1.322  0.5256 -0.7112  1.2487
   52MOL   H27216694   7.575   4.044   1.310 -1.0264  0.0194  0.2619
   52MOL   H27316695   7.515   3.951   1.452 -2.9279  1.5537 -1.7258
   52MOL   C27416696   7.676   3.776   1.078 -0.6523  0.2354 -0.0434
   52MOL   C27516697   7.762   3.787   0.954 -0.4579  0.3419 -0.8550
   52MOL   C27616698   7.527   3.812   1.042 -0.1780  0.2224  0.0935
   52MOL   C27716699   7.457   3.677   1.002  0.8540 -0.5071 -0.5218
   52MOL   C27816700   7.383   3.606   1.121 -0.2327  0.3644 -0.5225
   52MOL   C27916701   7.473   3.611   0.883 -0.8396  0.0348 -0.3210
   52MOL   H28016702   7.673   3.674   1.115 -2.5093  0.5760  0.8237
   52MOL   H28116703   7.865   3.758   0.972 -0.4568  0.9079  0.0969
   52MOL   H28216704   7.768   3.887   0.911 -0.8518  1.0124  0.6176
   52MOL   H28316705   7.724   3.719   0.878  1.2246  0.1494 -1.5285
   52MOL   H28416706   7.485   3.850   1.136  0.6107 -1.3008  1.0692
   52MOL   H28516707   7.348   3.508   1.088  1.6039 -0.3213 -0.4970
   52MOL   H28616708   7.294   3.662   1.149  1.5285  2.3925  1.2765
   52MOL   H28716709   7.437   3.587   1.214  1.2842  1.0476 -1.2463
   52MOL   H28816710   7.529   3.653   0.801  1.6189  1.0998  1.8287
   52MOL   H28916711   7.436   3.513   0.856 -1.1416  0.3145 -0.9430
   52MOL   C29016712   7.493   3.932   0.944 -0.0237 -0.9607 -0.0208
   52MOL   C29116713   7.542   4.065   1.014  0.1486  0.4379 -1.0942
   52MOL   C29216714   7.347   3.940   0.892 -0.3281 -0.2636 -0.1772
   52MOL   C29316715   7.324   4.016   0.765  0.8729  0.4163 -0.5918
   52MOL   C29416716   7.199   3.973   0.688  0.5287  0.1958 -0.2637
   52MOL   C29516717   7.411   4.107   0.712  1.0261  0.3733 -0.1038
   52MOL   H29616718   7.551   3.931   0.852  2.9515  1.2729  1.7363
   52MOL   H29716719   7.649   4.074   1.030  0.3104 -0.6818 -1.4833
   52MOL   H29816720   7.492   4.079   1.110 -0.8941 -2.9336 -1.0920
   52MOL   H29916721   7.507   4.156   0.964  0.4672 -0.4823 -3.0390
   52MOL   H30016722   7.322   3.838   0.864 -1.4389 -0.7243  2.2977
   52MOL   H30116723   7.113   4.003   0.748  1.2009 -1.0490  1.3335
   52MOL   H30216724   7.184   3.865   0.682 -2.1000  0.3308  2.7639
   52MOL   H30316725   7.186   4.024   0.592  1.0417  2.1199  0.6694
   52MOL   H30416726   7.508   4.138   0.748  0.0356  1.2893  1.8692
   52MOL   H30516727   7.384   4.150   0.617 -0.0376 -0.9574 -0.4039
   52MOL   C30616728   7.243   3.991   1.000 -0.0525 -0.3630  0.3357
   52MOL   C30716729   7.113   3.905   1.010 -0.8379 -0.7906 -0.1036
   52MOL   C30816730   7.213   4.144   0.988  0.6099 -0.4884 -0.2341
   52MOL   C30916731   7.110   4.205   1.080  0.8632 -0.1559 -0.1276
   52MOL   C31016732   7.157   4.209   1.225  0.4282  1.0887 -0.5683
   52MOL   C31116733   6.980   4.239   1.048 -0.0123 -0.1004  0.6508
   52MOL   H31216734   7.291   3.977   1.097  2.3858 -1.7788 -1.0108
   52MOL   H31316735   7.056   3.938   1.097 -0.4992 -1.8405  0.5290
   52MOL   H31416736   7.145   3.802   1.026  1.2583 -0.2250 -0.4377
   52MOL   H31516737   7.048   3.909   0.923 -1.5622 -0.3506  0.4561
   52MOL   H31616738   7.300   4.204   1.015  0.1970  0.6170 -1.2839
   52MOL   H31716739   7.099   4.284   1.279  0.4852 -0.2018  1.3067
   52MOL   H31816740   7.258   4.243   1.249 -0.2106  2.0150  0.8921
   52MOL   H31916741   7.136   4.108   1.259 -1.0562  1.2613 -0.9634
   52MOL   H32016742   6.942   4.228   0.947 -1.1859 -1.3335  1.2077
   52MOL   H32116743   6.921   4.276   1.130  0.2045  2.2623 -0.2085
   52MOL   H32216744   7.188   4.165   0.883 -0.0375 -2.7794 -0.5622
   53MOL     C116745   6.048   2.394   2.091  0.7833 -0.2528 -0.4454
   53MOL     C216746   6.042   2.500   1.978 -0.8404 -0.7007  0.3069
   53MOL     C316747   5.913   2.335   2.138 -0.5157 -1.3022  0.5184
   53MOL     C416748   5.819   2.441   2.207  0.4044  0.7691 -0.4594
   53MOL     C516749   5.671   2.418   2.180 -0.1567  0.3282  0.2402
   53MOL     C616750   5.857   2.545   2.277  0.5654 -1.0091  0.6597
   53MOL     H716751   6.115   2.310   2.072  2.3875  1.1990 -1.3438
   53MOL     H816752   6.004   2.455   1.887 -0.4151  2.0789 -1.2776
   53MOL     H916753   6.136   2.554   1.963 -0.8821 -0.7093  0.0281
   53MOL    H1016754   5.978   2.584   2.005  0.1902  0.4954 -0.9122
   53MOL    H1116755   5.860   2.322   2.044 -0.1355  1.3163 -0.0849
   53MOL    H1216756   5.602   2.479   2.238 -0.5748  0.3507 -0.2777
   53MOL    H1316757   5.654   2.310   2.186  1.4367  0.1072  0.9543
   53MOL    H1416758   5.649   2.444   2.077  0.8787 -1.2351 -0.3858
   53MOL    H1516759   5.962   2.569   2.293  0.0685  0.3771  2.0325
   53MOL    H1616760   5.787   2.612   2.324  1.4877  0.0356  0.5808
   53MOL    H1716761   6.083   2.434   2.186  2.3065 -2.5568  0.0213
   53MOL    C1816762   5.917   2.191   2.206  0.2451  0.0576  0.2147
   53MOL    C1916763   5.992   2.191   2.342 -0.0347 -0.0405 -0.2668
   53MOL    C2016764   5.966   2.069   2.112  0.2996  0.5136 -0.5033
   53MOL    C2116765   5.884   2.071   1.979  0.2599 -0.5622  0.6754
   53MOL    C2216766   5.958   2.023   1.860 -0.7043  0.4101  0.5638
   53MOL    C2316767   5.749   2.093   1.965 -0.3318 -0.8611 -0.1980
   53MOL    H2416768   5.812   2.168   2.227  0.4440  0.4138  1.6339
   53MOL    H2516769   5.970   2.273   2.411  1.0140  1.6705 -1.9257
   53MOL    H2616770   6.100   2.194   2.330  0.3468  0.3723  2.8433
   53MOL    H2716771   5.977   2.094   2.390  0.2890 -0.1632 -0.4112
   53MOL    H2816772   6.063   2.104   2.075  2.0139 -3.1124  0.2779
   53MOL    H2916773   5.895   2.009   1.772  1.8789  0.1055 -1.3131
   53MOL    H3016774   6.003   1.926   1.884 -0.6843  0.0756 -0.7583
   53MOL    H3116775   6.031   2.097   1.827 -1.2289  0.9208  0.5464
   53MOL    H3216776   5.682   2.119   2.046 -0.1974  0.8955 -0.6250
   53MOL    H3316777   5.704   2.082   1.868 -0.6857  0.1772 -0.1569
   53MOL    C3416778   5.984   1.925   2.168  0.3576 -0.4045  0.1248
   53MOL    C3516779   5.851   1.880   2.239  0.1586 -0.4966 -0.2708
   53MOL    C3616780   6.125   1.893   2.241  0.3132 -0.0553  0.2519
   53MOL    C3716781   6.256   1.954   2.177  0.3250  0.0589 -0.2004
   53MOL    C3816782   6.294   1.901   2.043 -0.4347  0.5795  0.4532
   53MOL    C3916783   6.324   2.052   2.237  0.6517 -0.8598  0.3607
   53MOL    H4016784   5.989   1.862   2.080  0.4716 -0.2148 -0.0055
   53MOL    H4116785   5.842   1.926   2.338 -0.3788 -0.6859 -0.2343
   53MOL    H4216786   5.845   1.771   2.248  1.6033 -0.5278  0.5242
   53MOL    H4316787   5.761   1.909   2.185  0.0458  0.6850  0.5270
   53MOL    H4416788   6.130   1.958   2.329  0.6981  0.5112 -0.1828
   53MOL    H4516789   6.325   1.796   2.049  0.9327  0.7437 -2.6823
   53MOL    H4616790   6.384   1.948   2.003  0.1222  0.0726  1.0940
   53MOL    H4716791   6.209   1.917   1.977  1.8567  1.1519 -2.4591
   53MOL    H4816792   6.299   2.107   2.326  2.6810  3.2054 -1.4299
   53MOL    H4916793   6.418   2.092   2.201 -0.8778  1.7228 -0.9631
   53MOL    C5016794   6.146   1.745   2.306 -0.9102 -0.2656 -0.1201
   53MOL    C5116795   6.109   1.639   2.205 -1.0372  0.0120 -0.7960
   53MOL    C5216796   6.084   1.724   2.448 -0.7266  0.7388  0.1818
   53MOL    C5316797   6.146   1.820   2.553  0.6606  0.0682  0.4500
   53MOL    C5416798   6.063   1.857   2.671 -0.4451  0.1461 -0.4684
   53MOL    C5516799   6.273   1.873   2.546 -1.0065 -0.4499  0.7609
   53MOL    H5616800   6.254   1.737   2.314 -0.7434  1.0473 -0.8150
   53MOL    H5716801   6.133   1.662   2.102 -0.3878 -0.7481 -0.8123
   53MOL    H5816802   6.001   1.630   2.195 -0.7997 -0.7780 -2.7559
   53MOL    H5916803   6.154   1.542   2.224  0.3973  0.9265  0.5582
   53MOL    H6016804   5.978   1.748   2.441 -0.7830  0.8701  1.4351
   53MOL    H6116805   5.965   1.898   2.648 -0.4090  0.2717 -0.3985
   53MOL    H6216806   6.105   1.933   2.737  1.7177 -0.3402 -1.2490
   53MOL    H6316807   6.048   1.768   2.732 -0.4235  0.1086 -0.5184
   53MOL    H6416808   6.337   1.858   2.460 -1.2348  1.1481  0.3027
   53MOL    H6516809   6.314   1.940   2.621  1.8034 -0.8760 -0.3231
   53MOL    C6616810   6.107   1.578   2.505  0.3728  0.5994 -0.1536
   53MOL    C6716811   6.253   1.535   2.489 -0.0335  0.0058 -0.2816
   53MOL    C6816812   6.004   1.470   2.464 -0.6961 -0.7347 -0.4363
   53MOL    C6916813   5.860   1.517   2.498  0.1231 -0.0027 -0.0732
   53MOL    C7016814   5.752   1.494   2.394 -0.6911 -0.4349 -0.0092
   53MOL    C7116815   5.826   1.573   2.616  0.1764  0.1507 -0.1246
   53MOL    H7216816   6.102   1.588   2.614  1.6945  0.0070 -0.0309
   53MOL    H7316817   6.277   1.449   2.551  0.1081  0.9772  1.0309
   53MOL    H7416818   6.324   1.616   2.511 -1.1596  0.6029  1.2314
   53MOL    H7516819   6.286   1.509   2.389 -1.5479 -1.8368 -0.3143
   53MOL    H7616820   6.002   1.465   2.355 -0.9438 -5.1630 -0.3204
   53MOL    H7716821   5.729   1.391   2.370  2.3753 -1.0836 -0.3528
   53MOL    H7816822   5.771   1.556   2.306 -0.0082  0.8338  0.9977
   53MOL    H7916823   5.655   1.534   2.425  0.2249  1.3204  0.6817
   53MOL    H8016824   5.896   1.598   2.695  0.3695 -0.9961  0.0703
   53MOL    H8116825   5.723   1.603   2.631 -0.1707 -0.8020 -0.6037
   53MOL    C8216826   6.034   1.319   2.523  0.1016  0.1560  0.7309
   53MOL    C8316827   6.061   1.315   2.676 -0.0145 -0.5200  0.3689
   53MOL    C8416828   6.120   1.224   2.438  0.4186  0.4852 -0.5241
   53MOL    C8516829   6.077   1.225   2.286 -0.3427 -0.3996 -0.5781
   53MOL    C8616830   6.188   1.194   2.182  0.7484  0.4520 -0.6618
   53MOL    C8716831   5.952   1.253   2.237 -0.6951  0.3330  0.0089
   53MOL    H8816832   5.933   1.277   2.521 -1.1209  3.0247 -0.1766
   53MOL    H8916833   6.168   1.318   2.697 -0.1494 -3.1758  1.6612
   53MOL    H9016834   6.017   1.227   2.723  0.3948 -0.3298  1.1161
   53MOL    H9116835   6.011   1.393   2.733 -0.7004  0.8638 -2.0272
   53MOL    H9216836   6.223   1.259   2.433 -0.1148  2.1594 -0.1663
   53MOL    H9316837   6.259   1.115   2.207 -0.1612 -0.3790 -0.6741
   53MOL    H9416838   6.252   1.282   2.181 -0.1424  1.1127 -3.0808
   53MOL    H9516839   6.168   1.175   2.077  0.3658  0.3381 -0.5683
   53MOL    H9616840   5.871   1.279   2.304  0.2574  0.3791  1.1561
   53MOL    H9716841   5.933   1.254   2.131  2.1158  1.5017 -0.5316
   53MOL    C9816842   6.114   1.075   2.482  0.4715 -0.7419 -0.3322
   53MOL    C9916843   5.970   1.021   2.504  0.2848 -0.1081  0.2372
   53MOL   C10016844   6.214   1.037   2.598  0.1657  1.4768 -0.4594
   53MOL   C10116845   6.354   1.098   2.595  0.7390  0.2361 -0.1594
   53MOL   C10216846   6.443   1.050   2.485 -0.3372 -0.1019 -0.1674
   53MOL   C10316847   6.388   1.189   2.689 -0.5711  0.1018  0.1948
   53MOL   H10416848   6.148   1.017   2.397 -0.8156 -0.9836 -0.6938
   53MOL   H10516849   5.925   1.060   2.596  1.6454 -0.4822  1.0746
   53MOL   H10616850   5.972   0.915   2.527  0.9383  0.0938  1.1692
   53MOL   H10716851   5.897   1.039   2.426 -1.2039  0.2082  1.6688
   53MOL   H10816852   6.171   1.077   2.690 -3.6532 -2.8794 -0.1505
   53MOL   H10916853   6.391   1.071   2.392  1.4833  2.1176 -0.7572
   53MOL   H11016854   6.465   0.944   2.493  1.5053 -0.0170 -3.0519
   53MOL   H11116855   6.538   1.104   2.492  0.2567 -0.9414 -1.5488
   53MOL   H11216856   6.327   1.223   2.771 -0.2313  0.9857  0.0804
   53MOL   H11316857   6.481   1.242   2.686  0.4074 -1.6368 -0.9666
   53MOL   C11416858   6.222   0.884   2.628 -0.3397 -0.2079  0.3040
   53MOL   C11516859   6.226   0.794   2.505  0.5681  0.0595  0.5952
   53MOL   C11616860   6.139   0.833   2.752  0.7516 -0.1359 -0.3107
   53MOL   C11716861   6.169   0.915   2.882 -0.2852  0.5093  0.3751
   53MOL   C11816862   6.304   0.890   2.954 -0.1906 -0.0781 -0.4804
   53MOL   C11916863   6.073   0.992   2.932 -0.6771  0.2207 -0.0343
   53MOL   H12016864   6.319   0.868   2.674 -1.3175 -2.7382  1.5537
   53MOL   H12116865   6.287   0.849   2.433 -1.0162  0.4201 -0.4854
   53MOL   H12216866   6.127   0.788   2.462  0.4581  0.9360  0.7023
   53MOL   H12316867   6.270   0.694   2.513 -0.9661 -0.6573  0.0800
   53MOL   H12416868   6.035   0.859   2.734 -0.4400 -2.5382  2.6588
   53MOL   H12516869   6.391   0.916   2.894  0.0629 -2.2500 -1.0947
   53MOL   H12616870   6.316   0.792   2.999  0.6729 -0.4268 -1.4697
   53MOL   H12716871   6.306   0.965   3.033  0.7175 -1.7091  1.0787
   53MOL   H12816872   5.987   1.020   2.872 -0.4160  3.5166  1.0504
   53MOL   H12916873   6.083   1.036   3.030  0.7191  1.0663 -0.5436
   53MOL   C13016874   6.138   0.673   2.780  0.1513  0.0518 -0.1633
   53MOL   C13116875   6.276   0.606   2.776 -0.4473  0.1967  0.5245
   53MOL   C13216876   6.036   0.590   2.690 -0.0797  0.3750 -0.6095
   53MOL   C13316877   5.894   0.651   2.669 -0.3980  0.3191 -0.0772
   53MOL   C13416878   5.810   0.680   2.792  0.2577  0.1987  0.1949
   53MOL   C13516879   5.848   0.673   2.546  0.2380 -0.9838 -0.6437
   53MOL   H13616880   6.112   0.671   2.886  1.8742 -1.8233  0.2550
   53MOL   H13716881   6.364   0.670   2.780 -1.5506  2.0460 -2.9150
   53MOL   H13816882   6.288   0.533   2.695  0.8790  1.0346 -0.0566
   53MOL   H13916883   6.285   0.550   2.869 -2.3863  0.6724  1.0226
   53MOL   H14016884   6.075   0.598   2.588  1.1767  0.8273 -0.0961
   53MOL   H14116885   5.726   0.739   2.754  0.6738 -0.8069 -2.4281
   53MOL   H14216886   5.852   0.742   2.871  3.6927 -1.3847 -0.2972
   53MOL   H14316887   5.777   0.589   2.842 -2.7898  1.2416  0.2079
   53MOL   H14416888   5.909   0.649   2.460  0.9672 -0.7652 -0.1957
   53MOL   H14516889   5.748   0.710   2.528  1.0204  0.4231 -2.2018
   53MOL   C14616890   6.025   0.435   2.710  0.1811 -0.1503  0.4836
   53MOL   C14716891   6.035   0.393   2.853 -0.2194 -0.5638 -0.6049
   53MOL   C14816892   6.104   0.345   2.601  0.1632 -0.7917 -0.2961
   53MOL   C14916893   6.105   0.393   2.450  0.4289 -0.0649  0.1274
   53MOL   C15016894   5.981   0.364   2.366  0.2660  0.5960 -0.4246
   53MOL   C15116895   6.208   0.447   2.384 -0.2708  0.1359  0.4333
   53MOL   H15216896   5.918   0.421   2.691 -0.2638  4.1010 -0.6247
   53MOL   H15316897   5.984   0.300   2.879  2.0838 -0.8394  3.2243
   53MOL   H15416898   5.995   0.475   2.912 -0.3814 -2.3094  1.7595
   53MOL   H15516899   6.137   0.373   2.885 -0.4133 -1.5024 -0.5673
   53MOL   H15616900   6.211   0.355   2.619  0.5697 -2.9765 -1.3667
   53MOL   H15716901   5.985   0.419   2.272  4.0831  2.9742  1.0015
   53MOL   H15816902   5.891   0.389   2.421 -0.5136  0.2788 -1.5264
   53MOL   H15916903   5.958   0.259   2.346 -1.4651  0.8625  0.0208
   53MOL   H16016904   6.300   0.471   2.436 -1.2528  0.0633  2.2378
   53MOL   H16116905   6.189   0.462   2.279  1.4816 -1.6249 -0.1714
   53MOL   C16216906   6.074   0.191   2.609 -0.9044  0.0268 -0.4492
   53MOL   C16316907   5.920   0.172   2.627  0.0167  0.5177  0.6789
   53MOL   C16416908   6.160   0.106   2.711  0.6705 -0.0970  0.1872
   53MOL   C16516909   6.305   0.153   2.714 -0.0439  0.8170 -0.8037
   53MOL   C16616910   6.390   0.147   2.585 -0.1128 -0.3180  0.0780
   53MOL   C16716911   6.363   0.194   2.829 -0.1950 -0.1988  0.1598
   53MOL   H16816912   6.096   0.155   2.509 -2.3614 -2.8309  0.1964
   53MOL   H16916913   5.866   0.092   2.576  1.4245 -0.5919  0.9279
   53MOL   H17016914   5.867   0.257   2.583 -1.4383 -0.8433 -0.2849
   53MOL   H17116915   5.886   0.159   2.729  3.8825 -4.9089  1.4533
   53MOL   H17216916   6.127   0.129   2.813 -1.4292 -0.2540 -0.4371
   53MOL   H17316917   6.406   0.050   2.537  1.0428  0.5726 -1.3853
   53MOL   H17416918   6.487   0.194   2.600 -1.2732  1.5756  1.8697
   53MOL   H17516919   6.341   0.205   2.507  1.5852  0.6335 -0.3165
   53MOL   H17616920   6.313   0.197   2.924  4.7950 -1.2637  3.0124
   53MOL   H17716921   6.467   0.219   2.842 -0.2000 -0.2350  0.2684
   53MOL   C17816922   6.152   7.843   2.697  0.7644  0.1943 -1.5312
   53MOL   C17916923   6.133   7.807   2.546  0.5439  0.5841  0.0677
   53MOL   C18016924   6.049   7.768   2.795  0.9460  0.1327 -0.9371
   53MOL   C18116925   6.077   7.796   2.943 -0.1064 -0.3304  0.4697
   53MOL   C18216926   5.956   7.828   3.030  0.0556  0.3547 -0.0650
   53MOL   C18316927   6.199   7.792   2.998 -0.1421 -0.1404 -0.3183
   53MOL   H18416928   6.248   7.802   2.729 -0.4416 -1.3159  0.2644
   53MOL   H18516929   6.031   7.820   2.510  0.4092  1.1740  0.6521
   53MOL   H18616930   6.163   7.703   2.534  1.6953  1.0000 -0.6675
   53MOL   H18716931   6.204   7.861   2.484 -0.0041  0.5173 -0.6233
   53MOL   H18816932   5.952   7.814   2.775 -0.0135 -1.4127  0.0913
   53MOL   H18916933   5.974   7.817   3.137  2.6158 -0.5466 -0.5515
   53MOL   H19016934   5.893   7.742   3.008  4.2345 -2.9666  0.2410
   53MOL   H19116935   5.913   0.032   3.001  0.2336  0.5268  0.2501
   53MOL   H19216936   6.288   7.761   2.945  1.1321  0.1566  1.5788
   53MOL   H19316937   6.216   7.810   3.103 -1.7248 -1.2930  0.1510
   53MOL   C19416938   6.046   7.606   2.783 -0.2508 -0.0880 -0.4419
   53MOL   C19516939   6.192   7.542   2.771  0.2315  0.6165  0.1172
   53MOL   C19616940   5.934   7.555   2.675  0.5430  0.7810  0.0579
   53MOL   C19716941   5.790   7.602   2.710 -0.2038  0.1207 -0.3953
   53MOL   C19816942   5.715   7.655   2.599  0.1810 -0.1781  0.2996
   53MOL   C19916943   5.744   7.587   2.835 -0.1425  0.4119  0.2059
   53MOL   H20016944   6.010   7.561   2.875 -0.1588 -0.2360 -0.4772
   53MOL   H20116945   6.190   7.433   2.776  1.5044  0.6405  1.4543
   53MOL   H20216946   6.261   7.573   2.849  0.3659 -0.4751  0.4421
   53MOL   H20316947   6.248   7.576   2.684 -0.4495 -1.3260 -1.1104
   53MOL   H20416948   5.952   7.607   2.581 -1.0833 -1.1303 -1.3654
   53MOL   H20516949   5.610   7.672   2.623  0.1339 -0.6463  0.4356
   53MOL   H20616950   5.719   7.590   2.512 -0.9131  2.6250 -1.9325
   53MOL   H20716951   5.766   7.742   2.558  1.5887 -0.0283  2.2821
   53MOL   H20816952   5.795   7.535   2.914 -3.4412 -0.3517  1.9093
   53MOL   H20916953   5.646   7.620   2.867 -0.5545 -0.1270 -0.4697
   53MOL   C21016954   5.929   7.403   2.646 -0.5598 -0.9114  0.4700
   53MOL   C21116955   5.931   7.319   2.773  0.3928  0.2610 -0.7496
   53MOL   C21216956   6.031   7.364   2.536  0.1957 -0.3338  0.5738
   53MOL   C21316957   6.012   7.430   2.394 -0.0339 -0.1268 -0.1909
   53MOL   C21416958   5.881   7.427   2.318 -0.1517  0.0857  0.2049
   53MOL   C21516959   6.114   7.496   2.338  0.9314  0.3305 -0.9633
   53MOL   H21616960   5.834   7.392   2.593  0.2097  2.0781 -1.7018
   53MOL   H21716961   6.033   7.298   2.806  1.0027 -0.4486 -2.9331
   53MOL   H21816962   5.879   7.224   2.760  1.7908 -0.3890 -1.6904
   53MOL   H21916963   5.868   7.359   2.852  0.8301  0.7170 -0.6312
   53MOL   H22016964   6.120   7.421   2.565 -0.0639  0.6147 -0.4446
   53MOL   H22116965   5.872   7.330   2.271  0.5191 -0.2511  0.7617
   53MOL   H22216966   5.878   7.500   2.237  2.0844  0.9716  0.8910
   53MOL   H22316967   5.796   7.439   2.386 -1.4564  0.2860 -1.4236
   53MOL   H22416968   6.211   7.491   2.386 -0.1981  0.2564  1.3752
   53MOL   H22516969   6.103   7.560   2.251 -1.5102 -1.4254 -2.0011
   53MOL   C22616970   6.070   7.208   2.514  0.0752  0.5388 -0.2118
   53MOL   C22716971   5.949   7.115   2.519  0.0542  0.1013 -0.0983
   53MOL   C22816972   6.195   7.156   2.601  0.0698 -0.1249 -0.0224
   53MOL   C22916973   6.317   7.242   2.599  0.2810 -0.8325 -0.6438
   53MOL   C23016974   6.413   7.239   2.717  0.2536 -0.0568  0.0656
   53MOL   C23116975   6.357   7.306   2.488 -0.0999 -0.3038 -0.4347
   53MOL   H23216976   6.108   7.198   2.412  0.6059 -1.4869  0.1630
   53MOL   H23316977   5.856   7.162   2.488 -0.0798 -0.6863 -0.9098
   53MOL   H23416978   5.933   7.075   2.619  1.6220 -0.0961  0.0925
   53MOL   H23516979   5.967   7.029   2.454  0.7950 -0.0946  0.3561
   53MOL   H23616980   6.168   7.173   2.705 -0.8910 -0.9963 -0.1282
   53MOL   H23716981   6.483   7.320   2.702 -0.5416  0.3303 -1.5866
   53MOL   H23816982   6.469   7.146   2.729  2.0565  0.9769 -0.1480
   53MOL   H23916983   6.357   7.281   2.801 -0.1490  2.0740 -1.2356
   53MOL   H24016984   6.284   7.299   2.409  0.0628 -0.5485 -0.5625
   53MOL   H24116985   6.447   7.363   2.473 -0.1846 -0.6124 -2.2207
   53MOL   C24216986   6.244   7.000   2.580  0.0947 -0.0485  0.0190
   53MOL   C24316987   6.247   6.961   2.428 -0.0108  0.2985  1.1944
   53MOL   C24416988   6.172   6.894   2.669  0.2544  0.5720  0.7287
   53MOL   C24516989   6.167   6.939   2.814  0.3041  0.1002  0.2332
   53MOL   C24616990   6.292   6.961   2.900  0.0330 -0.5992 -0.2944
   53MOL   C24716991   6.049   6.964   2.871  0.5604 -0.6603 -0.2886
   53MOL   H24816992   6.349   7.004   2.608  0.1516  0.9875 -0.3181
   53MOL   H24916993   6.150   6.963   2.379 -0.2353  1.7780  1.6524
   53MOL   H25016994   6.304   6.870   2.410 -0.1988 -0.1109  2.5953
   53MOL   H25116995   6.292   7.041   2.370  2.2727 -2.3946 -0.8559
   53MOL   H25216996   6.070   6.905   2.631  0.7645 -0.3001 -0.9327
   53MOL   H25316997   6.374   7.005   2.844  1.3269 -1.0656  1.1863
   53MOL   H25416998   6.316   6.865   2.946  3.2147  1.1334  1.8263
   53MOL   H25516999   6.266   7.038   2.973  1.8460  0.1025 -0.3778
   53MOL   H25617000   5.956   6.956   2.816  0.3700  1.9140 -0.3862
   53MOL   H25717001   6.055   7.000   2.973 -0.6105  1.0161 -0.7989
   53MOL   C25817002   6.208   6.743   2.649  0.1620  0.2940  0.5819
   53MOL   C25917003   6.359   6.726   2.652  0.6136 -0.2761  0.3723
   53MOL   C26017004   6.136   6.667   2.537  0.6098 -0.1160  0.0765
   53MOL   C26117005   5.990   6.703   2.518  0.4860  0.3402  0.6269
   53MOL   C26217006   5.895   6.668   2.630 -0.3177 -0.0263  0.5180
   53MOL   C26317007   5.943   6.753   2.402 -0.5993 -0.0188 -0.3582
   53MOL   H26417008   6.188   6.701   2.747  0.4763 -0.7415  0.2048
   53MOL   H26517009   6.401   6.758   2.557  1.0354 -0.4235  0.5086
   53MOL   H26617010   6.392   6.625   2.675 -0.0232 -0.9690 -1.6753
   53MOL   H26717011   6.404   6.788   2.731 -1.4686  2.9335 -0.8498
   53MOL   H26817012   6.192   6.711   2.455 -2.1662  2.1037 -0.7015
   53MOL   H26917013   5.924   6.705   2.729 -1.9936  0.7851  0.7289
   53MOL   H27017014   5.879   6.561   2.628  2.5799 -0.4680 -0.9491
   53MOL   H27117015   5.802   6.723   2.613  0.7317  1.9591  0.9673
   53MOL   H27217016   6.008   6.786   2.323 -1.1280 -0.7871 -1.1202
   53MOL   H27317017   5.839   6.757   2.376 -0.5326 -1.0856 -0.7993
   53MOL   C27417018   6.167   6.512   2.515  0.4184  0.4298  0.5727
   53MOL   C27517019   6.175   6.435   2.653  0.0441 -0.4538  0.1596
   53MOL   C27617020   6.276   6.488   2.408  0.4853 -0.1253 -0.5572
   53MOL   C27717021   6.250   6.554   2.269 -0.6583 -0.1436  0.0371
   53MOL   C27817022   6.375   6.589   2.195  0.2395 -0.1159 -0.4299
   53MOL   C27917023   6.130   6.569   2.213  0.6148 -0.4437  0.1756
   53MOL   H28017024   6.071   6.481   2.474  0.6962  0.6493 -0.2383
   53MOL   H28117025   6.276   6.442   2.695  0.2171 -1.7026 -0.0354
   53MOL   H28217026   6.157   6.331   2.629 -1.0336 -0.0748 -0.6987
   53MOL   H28317027   6.106   6.478   2.726  1.3682 -0.8808  1.7108
   53MOL   H28417028   6.371   6.532   2.436  0.3250 -0.7507  1.0504
   53MOL   H28517029   6.426   6.676   2.237  1.3977 -1.2670  0.5968
   53MOL   H28617030   6.356   6.602   2.088 -0.9471  0.8222 -0.1143
   53MOL   H28717031   6.445   6.506   2.203 -0.8585 -0.8586  1.6440
   53MOL   H28817032   6.040   6.545   2.267  0.1475  0.3144 -0.2701
   53MOL   H28917033   6.129   6.592   2.108  0.5221 -1.9542 -0.1592
   53MOL   C29017034   6.308   6.337   2.376  0.0701  0.0615  0.4285
   53MOL   C29117035   6.178   6.261   2.344  0.5080 -0.5504  0.5686
   53MOL   C29217036   6.394   6.257   2.474 -0.3056  0.4071  0.1124
   53MOL   C29317037   6.518   6.322   2.534  0.2728  0.1557  0.3429
   53MOL   C29417038   6.618   6.390   2.441 -0.3058 -0.2058  0.1948
   53MOL   C29517039   6.543   6.323   2.668  0.0009  0.0476 -0.0461
   53MOL   H29617040   6.368   6.336   2.284  1.5066 -0.4030  1.3569
   53MOL   H29717041   6.129   6.228   2.435  2.3176 -1.2101  1.3282
   53MOL   H29817042   6.192   6.163   2.299 -2.8191 -0.8327  0.0324
   53MOL   H29917043   6.102   6.312   2.285  0.8140  0.0690  0.6990
   53MOL   H30017044   6.322   6.239   2.554 -0.3355  4.9908  1.2407
   53MOL   H30117045   6.574   6.455   2.365  1.4877 -0.6695 -1.2878
   53MOL   H30217046   6.680   6.320   2.385 -1.4616 -1.4030  0.3711
   53MOL   H30317047   6.686   6.449   2.502 -0.8663  0.5968  0.0654
   53MOL   H30417048   6.473   6.277   2.734 -0.4197  0.1890 -0.3909
   53MOL   H30517049   6.624   6.377   2.715  1.3022  0.0062 -2.1302
   53MOL   C30617050   6.425   6.102   2.439 -0.3561 -0.2976 -0.3563
   53MOL   C30717051   6.488   6.021   2.551 -0.7018  0.2468 -0.5808
   53MOL   C30817052   6.517   6.093   2.309  0.3343  0.0846 -0.2346
   53MOL   C30917053   6.506   5.953   2.250 -0.3140  0.2412  0.0464
   53MOL   C31017054   6.377   5.907   2.193  0.4191  0.5962  0.1920
   53MOL   C31117055   6.617   5.877   2.249 -0.2248  1.5105  1.0188
   53MOL   H31217056   6.329   6.061   2.406  0.3059  0.1229 -2.9551
   53MOL   H31317057   6.596   6.026   2.558 -0.7516  4.8637 -1.8041
   53MOL   H31417058   6.465   5.917   2.526  0.3485 -0.4546  1.2472
   53MOL   H31517059   6.440   6.039   2.647 -1.1955 -3.6412  0.0142
   53MOL   H31617060   6.473   6.158   2.233 -2.4189 -1.2410  0.1862
   53MOL   H31717061   6.329   5.995   2.149  1.1476  0.9432  0.0721
   53MOL   H31817062   6.314   5.861   2.269  0.3808 -0.4506 -0.4731
   53MOL   H31917063   6.403   5.836   2.115 -1.0872 -1.2103  1.3103
   53MOL   H32017064   6.708   5.913   2.295  1.0862  1.6229 -1.5542
   53MOL   H32117065   6.628   5.780   2.201 -1.3277  1.0632  1.6462
   53MOL   H32217066   6.620   6.112   2.339 -0.2478 -0.7186  2.4208
   54MOL     C117067   7.589   1.635   0.967  0.0089  0.0747 -0.6129
   54MOL     C217068   7.456   1.635   1.041  0.3912 -0.3676 -0.8562
   54MOL     C317069   7.602   1.724   0.845  0.8294  0.1953 -0.2958
   54MOL     C417070   7.550   1.655   0.722  0.7294 -1.1571 -0.5158
   54MOL     C517071   7.519   1.750   0.615 -0.6799 -0.0046  0.8059
   54MOL     C617072   7.525   1.525   0.703  0.4393 -0.0936 -0.1508
   54MOL     H717073   7.660   1.680   1.037 -1.9445  1.2165  0.6681
   54MOL     H817074   7.379   1.588   0.980  0.9483 -2.2558 -0.1483
   54MOL     H917075   7.448   1.741   1.064  0.1171 -0.3809 -0.8868
   54MOL    H1017076   7.462   1.594   1.142 -0.5461  2.4242  0.3728
   54MOL    H1117077   7.540   1.810   0.866 -0.0262  0.2585 -2.8714
   54MOL    H1217078   7.610   1.795   0.575 -1.0648  1.1090  1.1826
   54MOL    H1317079   7.456   1.833   0.644 -3.5358 -1.2060 -1.7037
   54MOL    H1417080   7.456   1.707   0.537 -0.5253 -0.3831  0.8875
   54MOL    H1517081   7.554   1.450   0.775 -1.7896  0.5258  1.4520
   54MOL    H1617082   7.483   1.488   0.611 -0.3321 -0.0233  0.1741
   54MOL    H1717083   7.627   1.535   0.949  0.6406 -0.2616  2.3336
   54MOL    C1817084   7.748   1.780   0.825 -0.6471 -0.0716 -0.1312
   54MOL    C1917085   7.837   1.663   0.763 -0.2471  0.4739 -0.4862
   54MOL    C2017086   7.819   1.866   0.936  0.1216 -0.3793 -0.3168
   54MOL    C2117087   7.718   1.959   1.000  0.2536 -0.0862 -0.0211
   54MOL    C2217088   7.682   2.071   0.910 -0.0502  0.5251  0.5340
   54MOL    C2317089   7.659   1.934   1.115  0.0455 -0.5527  0.2069
   54MOL    H2417090   7.737   1.841   0.736 -1.5759  0.7773  0.5461
   54MOL    H2517091   0.048   1.698   0.760 -0.9938  2.7324 -1.2491
   54MOL    H2617092   7.820   1.648   0.656  2.3752 -1.9194 -0.6440
   54MOL    H2717093   7.835   1.567   0.814 -3.2364  0.5093 -0.4794
   54MOL    H2817094   7.842   1.799   1.019 -2.3058 -0.0219  0.6861
   54MOL    H2917095   7.758   2.149   0.911  0.6295 -0.1376  2.3088
   54MOL    H3017096   7.584   2.102   0.944 -0.1767  0.6445  0.0707
   54MOL    H3117097   7.658   2.024   0.814 -1.1787 -1.7450  1.8793
   54MOL    H3217098   7.683   1.854   1.183  1.2837  0.4712  1.0135
   54MOL    H3317099   7.584   2.005   1.147 -2.5202 -2.9798 -0.2847
   54MOL    C3417100   0.058   1.946   0.896 -0.5390 -0.3001 -0.9428
   54MOL    C3517101   0.068   1.968   0.741 -1.3482 -0.0913 -1.0295
   54MOL    C3617102   0.179   1.884   0.974 -0.1567  0.4081  0.4434
   54MOL    C3717103   0.160   1.857   1.126  0.7390  0.0405 -0.4902
   54MOL    C3817104   0.120   1.972   1.211  0.5789  0.4550 -0.3433
   54MOL    C3917105   0.158   1.730   1.177 -0.7099 -0.0002 -0.2266
   54MOL    H4017106   0.060   2.049   0.931 -0.4668 -0.4124 -0.6123
   54MOL    H4117107   7.864   1.998   0.702 -1.0964  1.4888 -0.4548
   54MOL    H4217108   0.100   1.896   0.666 -1.5466 -0.3012 -0.9119
   54MOL    H4317109   0.144   2.046   0.729 -1.6842  0.4749  0.4541
   54MOL    H4417110   0.165   1.783   0.934 -0.6755 -0.2712  2.2859
   54MOL    H4517111   0.198   1.999   1.281  0.5434  0.8410 -0.4495
   54MOL    H4617112   0.041   1.932   1.275  1.3772 -1.5595 -0.5706
   54MOL    H4717113   0.067   2.048   1.154  0.1391 -0.7030 -1.5294
   54MOL    H4817114   0.184   1.645   1.115  0.0948 -1.8621  2.5741
   54MOL    H4917115   0.131   1.724   1.281 -0.4370  0.5067 -0.1223
   54MOL    C5017116   0.325   1.936   0.954  0.2143  0.1426 -0.4272
   54MOL    C5117117   0.336   2.091   0.980  0.5845 -0.1185 -0.4682
   54MOL    C5217118   0.393   1.871   0.827  0.4064  0.3499  0.6323
   54MOL    C5317119   0.372   1.722   0.818  0.5911  0.6652  0.6234
   54MOL    C5417120   0.348   1.666   0.672 -0.3885 -0.4291 -1.5495
   54MOL    C5517121   0.378   1.642   0.925  0.5125  0.1208 -0.1576
   54MOL    H5617122   0.387   1.893   1.032 -1.8952  0.0052  1.2400
   54MOL    H5717123   0.286   2.148   0.902 -0.2459 -1.0373 -0.6138
   54MOL    H5817124   0.434   2.138   0.979  0.2427  0.6317  0.5998
   54MOL    H5917125   0.300   2.109   1.081 -0.8633  0.7108 -1.1121
   54MOL    H6017126   0.332   1.914   0.747  1.2232 -0.3168 -0.3620
   54MOL    H6117127   0.443   1.686   0.622  0.9048 -0.8492  0.6391
   54MOL    H6217128   0.263   1.728   0.645  0.3466  1.2077 -0.2012
   54MOL    H6317129   0.306   1.565   0.669 -2.4834  0.4133 -1.1978
   54MOL    H6417130   0.399   1.682   1.023 -2.0142  0.5745  0.2289
   54MOL    H6517131   0.363   1.535   0.915 -0.3723  0.2391 -0.1499
   54MOL    C6617132   0.539   1.917   0.794  0.6560  0.0235 -1.0071
   54MOL    C6717133   0.626   1.888   0.918  0.3247  0.3862  0.2601
   54MOL    C6817134   0.566   2.058   0.732 -0.0566 -0.3520  0.4260
   54MOL    C6917135   0.462   2.101   0.627  0.1011  0.7672  0.9260
   54MOL    C7017136   0.448   2.008   0.507 -1.0245  0.0391  0.9164
   54MOL    C7117137   0.389   2.216   0.633  0.5136 -0.2012 -1.1053
   54MOL    H7217138   0.563   1.842   0.719 -0.6448 -1.0309 -0.4001
   54MOL    H7317139   0.593   1.950   1.001  0.6670 -0.7284  1.2408
   54MOL    H7417140   0.733   1.894   0.897 -0.0693  0.3610 -1.9038
   54MOL    H7517141   0.607   1.786   0.951 -2.5001  0.1183 -1.9991
   54MOL    H7617142   0.556   2.131   0.813 -3.0621 -2.0623  1.6972
   54MOL    H7717143   0.512   2.040   0.425 -0.1208 -4.2870 -0.1731
   54MOL    H7817144   0.347   2.006   0.467 -0.4489 -1.5645 -0.4810
   54MOL    H7917145   0.478   1.908   0.537 -1.3607 -0.6898 -1.1547
   54MOL    H8017146   0.404   2.297   0.703  0.9150  0.5633 -2.0610
   54MOL    H8117147   0.317   2.230   0.554  0.1008 -0.4446 -0.7738
   54MOL    C8217148   0.708   2.076   0.679 -0.4923 -1.0387  0.6887
   54MOL    C8317149   0.765   1.951   0.602  0.2415 -0.0647 -0.2244
   54MOL    C8417150   0.805   2.155   0.777 -0.4492  0.3351 -0.1548
   54MOL    C8517151   0.737   2.281   0.837 -0.4154  0.1315  0.5878
   54MOL    C8617152   0.759   2.314   0.985 -0.0299 -0.5102  0.6363
   54MOL    C8717153   0.675   2.375   0.762  0.9443 -0.0433 -0.0452
   54MOL    H8817154   0.692   2.140   0.593  0.5225 -2.1860 -0.3863
   54MOL    H8917155   0.869   1.967   0.572 -0.2225  1.4804 -1.0511
   54MOL    H9017156   0.698   1.919   0.523 -0.5803 -1.4498  1.0247
   54MOL    H9117157   0.770   1.861   0.663 -1.9619 -0.2877 -0.3410
   54MOL    H9217158   0.812   2.080   0.856  0.9284  1.7924  1.1570
   54MOL    H9317159   0.663   2.350   1.021 -0.7115 -1.3115 -0.3821
   54MOL    H9417160   0.840   2.386   1.002 -0.8861  0.2637  1.4389
   54MOL    H9517161   0.783   2.222   1.038  2.2158  0.5129  1.4950
   54MOL    H9617162   0.660   2.370   0.655 -2.6411 -0.6017  0.4347
   54MOL    H9717163   0.636   2.466   0.806  0.0155 -0.4463 -0.0302
   54MOL    C9817164   0.955   2.181   0.736  0.3318 -0.4153 -0.6769
   54MOL    C9917165   0.965   2.224   0.585 -0.0939 -0.0316 -0.3381
   54MOL   C10017166   1.055   2.074   0.784  0.3583  0.0458  0.6042
   54MOL   C10117167   1.051   2.059   0.936  0.3863  0.2197 -0.0189
   54MOL   C10217168   1.115   2.171   1.019 -0.7353  0.2424  0.0891
   54MOL   C10317169   0.996   1.946   0.999  1.0125  0.0747  0.7784
   54MOL   H10417170   0.986   2.271   0.790 -1.3205 -0.8155  1.0088
   54MOL   H10517171   1.018   2.319   0.575  0.6663 -0.2463  1.4968
   54MOL   H10617172   0.873   2.243   0.529  0.8090  1.8091 -1.2430
   54MOL   H10717173   1.023   2.147   0.534 -0.7598 -1.7147  1.3819
   54MOL   H10817174   1.025   1.978   0.742  1.7231 -1.4147  2.9026
   54MOL   H10917175   1.086   2.269   0.981  0.5507  0.7646  0.4006
   54MOL   H11017176   1.224   2.170   1.014 -0.8102 -1.8101 -2.9338
   54MOL   H11117177   1.091   2.155   1.123  1.1323  0.2176  0.5388
   54MOL   H11217178   0.960   1.861   0.943  2.7121 -0.3107  0.2262
   54MOL   H11317179   0.999   1.938   1.107 -1.4397 -1.0689  0.7903
   54MOL   C11417180   1.211   2.077   0.738 -0.6660 -0.3477 -0.2727
   54MOL   C11517181   1.266   2.214   0.703  0.5939 -0.3189  0.0384
   54MOL   C11617182   1.248   1.961   0.644 -0.1082  0.0035 -0.1050
   54MOL   C11717183   1.227   1.822   0.703  0.1288 -0.1925 -0.3433
   54MOL   C11817184   1.157   1.716   0.629  0.3211 -0.2383  0.1334
   54MOL   C11917185   1.255   1.791   0.834  0.6184 -0.3628  0.7257
   54MOL   H12017186   1.271   2.055   0.826 -1.3820  2.0464  0.8598
   54MOL   H12117187   1.217   2.285   0.770 -1.7920 -0.7928 -1.1598
   54MOL   H12217188   1.226   2.240   0.605 -0.5686  1.0736  0.8700
   54MOL   H12317189   1.373   2.225   0.724  0.5811  0.7687 -0.4250
   54MOL   H12417190   1.164   1.956   0.574 -1.2522 -0.8666  1.3036
   54MOL   H12517191   1.050   1.735   0.618  0.3789  1.7303  2.5453
   54MOL   H12617192   1.174   1.618   0.675  1.3231  0.2087  0.7430
   54MOL   H12717193   1.201   1.721   0.529  0.1763 -1.7445 -0.0219
   54MOL   H12817194   1.306   1.860   0.900 -1.2256  0.7592  1.0280
   54MOL   H12917195   1.218   1.698   0.874  0.2364 -0.5142  0.0218
   54MOL   C13017196   1.378   1.966   0.561  0.1924  0.2166 -0.5645
   54MOL   C13117197   1.499   1.972   0.658  0.0515  0.4211  0.5738
   54MOL   C13217198   1.379   2.061   0.441  0.1046 -0.2254  0.1595
   54MOL   C13317199   1.255   2.056   0.345 -0.2346  0.0143 -0.1357
   54MOL   C13417200   1.195   2.185   0.292 -0.2332  0.6425 -0.3778
   54MOL   C13517201   1.210   1.940   0.298 -0.6467 -0.7211  0.3702
   54MOL   H13617202   1.380   1.869   0.511  1.7530 -1.8630  3.3148
   54MOL   H13717203   1.593   1.933   0.620 -0.4414 -0.1958 -0.0333
   54MOL   H13817204   1.485   1.919   0.752  4.8487 -1.3805  0.3918
   54MOL   H13917205   1.522   2.076   0.679  3.7562 -0.3009  0.4621
   54MOL   H14017206   1.394   2.160   0.484 -2.3956 -0.4864  1.7477
   54MOL   H14117207   1.246   2.229   0.207  1.4029 -0.4802 -0.0112
   54MOL   H14217208   1.184   2.257   0.373 -1.3148 -1.3745  1.3134
   54MOL   H14317209   1.098   2.169   0.244  0.3581  0.6520 -1.6015
   54MOL   H14417210   1.239   1.840   0.326 -1.0094 -0.9729 -0.1309
   54MOL   H14517211   1.134   1.943   0.221  0.8974 -0.9726 -1.1684
   54MOL   C14617212   1.504   2.043   0.345 -0.8654 -0.1393  0.1560
   54MOL   C14717213   1.531   1.893   0.322 -0.2731 -0.1128 -0.5813
   54MOL   C14817214   1.634   2.121   0.375  0.2250 -0.3540  0.0446
   54MOL   C14917215   1.607   2.266   0.411  0.4102 -0.1015 -0.1794
   54MOL   C15017216   1.696   2.334   0.512 -0.7155  0.6686  0.1947
   54MOL   C15117217   1.522   2.347   0.348  0.7394 -0.1489  0.0302
   54MOL   H15217218   1.467   2.081   0.250 -0.0421  0.3292  0.0104
   54MOL   H15317219   1.568   1.836   0.407 -0.5585 -0.3293 -0.6028
   54MOL   H15417220   1.603   1.880   0.242  0.8902 -0.8563  0.5663
   54MOL   H15517221   1.445   1.838   0.285 -0.1807 -1.2521  0.8550
   54MOL   H15617222   1.689   2.075   0.457  0.7646  0.1041 -0.0567
   54MOL   H15717223   1.785   2.373   0.462 -1.0091  1.8107  0.5372
   54MOL   H15817224   1.726   2.262   0.588 -1.0308 -1.2707 -1.4934
   54MOL   H15917225   1.645   2.406   0.576  0.1826  1.3201  0.2072
   54MOL   H16017226   1.460   2.306   0.270 -0.0977 -2.0016  1.6393
   54MOL   H16117227   1.517   2.454   0.366 -0.7576 -0.5526  2.2324
   54MOL   C16217228   1.740   2.124   0.257 -0.5989 -0.3165  0.3844
   54MOL   C16317229   1.672   2.127   0.115 -0.3736 -0.4375  0.4298
   54MOL   C16417230   1.853   2.017   0.262  0.1299 -0.7297  0.0338
   54MOL   C16517231   1.924   2.020   0.403  0.1526 -0.3371 -0.4023
   54MOL   C16617232   1.922   1.888   0.482  0.2614 -0.2068 -0.4622
   54MOL   C16717233   1.982   2.127   0.464 -0.6678  0.6512  0.0399
   54MOL   H16817234   1.798   2.215   0.272 -1.5239  0.3307  0.0740
   54MOL   H16917235   1.743   2.165   0.042 -0.3788 -3.4061 -1.2323
   54MOL   H17017236   1.587   2.194   0.113  0.4084  0.5661  0.1216
   54MOL   H17117237   1.645   2.027   0.079 -0.4206 -0.2888  0.0458
   54MOL   H17217238   1.799   1.923   0.259  0.0497 -0.7758  1.9954
   54MOL   H17317239   2.004   1.821   0.457  1.1837  0.3155  1.1014
   54MOL   H17417240   1.830   1.830   0.475  1.3501 -2.0433 -0.1650
   54MOL   H17517241   1.934   1.908   0.589 -2.8463  1.5709 -0.3770
   54MOL   H17617242   1.994   2.220   0.410 -1.7512  2.1933  2.3621
   54MOL   H17717243   2.023   2.123   0.564 -0.9350 -0.4025  0.1129
   54MOL   C17817244   1.965   2.013   0.146  0.8548  0.0755  0.1816
   54MOL   C17917245   2.007   2.158   0.103 -0.0910 -0.2286 -0.8501
   54MOL   C18017246   1.935   1.914   0.029  0.0566  0.5283  0.6113
   54MOL   C18117247   1.880   1.774   0.076 -0.3390  0.1385 -0.4244
   54MOL   C18217248   1.975   1.696   0.168  0.4991 -0.4933 -0.1735
   54MOL   C18317249   1.757   1.730   0.043  0.5686 -0.8632 -0.7761
   54MOL   H18417250   2.047   1.961   0.195  1.0827  0.8262  0.5984
   54MOL   H18517251   2.112   2.158   0.075  0.4100 -1.0821  0.9760
   54MOL   H18617252   2.002   2.232   0.182 -0.1289 -2.2222  1.0645
   54MOL   H18717253   1.952   2.195   0.016  1.7112  1.4980 -1.2868
   54MOL   H18817254   1.848   1.959   7.873 -1.5462 -2.2087  0.8396
   54MOL   H18917255   2.065   1.666   0.115  0.9952  1.4615 -0.4460
   54MOL   H19017256   1.931   1.602   0.204  3.1086  0.2411  5.6285
   54MOL   H19117257   1.988   1.761   0.255 -2.1925  0.9502 -0.7915
   54MOL   H19217258   1.703   1.788   7.862  0.3953 -0.6953 -0.5177
   54MOL   H19317259   1.708   1.639   0.072 -0.8393  0.1972  0.2841
   54MOL   C19417260   2.053   1.902   7.808  0.1225  0.1820 -0.6718
   54MOL   C19517261   2.198   1.901   7.873 -1.1151  0.0345  0.6204
   54MOL   C19617262   2.050   1.997   7.687  0.1713  0.0354 -0.3310
   54MOL   C19717263   1.907   2.018   7.637 -0.4765  0.9665 -0.2453
   54MOL   C19817264   1.855   2.165   7.612  0.1548 -0.0022 -0.1773
   54MOL   C19917265   1.825   1.919   7.612 -0.6297  0.3335  0.4332
   54MOL   H20017266   2.041   1.799   7.775 -0.7548 -0.5956  1.8892
   54MOL   H20117267   2.235   1.992   0.027  2.7568 -1.6006  0.9043
   54MOL   H20217268   2.272   1.869   7.800 -3.0238  0.5602 -1.6100
   54MOL   H20317269   2.211   1.822   0.055  0.4216  0.3709  0.7269
   54MOL   H20417270   2.063   2.095   7.734  0.9403 -0.5921  0.7788
   54MOL   H20517271   1.761   2.165   7.556 -0.9175 -2.4256  1.5345
   54MOL   H20617272   1.921   2.232   7.556 -0.1101 -0.2494 -0.7934
   54MOL   H20717273   1.841   2.218   7.706 -1.9198 -1.0921  0.1466
   54MOL   H20817274   1.852   1.815   7.616  1.3813  0.8544  1.1612
   54MOL   H20917275   1.728   1.942   7.571  0.9922  3.4874 -1.8279
   54MOL   C21017276   2.151   1.975   7.568 -0.6370  0.8390 -0.5307
   54MOL   C21117277   2.179   1.821   7.541  0.0732  0.2073  0.2616
   54MOL   C21217278   2.275   2.081   7.577 -0.0516  0.3709  0.4173
   54MOL   C21317279   2.230   2.230   7.583  0.4111  0.8809  0.2549
   54MOL   C21417280   2.177   2.301   7.464  0.4986  0.5268  0.4537
   54MOL   C21517281   2.253   2.298   7.695  0.3805  0.1744  0.3199
   54MOL   H21617282   2.091   2.001   7.481  1.1986  2.4223 -1.3698
   54MOL   H21717283   2.248   1.800   7.460  1.7292  2.9978  0.8987
   54MOL   H21817284   2.076   1.790   7.523 -0.1149  1.2382 -0.5146
   54MOL   H21917285   2.218   1.777   7.633 -0.2215  3.0254  1.8140
   54MOL   H22017286   2.328   2.070   7.672  1.8684  1.9564 -0.4254
   54MOL   H22117287   2.101   2.227   7.436  0.1944  0.2818  1.8505
   54MOL   H22217288   2.250   2.309   7.383  0.0971 -0.0071  0.0312
   54MOL   H22317289   2.138   2.398   7.493 -0.0715  0.8035 -1.2048
   54MOL   H22417290   2.283   2.254   7.789 -1.1853  1.7123  1.5466
   54MOL   H22517291   2.241   2.405   7.700 -1.8421 -0.0501  0.3146
   54MOL   C22617292   2.388   2.079   7.462 -0.6614  0.6304  0.8070
   54MOL   C22717293   2.332   2.030   7.328 -0.1127 -0.0424  0.2134
   54MOL   C22817294   2.526   2.002   7.497  0.0679  0.3965  0.8913
   54MOL   C22917295   2.514   1.847   7.519 -0.1247 -0.7162  0.2489
   54MOL   C23017296   2.549   1.759   7.392 -0.1699 -0.4676  0.7279
   54MOL   C23117297   2.485   1.802   7.646 -0.2971  0.1206  0.6775
   54MOL   H23217298   2.414   2.184   7.449  0.9404  0.2971  1.1445
   54MOL   H23317299   2.387   2.063   7.240  3.7255 -1.8082  1.8294
   54MOL   H23417300   2.232   2.065   7.305  0.3489  1.4861  0.4947
   54MOL   H23517301   2.333   1.924   7.304  1.1669  0.2360 -1.1019
   54MOL   H23617302   2.578   2.009   7.402 -0.4510  1.4599  0.6798
   54MOL   H23717303   2.457   1.747   7.335 -0.5439  0.8742  1.0224
   54MOL   H23817304   2.580   1.660   7.425  0.3594 -0.3321  0.6446
   54MOL   H23917305   2.628   1.797   7.326 -0.4872 -1.1958 -0.0734
   54MOL   H24017306   2.464   1.872   7.725  0.7378  1.8585 -0.5672
   54MOL   H24117307   2.477   1.694   7.651  1.3981  0.0618  2.5031
   54MOL   C24217308   2.609   2.067   7.611 -0.0748 -0.3478  0.5897
   54MOL   C24317309   2.620   2.220   7.596 -0.3506 -0.1566 -0.0461
   54MOL   C24417310   2.754   2.005   7.635 -0.1527  0.0638  0.7699
   54MOL   C24517311   2.791   2.029   7.786 -0.0999 -0.4419 -0.6277
   54MOL   C24617312   2.723   1.932   7.891  0.5659  0.4099 -0.0583
   54MOL   C24717313   2.865   2.129   7.833  0.0293 -0.1904 -0.2131
   54MOL   H24817314   2.547   2.057   7.700  0.1215  0.0005  0.7713
   54MOL   H24917315   2.689   2.263   7.668 -0.6572  0.2035  0.0346
   54MOL   H25017316   2.521   2.260   7.617 -0.1025  0.5827 -0.2484
   54MOL   H25117317   2.647   2.251   7.495  2.3571  0.8673  0.9528
   54MOL   H25217318   2.750   1.897   7.622  1.5504  0.0995 -0.2879
   54MOL   H25317319   2.618   1.958   7.882 -0.0663 -2.4741 -1.5455
   54MOL   H25417320   2.758   1.940   0.101 -0.9160  3.5855  0.2495
   54MOL   H25517321   2.730   1.824   7.875  0.7276  0.4582 -0.3301
   54MOL   H25617322   2.907   2.212   7.778 -0.0788 -0.3205 -0.4910
   54MOL   H25717323   2.879   2.132   0.048 -1.8726  0.9253  0.0363
   54MOL   C25817324   2.873   2.042   7.534 -0.9089  0.0229 -0.9336
   54MOL   C25917325   2.852   2.032   7.389  1.1420 -0.2970 -0.6275
   54MOL   C26017326   3.011   1.971   7.575 -0.1470  1.5272  0.2284
   54MOL   C26117327   3.130   2.045   7.521  0.5488  0.2430  0.1214
   54MOL   C26217328   3.164   2.161   7.611 -0.8580 -0.0580 -0.3260
   54MOL   C26317329   3.200   2.030   7.406 -0.4520 -0.4260 -0.3166
   54MOL   H26417330   2.898   2.146   7.555  1.0588 -0.4870 -0.7134
   54MOL   H26517331   2.796   2.121   7.358  0.3104 -0.6505 -0.1703
   54MOL   H26617332   2.781   1.950   7.377  4.0712 -2.7860 -1.5354
   54MOL   H26717333   2.939   2.017   7.326  0.2039 -0.9871 -1.7854
   54MOL   H26817334   3.013   1.995   7.682 -2.1436 -2.3814  1.2285
   54MOL   H26917335   3.247   2.222   7.576 -0.8203 -0.6179 -1.2412
   54MOL   H27017336   3.173   2.143   7.718  0.9679  0.1091 -0.4288
   54MOL   H27117337   3.089   2.237   7.628  1.4137  1.9712  0.8819
   54MOL   H27217338   3.170   1.947   7.345  0.6435 -0.1043 -1.3117
   54MOL   H27317339   3.281   2.099   7.386 -0.1087 -0.3827  1.1258
   54MOL   C27417340   3.027   1.821   7.561  0.1480  0.6571 -0.1003
   54MOL   C27517341   2.927   1.745   7.468 -0.6978  0.0223 -0.2459
   54MOL   C27617342   3.035   1.746   7.701 -0.6793 -0.2466 -0.2333
   54MOL   C27717343   3.122   1.814   7.803 -0.2239  0.2365 -0.0770
   54MOL   C27817344   3.268   1.829   7.770 -0.3249  0.4967 -0.0422
   54MOL   C27917345   3.083   1.859   0.033 -0.3579  0.5425  0.6253
   54MOL   H28017346   3.127   1.791   7.530 -1.1402 -2.4626 -1.5596
   54MOL   H28117347   2.946   1.638   7.462  4.0775  0.6749  0.9890
   54MOL   H28217348   2.931   1.783   7.366 -1.9621  2.3992  0.5519
   54MOL   H28317349   2.826   1.754   7.507  0.0656  1.6531  1.4783
   54MOL   H28417350   2.934   1.766   7.735 -0.6112  0.0625 -0.2087
   54MOL   H28517351   3.327   1.742   7.800 -1.4595 -0.5225 -0.7449
   54MOL   H28617352   3.317   1.908   7.827  0.6004 -0.6929  0.8520
   54MOL   H28717353   3.304   1.827   7.667  0.5421 -1.4580  0.2713
   54MOL   H28817354   2.984   1.851   0.074 -0.1174 -1.7249  0.8267
   54MOL   H28917355   3.159   1.900   0.098  2.5547 -0.1269 -2.1914
   54MOL   C29017356   3.065   1.590   7.703  0.3519  0.3331 -0.4576
   54MOL   C29117357   3.167   1.547   7.597 -0.0407  0.1644 -0.2747
   54MOL   C29217358   2.937   1.500   7.704  0.3607 -0.1679 -0.5771
   54MOL   C29317359   2.837   1.532   7.817  0.0053  0.8634 -0.7822
   54MOL   C29417360   2.688   1.562   7.784  0.8271 -0.1277 -0.3472
   54MOL   C29517361   2.886   1.541   0.053 -0.1928  0.1256  0.1569
   54MOL   H29617362   3.129   1.557   7.785  2.0296  2.2134 -0.9744
   54MOL   H29717363   3.199   1.448   7.628 -2.8293 -0.2674  1.3374
   54MOL   H29817364   3.256   1.610   7.603  0.3560 -0.5399  1.2531
   54MOL   H29917365   3.130   1.524   7.497 -1.9155 -2.1932  0.9184
   54MOL   H30017366   2.878   1.522   7.615 -0.5000  0.5787  0.1663
   54MOL   H30117367   2.644   1.468   7.752  0.6775  0.1822 -1.0674
   54MOL   H30217368   2.685   1.639   7.707  0.9307  1.1760  0.9298
   54MOL   H30317369   2.640   1.592   7.877 -0.4178  1.4705 -1.4755
   54MOL   H30417370   2.988   1.532   0.085  0.1827  1.5959 -0.5889
   54MOL   H30517371   2.817   1.576   0.128 -0.5513  1.5835 -0.8156
   54MOL   C30617372   2.952   1.346   7.698 -0.0069 -0.4381 -0.4473
   54MOL   C30717373   2.812   1.275   7.680  0.1329  0.1528  0.1603
   54MOL   C30817374   3.038   1.284   7.813  0.2329 -0.1322 -0.0441
   54MOL   C30917375   3.075   1.138   7.780 -0.2400 -0.4757 -0.6261
   54MOL   C31017376   3.212   1.128   7.708  0.6071 -0.1711  0.2756
   54MOL   C31117377   3.007   1.029   7.814  0.0785  0.4660 -0.4376
   54MOL   H31217378   3.004   1.324   7.605 -2.0981  0.9252 -1.9771
   54MOL   H31317379   2.823   1.169   7.656  1.5878  0.4130 -0.4020
   54MOL   H31417380   2.751   1.331   7.610 -2.2696 -0.5698  1.6174
   54MOL   H31517381   2.752   1.266   7.770  2.3903 -1.6087  1.5406
   54MOL   H31617382   3.135   1.332   7.829  0.9941 -1.5915 -0.2231
   54MOL   H31717383   3.220   1.031   7.660 -0.1818  0.7966 -1.8444
   54MOL   H31817384   3.300   1.135   7.773  0.8263 -0.8479  0.0587
   54MOL   H31917385   3.220   1.200   7.626 -0.1681 -0.2742  0.1132
   54MOL   H32017386   2.908   1.020   7.856  0.4638  0.1797  0.4389
   54MOL   H32117387   3.061   0.936   7.804 -0.8770 -0.0524 -0.8029
   54MOL   H32217388   2.981   1.284   0.014  1.4405 -1.4031  0.7010
   55MOL     C117389   6.369   4.201   6.223  0.1356  0.6344  0.2365
   55MOL     C217390   6.370   4.234   6.371  0.0009 -0.3835 -0.1644
   55MOL     C317391   6.262   4.100   6.179  0.1336  1.0189 -0.3979
   55MOL     C417392   6.289   3.956   6.228 -0.2017 -0.6504 -0.0231
   55MOL     C517393   6.180   3.898   6.314  0.5460 -0.0053  0.6061
   55MOL     C617394   6.403   3.895   6.215 -0.4254 -0.3811 -0.1175
   55MOL     H717395   6.336   4.298   6.184 -1.2827  0.9973  2.2557
   55MOL     H817396   6.452   4.301   6.397  0.7497 -1.1322 -0.5757
   55MOL     H917397   6.381   4.141   6.426  0.2073 -0.6335 -0.6309
   55MOL    H1017398   6.273   4.281   6.392  0.1918  0.2111 -0.5900
   55MOL    H1117399   6.172   4.123   6.237  1.0653 -0.5445  1.7446
   55MOL    H1217400   6.079   3.897   6.272 -0.3211  0.3835  2.6220
   55MOL    H1317401   6.175   3.950   6.409 -1.9434 -0.0693  0.5502
   55MOL    H1417402   6.199   3.793   6.335  0.5616  0.1657  1.4561
   55MOL    H1517403   6.488   3.925   6.155  0.2188  0.4347  1.1990
   55MOL    H1617404   6.417   3.799   6.264  0.6889 -0.2706 -0.2015
   55MOL    H1717405   6.459   4.167   6.173  0.0251  0.0874  0.4102
   55MOL    C1817406   6.225   4.103   6.026 -0.2656 -0.4081 -0.0884
   55MOL    C1917407   6.350   4.114   5.936 -0.5842 -0.5566  0.0897
   55MOL    C2017408   6.106   4.193   5.980 -0.1883 -0.4137 -0.6639
   55MOL    C2117409   5.982   4.191   6.064 -0.1236  0.0919  0.7425
   55MOL    C2217410   5.903   4.061   6.062 -0.2494  0.7472 -0.1236
   55MOL    C2317411   5.942   4.290   6.134  0.2676  0.0906 -0.4176
   55MOL    H2417412   6.193   3.999   6.014 -0.6255 -0.3482  0.3363
   55MOL    H2517413   6.328   4.110   5.829  1.1349  0.3370 -0.3288
   55MOL    H2617414   6.424   4.035   5.949  0.5008  0.4972  0.4666
   55MOL    H2717415   6.405   4.208   5.948 -2.0289  0.3438 -0.2019
   55MOL    H2817416   6.152   4.292   5.991 -0.4533 -0.2003 -1.4197
   55MOL    H2917417   5.967   3.982   6.103  0.0803 -0.3108 -2.6296
   55MOL    H3017418   5.862   4.031   5.966  1.3290  0.8875 -0.8575
   55MOL    H3117419   5.818   4.061   6.130  0.3268 -0.9403  0.6190
   55MOL    H3217420   5.994   4.385   6.137  2.6309 -1.1614 -0.6512
   55MOL    H3317421   5.848   4.276   6.187 -0.2860  1.7610 -0.9228
   55MOL    C3417422   6.061   4.183   5.829 -0.0839  0.8361  0.2364
   55MOL    C3517423   6.075   4.036   5.778  0.6874  0.0668 -0.1526
   55MOL    C3617424   6.109   4.294   5.730 -0.0866  0.1247 -0.0541
   55MOL    C3717425   6.070   4.437   5.786 -0.5401 -0.0235 -0.2754
   55MOL    C3817426   6.170   4.545   5.748 -0.3649 -0.0902  1.2512
   55MOL    C3917427   5.952   4.470   5.847 -0.2129  0.1067  0.2423
   55MOL    H4017428   5.954   4.204   5.834 -0.0153  1.5923 -1.1595
   55MOL    H4117429   6.000   4.016   5.702  0.5400  1.2384 -0.3325
   55MOL    H4217430   6.063   3.962   5.857 -0.0267  2.7218  2.3546
   55MOL    H4317431   6.167   4.031   5.721  1.7014  3.3530  1.0581
   55MOL    H4417432   6.218   4.288   5.719  0.0496 -0.3578  1.5308
   55MOL    H4517433   6.135   4.648   5.758 -1.0641 -0.2407  0.3939
   55MOL    H4617434   6.204   4.529   5.646  1.7533  1.8484  1.6142
   55MOL    H4717435   6.260   4.540   5.809 -0.3774  3.3454  1.6583
   55MOL    H4817436   5.877   4.394   5.866  0.6644 -0.1199  3.0470
   55MOL    H4917437   5.929   4.572   5.874  4.1354  0.7174  2.1556
   55MOL    C5017438   6.045   4.285   5.578 -0.1528  0.6450  0.8107
   55MOL    C5117439   5.901   4.241   5.568 -0.3449  1.0965  0.1721
   55MOL    C5217440   6.132   4.210   5.463  0.0674  0.3363 -0.3015
   55MOL    C5317441   6.280   4.255   5.451 -0.3805  0.3014 -0.8957
   55MOL    C5417442   6.309   4.378   5.379  0.0355  0.5574 -0.2942
   55MOL    C5517443   6.380   4.182   5.506 -0.4074 -0.1775  0.6261
   55MOL    H5617444   6.041   4.385   5.536 -3.1534 -0.2744 -1.3174
   55MOL    H5717445   5.900   4.132   5.557 -2.4944  1.1323 -0.2356
   55MOL    H5817446   5.851   4.290   5.484  0.4053  0.4464 -0.6709
   55MOL    H5917447   5.846   4.276   5.655 -1.0589 -0.1739  0.2394
   55MOL    H6017448   6.147   4.111   5.506 -1.9123 -0.1959 -0.8055
   55MOL    H6117449   6.301   4.364   5.271 -4.0852 -0.0054  0.0012
   55MOL    H6217450   6.411   4.413   5.396  0.6041 -0.2079 -2.0019
   55MOL    H6317451   6.237   4.452   5.414  0.1105 -0.1564  1.4205
   55MOL    H6417452   6.360   4.093   5.565 -3.7136 -0.9310 -1.5123
   55MOL    H6517453   6.483   4.215   5.506 -0.8698  1.3266  0.4025
   55MOL    C6617454   6.069   4.186   5.316  0.2919  0.7238 -0.3356
   55MOL    C6717455   6.012   4.320   5.268  0.4611  0.1536  0.0638
   55MOL    C6817456   5.978   4.065   5.289  0.3225  0.5888  0.0392
   55MOL    C6917457   6.027   3.935   5.370  0.2166  0.0388  0.1085
   55MOL    C7017458   6.161   3.886   5.350  0.0863  0.7093  0.1415
   55MOL    C7117459   5.940   3.871   5.456  1.0456  0.0261 -0.0098
   55MOL    H7217460   6.156   4.168   5.254  0.8025 -0.3400  0.6823
   55MOL    H7317461   5.904   4.336   5.270  0.0239 -2.1190 -2.6611
   55MOL    H7417462   6.047   4.340   5.167  0.6536 -3.2138 -0.5809
   55MOL    H7517463   6.056   4.402   5.325  0.7978  0.3126 -0.4246
   55MOL    H7617464   5.884   4.081   5.343 -1.1341 -0.2736 -2.1626
   55MOL    H7717465   6.169   3.792   5.405 -0.2192  0.8675  0.4577
   55MOL    H7817466   6.241   3.952   5.383 -0.3993  0.0562  2.6827
   55MOL    H7917467   6.189   3.863   5.247 -1.0386  0.5024 -0.1252
   55MOL    H8017468   5.841   3.909   5.472  1.8236  2.7844 -1.5089
   55MOL    H8117469   5.955   3.782   5.516  0.4087 -0.7549 -1.0054
   55MOL    C8217470   5.945   4.020   5.138  0.5923 -0.1518 -0.1814
   55MOL    C8317471   6.055   4.055   5.032  0.2775 -0.5668  0.6145
   55MOL    C8417472   5.810   4.079   5.096  0.0066 -0.2252  0.4970
   55MOL    C8517473   5.695   4.051   5.195 -0.1335  0.4869 -0.1120
   55MOL    C8617474   5.616   4.176   5.233 -0.1921  0.0509  0.0660
   55MOL    C8717475   5.674   3.931   5.251  0.9359  0.3686  0.1888
   55MOL    H8817476   5.938   3.911   5.139 -3.9028  0.0332  4.5438
   55MOL    H8917477   6.039   4.009   4.934  1.3928 -0.3146  0.3061
   55MOL    H9017478   6.149   4.017   5.071  1.4636  0.9213 -0.7237
   55MOL    H9117479   6.078   4.161   5.020  0.9898 -0.3260  3.7784
   55MOL    H9217480   5.837   4.184   5.108  0.1917 -0.3227  0.9868
   55MOL    H9317481   5.569   4.212   5.142  0.7823 -1.1869 -0.9449
   55MOL    H9417482   5.676   4.253   5.281 -0.2218  1.1366 -1.6267
   55MOL    H9517483   5.527   4.150   5.290  0.0213  1.2901  0.9817
   55MOL    H9617484   5.735   3.846   5.225  3.3314  1.8554  0.7517
   55MOL    H9717485   5.591   3.916   5.319 -0.0595  1.3823 -0.7934
   55MOL    C9817486   5.760   4.055   4.947 -0.0933 -0.0411  0.4821
   55MOL    C9917487   5.773   3.900   4.913 -0.6181 -0.3203 -0.1454
   55MOL   C10017488   5.806   4.154   4.832 -0.1779  0.5457 -0.6631
   55MOL   C10117489   5.792   4.298   4.864 -0.0145  0.0125 -0.1297
   55MOL   C10217490   5.665   4.351   4.935  0.2289  0.5612  0.3527
   55MOL   C10317491   5.890   4.389   4.846 -0.2654 -0.0435  0.1197
   55MOL   H10417492   5.651   4.056   4.953 -0.1332  1.9568 -0.3508
   55MOL   H10517493   5.701   3.842   4.972 -0.2794 -1.6147 -0.9734
   55MOL   H10617494   5.875   3.870   4.936 -0.9444 -0.8581  0.6254
   55MOL   H10717495   5.750   3.871   4.810 -0.5989 -0.0800 -0.2172
   55MOL   H10817496   5.914   4.149   4.818  0.1448  3.1000  0.5795
   55MOL   H10917497   5.673   4.338   5.043 -2.0906 -2.5433  0.2235
   55MOL   H11017498   5.572   4.312   4.893  0.0674  0.5199  0.7472
   55MOL   H11117499   5.674   4.458   4.914  2.1528  0.3480 -0.0005
   55MOL   H11217500   5.990   4.369   4.809  0.8407  0.3034  2.8517
   55MOL   H11317501   5.876   4.495   4.864 -3.0123 -0.1273 -1.3188
   55MOL   C11417502   5.743   4.126   4.689  0.0690 -0.3227  0.2734
   55MOL   C11517503   5.595   4.080   4.689 -0.4724 -0.7952  0.2359
   55MOL   C11617504   5.833   4.048   4.584  0.0325  0.1028 -1.0573
   55MOL   C11717505   5.985   4.063   4.601 -0.2992  0.2816  0.3225
   55MOL   C11817506   6.060   3.955   4.663  0.0028  0.4636  0.2498
   55MOL   C11917507   6.046   4.174   4.550  0.5801 -0.7883 -0.3210
   55MOL   H12017508   5.732   4.224   4.642 -0.6845  0.3241  1.7511
   55MOL   H12117509   5.539   4.158   4.741  1.0789  1.5011 -1.4364
   55MOL   H12217510   5.586   3.988   4.746  0.1124 -0.8019  0.3181
   55MOL   H12317511   5.543   4.063   4.594 -0.8295  1.4896 -0.0155
   55MOL   H12417512   5.804   3.949   4.621 -3.1941  2.4376  3.1189
   55MOL   H12517513   6.101   3.884   4.592  1.1996  0.6992  0.7008
   55MOL   H12617514   6.005   3.901   4.740  2.1876 -2.7523 -0.3479
   55MOL   H12717515   6.153   3.994   4.704  1.0309 -1.4137 -0.2505
   55MOL   H12817516   5.990   4.256   4.507 -0.4596 -1.2351  0.1567
   55MOL   H12917517   6.153   4.183   4.559  0.6526 -0.6815 -1.3130
   55MOL   C13017518   5.784   4.047   4.432  0.1186 -0.0069  0.5401
   55MOL   C13117519   5.720   4.188   4.396  0.0257  0.4295  0.0691
   55MOL   C13217520   5.703   3.920   4.379  0.3911 -0.6068  0.6066
   55MOL   C13317521   5.792   3.791   4.391  0.8354 -0.5925 -0.4228
   55MOL   C13417522   5.721   3.657   4.397  0.0218  0.0990  0.1223
   55MOL   C13517523   5.929   3.781   4.386  0.1960  0.2719  0.1137
   55MOL   H13617524   5.876   4.051   4.373 -0.0835 -1.2719  0.1267
   55MOL   H13717525   5.720   4.215   4.290 -3.5197  0.0687 -0.0618
   55MOL   H13817526   5.761   4.278   4.442 -0.3143  1.6086 -1.8799
   55MOL   H13917527   5.616   4.196   4.427 -0.3447 -0.4376 -0.9097
   55MOL   H14017528   5.627   3.897   4.454  0.3260  1.5965  1.2603
   55MOL   H14117529   5.790   3.575   4.417 -0.9431 -0.9614 -0.8072
   55MOL   H14217530   5.658   3.629   4.313  0.5773  0.4178 -0.3996
   55MOL   H14317531   5.662   3.661   4.489  2.9981 -2.9748  2.3214
   55MOL   H14417532   5.993   3.869   4.382  0.0737  0.2846 -2.5312
   55MOL   H14517533   5.979   3.686   4.389  2.6505  1.5634  2.3698
   55MOL   C14617534   5.641   3.925   4.234 -0.2443 -0.4995 -0.0476
   55MOL   C14717535   5.742   3.976   4.136 -0.2472  0.2546 -0.9134
   55MOL   C14817536   5.499   3.986   4.211  0.3931  0.3078 -0.0225
   55MOL   C14917537   5.404   3.944   4.315  0.0547  0.2363 -0.4318
   55MOL   C15017538   5.320   4.053   4.386  0.6120  0.2165  0.4025
   55MOL   C15117539   5.388   3.814   4.338 -0.5851 -0.1189  0.6077
   55MOL   H15217540   5.633   3.820   4.204 -2.3767 -0.0367 -1.1869
   55MOL   H15317541   5.844   3.964   4.174 -0.5875  1.3039  0.3775
   55MOL   H15417542   5.735   4.083   4.118  1.7427  0.4457 -0.6626
   55MOL   H15517543   5.737   3.923   4.040  1.0680 -0.2296 -0.7227
   55MOL   H15617544   5.509   4.092   4.237 -2.9732  0.3599  1.3095
   55MOL   H15717545   5.294   4.013   4.484 -1.4033  1.6188  0.4896
   55MOL   H15817546   5.232   4.086   4.331  2.0487  2.5008 -0.6005
   55MOL   H15917547   5.379   4.143   4.406 -0.2552  0.4623  2.0342
   55MOL   H16017548   5.449   3.747   4.279 -2.3107  0.7120 -2.2145
   55MOL   H16117549   5.324   3.779   4.418 -1.2151 -1.8860 -0.6387
   55MOL   C16217550   5.437   3.965   4.061 -0.1025 -0.0243  0.3872
   55MOL   C16317551   5.471   3.830   4.002  0.2074  0.3348 -0.0142
   55MOL   C16417552   5.448   4.088   3.963  0.6165 -0.3633 -1.0176
   55MOL   C16517553   5.427   4.225   4.028 -0.3775  0.3405 -0.4434
   55MOL   C16617554   5.280   4.258   4.068  0.1084  0.2869 -0.0016
   55MOL   C16717555   5.532   4.305   4.042 -1.5670 -1.2541 -0.1447
   55MOL   H16817556   5.332   3.953   4.086 -0.0183 -0.1641  0.6733
   55MOL   H16917557   5.463   3.739   4.062  1.3612  0.9423  1.0887
   55MOL   H17017558   5.575   3.836   3.970  0.2834  0.8819  0.3247
   55MOL   H17117559   5.413   3.809   3.913  1.4689  1.6146 -1.1538
   55MOL   H17217560   5.557   4.084   3.965  0.6681  1.3630  0.2881
   55MOL   H17317561   5.213   4.273   3.984 -1.3469  0.3409  1.1451
   55MOL   H17417562   5.281   4.352   4.123  2.3551  0.3176 -0.0419
   55MOL   H17517563   5.240   4.178   4.130 -0.7392  1.4757  1.0033
   55MOL   H17617564   5.628   4.277   4.002 -0.6239  1.8715 -0.1240
   55MOL   H17717565   5.516   4.401   4.089  2.6017 -0.4166 -0.3225
   55MOL   C17817566   5.383   4.076   3.823  0.0126 -0.6469 -0.1965
   55MOL   C17917567   5.242   4.010   3.818 -0.2351  0.4247  0.1147
   55MOL   C18017568   5.488   4.027   3.715 -0.1952 -0.3074 -0.1030
   55MOL   C18117569   5.629   4.092   3.732  0.0184  0.3366 -0.3004
   55MOL   C18217570   5.742   3.993   3.736 -0.4132  0.3560 -0.4709
   55MOL   C18317571   5.659   4.223   3.737  0.2599  0.2536  0.1310
   55MOL   H18417572   5.359   4.179   3.794  0.2818 -0.2358  0.9979
   55MOL   H18517573   5.185   4.042   3.731  1.9907  0.0498 -1.5077
   55MOL   H18617574   5.177   4.037   3.902 -2.0422 -0.4891 -0.9618
   55MOL   H18717575   5.248   3.901   3.810  3.5201  0.3532  2.5954
   55MOL   H18817576   5.513   3.924   3.740  0.7395 -0.9501 -3.3988
   55MOL   H18917577   5.826   4.034   3.791  0.3065 -0.2934 -1.0745
   55MOL   H19017578   5.771   3.967   3.634  1.0906  0.4307 -0.0745
   55MOL   H19117579   5.725   3.896   3.784  3.2029 -0.9279 -1.6085
   55MOL   H19217580   5.582   4.299   3.738 -0.6259 -0.5876 -1.7247
   55MOL   H19317581   5.761   4.255   3.723  0.2913  0.9838  1.8723
   55MOL   C19417582   5.447   4.022   3.564  0.0841  0.0806 -0.6221
   55MOL   C19517583   5.368   4.149   3.516 -0.3896  0.4041  0.1741
   55MOL   C19617584   5.379   3.882   3.532 -0.6264  0.0231 -1.0256
   55MOL   C19717585   5.469   3.761   3.564  0.4152  0.6201 -0.4258
   55MOL   C19817586   5.394   3.644   3.629  0.6038 -0.3971 -0.3221
   55MOL   C19917587   5.597   3.758   3.533  0.1481  0.4813 -0.1908
   55MOL   H20017588   5.537   4.027   3.502  0.9512 -1.4866  0.4715
   55MOL   H20117589   5.370   4.162   3.408  1.6642  1.2601  0.2975
   55MOL   H20217590   5.414   4.241   3.554 -0.5233 -0.0348  1.4110
   55MOL   H20317591   5.268   4.154   3.560 -0.0083  1.0693  0.9836
   55MOL   H20417592   5.298   3.871   3.603  0.4363  1.1705  0.3893
   55MOL   H20517593   5.356   3.677   3.726  1.3729  2.1417 -0.8519
   55MOL   H20617594   5.455   3.555   3.645 -0.1300 -1.0158 -0.8747
   55MOL   H20717595   5.325   3.601   3.557  2.9045 -0.7151 -2.3776
   55MOL   H20817596   5.661   3.832   3.488  0.6275 -0.1770 -0.5896
   55MOL   H20917597   5.649   3.664   3.547  0.4285  0.5690 -0.6485
   55MOL   C21017598   5.319   3.872   3.385 -0.6662  0.0104  0.2616
   55MOL   C21117599   5.437   3.889   3.284  0.2275 -0.4214 -0.7515
   55MOL   C21217600   5.181   3.945   3.351 -0.7479 -0.0595 -0.2904
   55MOL   C21317601   5.090   3.927   3.466 -0.3565 -0.5568 -0.1939
   55MOL   C21417602   5.047   3.792   3.514  0.3571 -0.8035  0.2770
   55MOL   C21517603   5.039   4.036   3.531  0.3428  0.4442  0.5964
   55MOL   H21617604   5.290   3.767   3.375 -2.3242  0.7449 -3.4980
   55MOL   H21717605   5.419   3.821   3.201  2.6615 -0.1579 -1.5311
   55MOL   H21817606   5.536   3.854   3.311  0.9749  0.8390 -1.7727
   55MOL   H21917607   5.445   3.992   3.247  0.2916  0.0254  0.4929
   55MOL   H22017608   5.203   4.052   3.344 -0.4541  0.0170  1.4853
   55MOL   H22117609   5.025   3.728   3.429  0.1006  0.0698 -0.3323
   55MOL   H22217610   4.959   3.795   3.579 -0.7481 -0.0911 -1.2063
   55MOL   H22317611   5.121   3.729   3.562  3.7798 -0.8829 -4.7568
   55MOL   H22417612   5.060   4.139   3.508  0.9741  0.1840 -0.0026
   55MOL   H22517613   4.966   4.032   3.611 -0.9051 -0.7115 -0.5711
   55MOL   C22617614   5.118   3.917   3.210  0.0097  0.1433 -0.0592
   55MOL   C22717615   5.208   3.915   3.091  0.4881 -0.1609 -0.2495
   55MOL   C22817616   4.979   3.978   3.190  0.3269  0.2536 -0.1671
   55MOL   C22917617   4.885   3.878   3.133 -0.0505  0.0111  0.3681
   55MOL   C23017618   4.886   3.851   2.988 -0.5547  0.4952  0.5796
   55MOL   C23117619   4.807   3.803   3.218 -0.4386 -0.5626  0.1796
   55MOL   H23217620   5.104   3.810   3.227  1.9405 -0.1332 -0.1627
   55MOL   H23317621   5.296   3.977   3.106 -0.1221  0.9226 -1.0947
   55MOL   H23417622   5.164   3.955   3.000  0.5184 -0.7573 -0.5322
   55MOL   H23517623   5.251   3.815   3.076  1.9665  0.5486 -0.8694
   55MOL   H23617624   4.935   3.993   3.289 -1.4080 -2.2294 -0.5082
   55MOL   H23717625   4.884   3.941   2.927  0.1857  1.1356  1.4835
   55MOL   H23817626   4.798   3.794   2.959  1.0974 -2.1988  0.7406
   55MOL   H23917627   4.977   3.801   2.957 -2.0904 -2.9058  1.3795
   55MOL   H24017628   4.805   3.810   3.325  1.0000  0.1043  0.1774
   55MOL   H24117629   4.743   3.726   3.179 -1.3440  1.0984 -1.7142
   55MOL   C24217630   4.970   4.119   3.125  0.0271 -0.2539 -0.7796
   55MOL   C24317631   5.077   4.216   3.177  0.1699 -0.2786  0.5225
   55MOL   C24417632   4.827   4.181   3.098  0.2022  0.6675  0.0534
   55MOL   C24517633   4.811   4.257   2.966  0.7073  0.1846  0.5863
   55MOL   C24617634   4.783   4.166   2.843  0.0169  0.4705  0.4145
   55MOL   C24717635   4.826   4.387   2.949  0.2174 -0.1227 -0.4380
   55MOL   H24817636   5.008   4.098   3.025 -0.4830  0.0502 -1.0334
   55MOL   H24917637   5.059   4.317   3.139 -0.8137 -0.7393 -0.2568
   55MOL   H25017638   5.176   4.181   3.149  0.0759 -1.0357  1.1257
   55MOL   H25117639   5.074   4.221   3.286 -2.1545  1.8245  0.4016
   55MOL   H25217640   4.759   4.096   3.088  1.1854  0.0061 -1.0079
   55MOL   H25317641   4.877   4.117   2.815 -0.3967  1.0089 -2.0416
   55MOL   H25417642   4.741   4.225   2.761 -0.1129 -1.8609 -1.2526
   55MOL   H25517643   4.706   4.094   2.871  0.4117  0.7350  2.2195
   55MOL   H25617644   4.844   4.448   3.037 -0.0575 -2.1408  1.0498
   55MOL   H25717645   4.817   4.431   2.851  3.2779  0.0234 -0.6964
   55MOL   C25817646   4.761   4.258   3.218  0.5638 -0.3173 -0.6059
   55MOL   C25917647   4.775   4.192   3.356  0.1740 -0.0029  0.7205
   55MOL   C26017648   4.610   4.299   3.205  0.6091 -0.3959  0.0421
   55MOL   C26117649   4.585   4.440   3.262 -0.4975  0.5186  0.4008
   55MOL   C26217650   4.620   4.556   3.172  0.3279  0.2854 -0.1711
   55MOL   C26317651   4.566   4.464   3.390 -0.1824 -0.6747 -0.1982
   55MOL   H26417652   4.814   4.353   3.224  0.9442 -0.5840  0.3198
   55MOL   H26517653   4.736   4.249   3.441 -0.1461 -1.3193  1.4609
   55MOL   H26617654   4.880   4.177   3.380  0.6577 -1.9415 -2.3054
   55MOL   H26717655   4.733   4.092   3.348  4.6702 -1.9804  0.0544
   55MOL   H26817656   4.597   4.313   3.097  1.2159  0.6992  0.1073
   55MOL   H26917657   4.724   4.578   3.193 -0.1676  0.9547  1.6860
   55MOL   H27017658   4.567   4.645   3.204 -0.0912 -0.6688  1.8717
   55MOL   H27117659   4.597   4.534   3.068 -1.6288  2.3030 -0.2051
   55MOL   H27217660   4.555   4.388   3.467  0.8457 -2.5016 -1.8206
   55MOL   H27317661   4.562   4.564   3.430 -0.0113 -0.2757 -1.1830
   55MOL   C27417662   4.495   4.198   3.241  0.1697 -0.1673 -0.5471
   55MOL   C27517663   4.502   4.052   3.184 -0.2540  0.6848 -0.5279
   55MOL   C27617664   4.348   4.249   3.227  0.6758 -0.1160  0.7379
   55MOL   C27717665   4.260   4.188   3.337 -0.2811 -0.1019 -0.0476
   55MOL   C27817666   4.243   4.265   3.464 -0.4859  0.1064 -0.3693
   55MOL   C27917667   4.183   4.075   3.327 -0.5953  0.1897 -0.1891
   55MOL   H28017668   4.497   4.189   3.349 -4.2861 -2.5025 -0.5097
   55MOL   H28117669   4.581   3.991   3.228  0.2516  1.4107 -0.4126
   55MOL   H28217670   4.544   4.059   3.084  0.9861 -2.8841 -0.3416
   55MOL   H28317671   4.412   3.990   3.178  1.0986 -1.2618 -1.1106
   55MOL   H28417672   4.352   4.354   3.254  1.5212  0.2125 -0.6277
   55MOL   H28517673   4.167   4.341   3.448 -0.1952  0.5460  0.3072
   55MOL   H28617674   4.329   4.325   3.493 -0.1972  2.1802 -5.1661
   55MOL   H28717675   4.211   4.197   3.544  0.5699  1.4578  1.2535
   55MOL   H28817676   4.187   4.006   3.244  0.5580 -0.5986  0.4980
   55MOL   H28917677   4.120   4.051   3.411  1.1052 -3.0529  0.2387
   55MOL   C29017678   4.288   4.250   3.087  0.5731  0.6464 -0.3298
   55MOL   C29117679   4.378   4.278   2.965  0.3318  0.1097 -0.2557
   55MOL   C29217680   4.141   4.318   3.078  0.0677 -0.2788 -0.0515
   55MOL   C29317681   4.033   4.227   3.012  0.7118 -0.3570  0.2098
   55MOL   C29417682   4.055   4.189   2.866 -0.4333  0.2466  0.1191
   55MOL   C29517683   3.931   4.175   3.082  0.2115 -0.0083  0.0214
   55MOL   H29617684   4.275   4.142   3.074 -0.3876  0.8086 -0.7477
   55MOL   H29717685   4.465   4.213   2.961  1.8536  1.7635  3.4548
   55MOL   H29817686   4.414   4.380   2.955 -2.4875  1.2145  0.3018
   55MOL   H29917687   4.335   4.253   2.868  1.0654 -4.0467  0.3758
   55MOL   H30017688   4.101   4.317   3.180 -1.6115  0.4492 -0.6807
   55MOL   H30117689   3.956   4.170   2.823 -0.2646  3.2393 -1.7065
   55MOL   H30217690   4.119   4.105   2.838 -2.9005 -0.6741 -3.1895
   55MOL   H30317691   4.096   4.272   2.809  0.8151  0.2257  0.9833
   55MOL   H30417692   3.911   4.202   3.185 -1.7806 -0.7010 -0.1507
   55MOL   H30517693   3.861   4.103   3.040 -1.8977  1.8500  0.2672
   55MOL   C30617694   4.139   4.468   3.018  0.4764  0.0437 -0.5352
   55MOL   C30717695   4.207   4.567   3.110 -0.1396 -0.6106 -0.1687
   55MOL   C30817696   4.003   4.511   2.975  0.7153 -0.5869  0.2564
   55MOL   C30917697   3.995   4.650   2.909  0.1345 -0.0564 -0.0638
   55MOL   C31017698   3.910   4.754   2.976  0.3635 -0.3495 -0.1823
   55MOL   C31117699   4.047   4.682   2.789  0.1495 -0.0639 -0.5905
   55MOL   H31217700   4.208   4.469   2.934 -0.6493  0.4220 -1.4752
   55MOL   H31317701   4.155   4.569   3.206  0.5164  0.4291  0.1665
   55MOL   H31417702   4.205   4.670   3.074 -1.0456  0.4807  2.9004
   55MOL   H31517703   4.310   4.539   3.130  0.3140  1.6081  0.7142
   55MOL   H31617704   3.965   4.459   2.887  1.2369  0.7780 -0.8011
   55MOL   H31717705   3.887   4.833   2.905  0.1095  0.2284  0.5380
   55MOL   H31817706   3.968   4.797   3.058 -3.2209  0.5393  1.9727
   55MOL   H31917707   3.815   4.713   3.010  0.5290 -0.4526  0.1628
   55MOL   H32017708   4.117   4.614   2.743  1.1056 -0.3637  1.2609
   55MOL   H32117709   4.028   4.774   2.736  0.3974  1.5089  1.9723
   55MOL   H32217710   3.916   4.500   3.040  0.2669  0.1895 -0.2006
   56MOL     C117711   5.882   5.414   1.351 -0.1402  0.6649  0.0984
   56MOL     C217712   5.794   5.531   1.412 -0.1256  0.5386 -0.5086
   56MOL     C317713   6.020   5.396   1.440  0.1426  0.1908 -0.3433
   56MOL     C417714   6.100   5.521   1.435  0.4673 -0.4140  0.6855
   56MOL     C517715   6.145   5.575   1.303  0.5268 -0.0157  0.3640
   56MOL     C617716   6.133   5.590   1.545  0.2156 -0.6980  0.0842
   56MOL     H717717   5.828   5.319   1.344  0.6386  0.0407  2.0427
   56MOL     H817718   5.723   5.563   1.336 -1.1545  0.0320  0.2372
   56MOL     H917719   5.850   5.619   1.444  0.9554 -0.2948 -0.0762
   56MOL    H1017720   5.731   5.489   1.491  0.9263 -0.8067 -0.3696
   56MOL    H1117721   5.984   5.377   1.541  0.0991 -1.5708 -0.6774
   56MOL    H1217722   6.224   5.506   1.270 -0.5452 -1.7827  1.3938
   56MOL    H1317723   6.201   5.668   1.313  0.9233 -0.2218  0.1172
   56MOL    H1417724   6.073   5.599   1.225 -0.4096  0.5139  1.3806
   56MOL    H1517725   6.095   5.571   1.644 -0.6099  0.6227  0.0242
   56MOL    H1617726   6.204   5.671   1.543 -2.7880  2.0652  0.5507
   56MOL    H1717727   5.899   5.436   1.246 -1.3781 -1.8382 -0.6823
   56MOL    C1817728   6.103   5.275   1.390 -0.3239 -0.2424 -0.2968
   56MOL    C1917729   6.093   5.260   1.233 -0.0248  0.3043 -0.1628
   56MOL    C2017730   6.086   5.143   1.477 -0.5693 -0.5972  0.0253
   56MOL    C2117731   5.957   5.075   1.458  0.1849 -0.0460  0.4516
   56MOL    C2217732   5.837   5.112   1.540 -0.4396 -0.8728  0.0654
   56MOL    C2317733   5.940   4.979   1.370 -0.0351  0.2575 -1.2492
   56MOL    H2417734   6.209   5.293   1.405 -0.1765 -0.8873 -0.5686
   56MOL    H2517735   5.994   5.221   1.206 -1.1413  2.2309  1.0287
   56MOL    H2617736   6.175   5.199   1.196 -0.4463 -0.1414 -0.3755
   56MOL    H2717737   6.107   5.354   1.181  2.0060  0.1230  0.0113
   56MOL    H2817738   6.155   5.078   1.424  0.7280 -1.3446  2.5525
   56MOL    H2917739   5.799   5.030   1.600  0.2602  1.3913  3.7291
   56MOL    H3017740   5.754   5.162   1.488 -0.6401  0.7325  1.8536
   56MOL    H3117741   5.848   5.193   1.612  1.4900 -0.8922 -0.1908
   56MOL    H3217742   6.013   4.939   1.301  2.1965  2.5926 -0.3067
   56MOL    H3317743   5.840   4.938   1.369 -1.7971  4.2919  0.5646
   56MOL    C3417744   6.139   5.152   1.630  0.1067  0.5690 -0.3599
   56MOL    C3517745   6.290   5.186   1.631  0.6901 -0.2214  0.1266
   56MOL    C3617746   6.098   5.035   1.732 -0.1909  0.6061 -0.0753
   56MOL    C3717747   6.088   5.099   1.870 -0.1518 -0.2100 -0.0394
   56MOL    C3817748   5.949   5.127   1.916 -0.5600 -0.6639  0.1707
   56MOL    C3917749   6.195   5.123   1.945 -0.4244 -0.6567 -0.1647
   56MOL    H4017750   6.097   5.237   1.683 -1.4699  0.1020 -0.8383
   56MOL    H4117751   6.318   5.286   1.599 -2.1523  0.5151 -0.1850
   56MOL    H4217752   6.356   5.117   1.578  1.3954  0.8495 -0.4052
   56MOL    H4317753   6.325   5.195   1.734  2.0168  1.5117 -0.4522
   56MOL    H4417754   5.993   5.007   1.718 -0.0347 -0.9522  1.6557
   56MOL    H4517755   5.944   5.183   2.009 -2.7050  2.2391 -1.5955
   56MOL    H4617756   5.894   5.035   1.935 -1.1509 -0.7279 -1.7525
   56MOL    H4717757   5.891   5.186   1.845 -0.8855 -0.2771  0.7555
   56MOL    H4817758   6.297   5.100   1.921 -0.6293 -2.2476  0.4339
   56MOL    H4917759   6.187   5.159   2.047 -1.7761 -1.9833  0.2174
   56MOL    C5017760   6.180   4.901   1.730 -0.2784  0.2482  0.1270
   56MOL    C5117761   6.199   4.845   1.592  0.2519 -0.3972 -0.1990
   56MOL    C5217762   6.142   4.779   1.830  0.2957 -0.6449 -0.0762
   56MOL    C5317763   6.282   4.716   1.867  0.8522 -0.8794  0.0163
   56MOL    C5417764   6.359   4.782   1.976  0.4922  0.1494  0.2904
   56MOL    C5517765   6.331   4.615   1.806 -0.1459  0.0613  0.5747
   56MOL    H5617766   6.282   4.935   1.751 -0.2240  0.1756 -0.0159
   56MOL    H5717767   6.242   4.746   1.585 -0.4362 -0.7021 -0.1547
   56MOL    H5817768   6.276   4.905   1.544  0.8834 -1.2053 -0.1833
   56MOL    H5917769   6.112   4.845   1.527  1.0067  0.1210 -1.2097
   56MOL    H6017770   6.089   4.825   1.913 -0.2645 -1.5700  0.0722
   56MOL    H6117771   6.362   4.889   1.953  1.0142 -0.0488 -0.5916
   56MOL    H6217772   6.464   4.755   1.983  0.5152  0.5683  1.5874
   56MOL    H6317773   6.310   4.769   2.072  0.1544 -0.5267  0.0310
   56MOL    H6417774   6.278   4.581   1.718 -1.9853  0.7337  1.4021
   56MOL    H6517775   6.424   4.565   1.828  1.0754  2.2611  0.5895
   56MOL    C6617776   6.029   4.671   1.780  0.3075 -0.2894 -0.5028
   56MOL    C6717777   5.893   4.738   1.745 -0.5305 -0.3086  0.0959
   56MOL    C6817778   6.006   4.540   1.875 -0.1023  0.2239  0.0438
   56MOL    C6917779   5.970   4.410   1.791 -0.6256  0.7513 -0.1743
   56MOL    C7017780   6.087   4.328   1.737 -0.4639 -0.1553  0.3118
   56MOL    C7117781   5.850   4.368   1.754 -0.9395 -0.3070 -0.3226
   56MOL    H7217782   6.064   4.620   1.690  0.4711  0.3796 -0.8184
   56MOL    H7317783   5.891   4.797   1.653 -0.5777  2.1742  1.6565
   56MOL    H7417784   5.845   4.794   1.825  0.8455  0.4454  0.4152
   56MOL    H7517785   5.829   4.655   1.715  1.2431 -1.8748  0.5186
   56MOL    H7617786   6.104   4.514   1.917  0.4078  2.2982  0.2197
   56MOL    H7717787   6.138   4.393   1.665  0.7530 -1.8877 -0.4309
   56MOL    H7817788   6.068   4.240   1.675 -1.2375 -0.4616  0.9759
   56MOL    H7917789   6.160   4.302   1.814  0.7749  1.9889 -0.0882
   56MOL    H8017790   5.763   4.425   1.781 -3.1756 -3.6416 -0.1808
   56MOL    H8117791   5.833   4.280   1.694 -0.7960 -2.0333  2.0806
   56MOL    C8217792   5.906   4.553   1.992  0.1869  0.0013  0.4470
   56MOL    C8317793   5.957   4.665   2.087  0.2499  0.0825  0.6893
   56MOL    C8417794   5.859   4.419   2.080 -0.4237 -0.2264  0.5125
   56MOL    C8517795   5.716   4.445   2.124  0.4856  0.2757 -0.1225
   56MOL    C8617796   5.604   4.393   2.025  0.4224  0.2867  0.6876
   56MOL    C8717797   5.679   4.507   2.242 -0.2406 -0.0427 -0.5802
   56MOL    H8817798   5.810   4.590   1.957  0.4254  0.3655  0.1826
   56MOL    H8917799   5.921   4.757   2.042 -1.0190 -2.3108 -3.4939
   56MOL    H9017800   6.065   4.672   2.100 -0.0610  0.7677  3.0694
   56MOL    H9117801   5.905   4.664   2.182 -1.4587  0.2383 -0.2278
   56MOL    H9217802   5.839   4.336   2.013  0.5042 -1.4744  1.7328
   56MOL    H9317803   5.581   4.290   2.051  0.7038 -0.2203 -0.9959
   56MOL    H9417804   5.635   4.420   1.924  2.0764 -0.8662  0.8714
   56MOL    H9517805   5.517   4.454   2.051 -0.7210 -0.6288 -0.8844
   56MOL    H9617806   5.757   4.539   2.310 -2.2460  3.7303  0.0629
   56MOL    H9717807   5.580   4.528   2.280  0.3051  2.5786 -0.5248
   56MOL    C9817808   5.952   4.369   2.189  0.5929 -0.6708 -0.6791
   56MOL    C9917809   6.090   4.348   2.136  0.3445  0.3249 -0.2678
   56MOL   C10017810   5.899   4.253   2.283 -0.6368 -0.3906 -0.4863
   56MOL   C10117811   5.938   4.288   2.429  0.2152  0.6545 -0.0199
   56MOL   C10217812   6.082   4.304   2.465  0.0585  0.3486  0.3660
   56MOL   C10317813   5.837   4.310   2.514 -0.4378 -0.3736  0.7551
   56MOL   H10417814   5.968   4.456   2.253 -1.6245 -1.6301  1.2371
   56MOL   H10517815   6.089   4.314   2.033 -2.6515 -0.1641 -0.1267
   56MOL   H10617816   6.137   4.256   2.172  1.7482 -0.1385 -3.1681
   56MOL   H10717817   6.162   4.428   2.150 -0.0204  0.3346  1.7116
   56MOL   H10817818   5.791   4.267   2.278 -0.5372  0.4032 -0.4849
   56MOL   H10917819   6.133   4.379   2.406  1.8017 -0.5575  0.6585
   56MOL   H11017820   6.140   4.214   2.441 -1.2148  0.5117 -3.7053
   56MOL   H11117821   6.107   4.316   2.571 -1.3300 -2.0803  1.0233
   56MOL   H11217822   5.732   4.303   2.493 -0.3422 -0.9901  0.4820
   56MOL   H11317823   5.859   4.340   2.616  0.7590 -1.2665  0.7739
   56MOL   C11417824   5.935   4.102   2.246  0.5137  0.4699 -0.8672
   56MOL   C11517825   5.929   4.074   2.092 -0.1288  0.5218 -0.6620
   56MOL   C11617826   5.864   3.991   2.332 -0.1267  0.4282 -0.0019
   56MOL   C11717827   5.966   3.888   2.383  0.5425  0.2924 -0.1380
   56MOL   C11817828   6.043   3.929   2.503 -0.2829  0.0694 -0.1483
   56MOL   C11917829   5.988   3.771   2.329 -0.5889 -0.0010  0.2988
   56MOL   H12017830   6.040   4.079   2.262  0.6121 -1.4854 -4.1020
   56MOL   H12117831   5.834   4.098   2.043 -1.1519  3.1045  2.4538
   56MOL   H12217832   5.956   3.969   2.079  0.5912  0.8284 -1.7100
   56MOL   H12317833   6.004   4.129   2.034  0.5604 -1.1301 -1.3883
   56MOL   H12417834   5.830   4.041   2.423 -0.6626  2.3257 -1.2044
   56MOL   H12517835   6.135   3.979   2.472 -1.5405  1.3284 -1.9955
   56MOL   H12617836   6.063   3.848   2.573 -1.5562  1.7290  2.2015
   56MOL   H12717837   5.991   4.009   2.555 -2.0586 -1.9491  1.3080
   56MOL   H12817838   5.933   3.739   2.241  0.0520  1.4438 -0.6474
   56MOL   H12917839   6.057   3.700   2.372 -3.5636 -1.2628  3.2086
   56MOL   C13017840   5.721   3.944   2.290 -0.0631 -0.2971  0.2486
   56MOL   C13117841   5.619   4.055   2.266 -0.3331  0.2063 -0.6838
   56MOL   C13217842   5.659   3.826   2.372  0.2782 -0.4544  0.4237
   56MOL   C13317843   5.582   3.730   2.276  0.5453 -0.0220  0.4448
   56MOL   C13417844   5.660   3.625   2.206 -0.1078 -0.1247 -0.2672
   56MOL   C13517845   5.459   3.741   2.231  0.1475  0.4710 -0.1049
   56MOL   H13617846   5.752   3.902   2.194 -1.1937 -1.6000  0.4420
   56MOL   H13717847   5.521   4.024   2.231 -0.2418 -1.5629  0.5921
   56MOL   H13817848   5.659   4.131   2.199 -1.7433  0.5719 -1.1207
   56MOL   H13917849   5.598   4.104   2.362 -0.5799  0.5524 -0.9120
   56MOL   H14017850   5.738   3.757   2.402  0.0249 -0.1486  1.8325
   56MOL   H14117851   5.730   3.669   2.136 -0.9830  0.5997 -0.7026
   56MOL   H14217852   5.588   3.553   2.166 -2.2584  2.1946 -0.7398
   56MOL   H14317853   5.703   3.552   2.275  0.4181 -1.3136 -1.8211
   56MOL   H14417854   5.402   3.827   2.263 -0.5341  0.3453 -0.9682
   56MOL   H14517855   5.417   3.673   2.158  0.4410 -1.2160  1.2705
   56MOL   C14617856   5.566   3.861   2.504  0.4142 -0.3664 -0.2746
   56MOL   C14717857   5.636   3.957   2.605  0.8053 -0.3336  0.4619
   56MOL   C14817858   5.491   3.735   2.568 -0.0568  0.3766  0.0569
   56MOL   C14917859   5.356   3.780   2.617  0.0107  0.8339  0.4191
   56MOL   C15017860   5.232   3.747   2.532  0.1396  0.2153  0.0699
   56MOL   C15117861   5.344   3.833   2.738  0.3189  0.1640  0.4682
   56MOL   H15217862   5.490   3.932   2.469  0.9088  0.1208 -0.3621
   56MOL   H15317863   5.732   3.928   2.648 -0.0086 -2.6176  0.7742
   56MOL   H15417864   5.581   3.966   2.698 -0.9501 -1.0759 -0.4841
   56MOL   H15517865   5.640   4.060   2.567 -2.7143 -0.6216 -0.8449
   56MOL   H15617866   5.473   3.674   2.479  0.9345  1.9000 -1.2099
   56MOL   H15717867   5.151   3.806   2.574 -2.3925 -0.7456 -3.2286
   56MOL   H15817868   5.208   3.641   2.540  0.5831 -0.0666 -2.1620
   56MOL   H15917869   5.242   3.771   2.426  1.0446 -1.4068 -0.2250
   56MOL   H16017870   5.421   3.860   2.809 -0.1399 -0.6518  1.2785
   56MOL   H16117871   5.248   3.862   2.779  0.6705 -0.4903  1.7750
   56MOL   C16217872   5.570   3.646   2.669 -0.1168  0.3087  0.1824
   56MOL   C16317873   5.713   3.611   2.617  0.0214 -0.3892 -0.2410
   56MOL   C16417874   5.492   3.518   2.719  0.1982  0.1386 -0.3876
   56MOL   C16517875   5.553   3.487   2.856  0.7585  0.1162 -0.0193
   56MOL   C16617876   5.508   3.572   2.970  0.0550  0.5569  0.6605
   56MOL   C16717877   5.646   3.394   2.877  0.0528  0.9565 -0.6119
   56MOL   H16817878   5.587   3.704   2.760  1.0266  0.0938  0.1179
   56MOL   H16917879   5.782   3.696   2.617 -1.1928  0.6244 -1.7861
   56MOL   H17017880   5.710   3.565   2.519 -1.1497  0.2867 -0.5341
   56MOL   H17117881   5.767   3.544   2.684  2.0785  0.5395 -0.9443
   56MOL   H17217882   5.386   3.539   2.729  0.3758  0.9288 -0.1611
   56MOL   H17317883   5.519   3.514   3.062  0.6940  0.0259  0.2518
   56MOL   H17417884   5.411   3.610   2.938  0.6378 -0.3605 -2.4055
   56MOL   H17517885   5.567   3.662   2.985 -0.7289  1.1105  0.4997
   56MOL   H17617886   5.672   3.318   2.804  0.8423  0.0571  0.5902
   56MOL   H17717887   5.705   3.379   2.966 -0.0513  0.5582 -0.6056
   56MOL   C17817888   5.491   3.387   2.624  0.3537 -0.5924  0.0870
   56MOL   C17917889   5.443   3.422   2.480  0.6094  0.0386  0.0989
   56MOL   C18017890   5.423   3.259   2.684 -0.1175 -0.4546  0.2305
   56MOL   C18117891   5.473   3.129   2.611 -0.2285  0.2387  0.6253
   56MOL   C18217892   5.596   3.064   2.663 -0.3553 -0.0711  0.1541
   56MOL   C18317893   5.396   3.061   2.524  0.2469  0.2522  0.7018
   56MOL   H18417894   5.598   3.367   2.612  0.8584  1.3413  0.9773
   56MOL   H18517895   5.426   3.333   2.418  0.4047  0.0591  0.1266
   56MOL   H18617896   5.516   3.478   2.422 -1.5367  0.9422 -1.7774
   56MOL   H18717897   5.353   3.480   2.462  1.5648  1.1358 -1.2649
   56MOL   H18817898   5.475   3.234   2.777 -0.5360 -4.8553 -0.5771
   56MOL   H18917899   5.598   3.056   2.771 -1.4975  0.4207  0.2224
   56MOL   H19017900   5.676   3.137   2.654 -0.6742  0.1533 -0.9893
   56MOL   H19117901   5.628   2.969   2.621 -1.0283 -1.4936  2.7851
   56MOL   H19217902   5.305   3.104   2.484  1.3229  0.7656 -1.2358
   56MOL   H19317903   5.432   2.966   2.487  3.2412  1.1791  1.0799
   56MOL   C19417904   5.275   3.243   2.722  0.4662 -0.3936 -0.1499
   56MOL   C19517905   5.179   3.312   2.628 -0.4436 -0.1650  0.1168
   56MOL   C19617906   5.242   3.280   2.869 -0.0549 -0.1355 -0.0300
   56MOL   C19717907   5.330   3.213   2.980 -0.1244 -0.0796  0.2005
   56MOL   C19817908   5.362   3.069   2.977  0.0047 -0.0132  0.8198
   56MOL   C19917909   5.366   3.279   3.094  1.0130  0.5529 -0.4306
   56MOL   H20017910   5.258   3.136   2.707  3.8824 -0.9138 -0.7701
   56MOL   H20117911   5.199   3.418   2.616 -0.8869 -0.0893  0.0445
   56MOL   H20217912   5.073   3.294   2.647 -0.0936 -0.3928  1.9402
   56MOL   H20317913   5.200   3.266   2.532  0.9169 -0.7900  0.7006
   56MOL   H20417914   5.266   3.385   2.876  1.9011 -0.5813  0.0740
   56MOL   H20517915   5.284   3.006   3.021  0.2115 -0.6581  0.2720
   56MOL   H20617916   5.461   3.049   3.019  0.5742  0.4093 -0.3053
   56MOL   H20717917   5.371   3.029   2.876 -0.0677 -0.0112  0.8127
   56MOL   H20817918   5.327   3.379   3.103  0.4714  0.2709  0.4050
   56MOL   H20917919   5.417   3.233   3.177  0.7033 -1.8960 -1.5529
   56MOL   C21017920   5.092   3.271   2.913 -0.0856  0.0945  0.4290
   56MOL   C21117921   5.036   3.138   2.872  0.0534 -0.4313 -0.0967
   56MOL   C21217922   4.991   3.389   2.901  0.0616  0.3726 -0.1892
   56MOL   C21317923   5.064   3.510   2.951 -0.0640 -0.0868 -0.1673
   56MOL   C21417924   5.083   3.536   3.099 -0.0919  0.2362  0.3964
   56MOL   C21517925   5.129   3.583   2.862 -0.5997  0.6015  0.3616
   56MOL   H21617926   5.107   3.253   3.020 -1.4973  0.0177  0.6265
   56MOL   H21717927   5.010   3.130   2.767 -0.7624 -2.1399  0.2185
   56MOL   H21817928   4.952   3.096   2.927  0.3950 -2.5642 -1.1526
   56MOL   H21917929   5.113   3.061   2.875  2.4849  1.7945 -2.4515
   56MOL   H22017930   4.974   3.401   2.794 -0.6053  0.6490 -0.0579
   56MOL   H22117931   5.132   3.450   3.145 -1.1634 -0.1123  0.9156
   56MOL   H22217932   4.988   3.560   3.147  0.6912 -0.6179  2.4301
   56MOL   H22317933   5.141   3.628   3.109  2.5020 -1.3582  0.3334
   56MOL   H22417934   5.122   3.578   2.754 -1.0225  1.6558  0.3336
   56MOL   H22517935   5.196   3.657   2.904  1.7370 -0.3462 -1.6073
   56MOL   C22617936   4.851   3.378   2.970 -0.1052  0.0677 -0.8504
   56MOL   C22717937   4.860   3.308   3.108  0.3562  0.2465  0.3950
   56MOL   C22817938   4.734   3.328   2.881 -0.1633 -0.6683  0.0657
   56MOL   C22917939   4.732   3.406   2.744  0.0893 -0.2400 -0.1487
   56MOL   C23017940   4.750   3.555   2.750 -0.4817 -0.0988 -0.3092
   56MOL   C23117941   4.722   3.338   2.628 -0.6815 -0.2421 -0.1188
   56MOL   H23217942   4.830   3.483   2.990  2.3383  0.1595  1.4099
   56MOL   H23317943   4.872   3.200   3.115 -0.0380  0.0792 -1.4079
   56MOL   H23417944   4.769   3.328   3.164 -0.1997 -1.3495  0.1017
   56MOL   H23517945   4.934   3.348   3.177  0.9203 -1.3639  0.7607
   56MOL   H23617946   4.757   3.226   2.850 -0.0861 -0.4747 -0.5164
   56MOL   H23717947   4.675   3.612   2.695  1.6940  0.3201 -2.9381
   56MOL   H23817948   4.851   3.577   2.714 -0.5706  1.1023  0.1494
   56MOL   H23917949   4.727   3.598   2.847 -0.8504 -0.8546 -0.0581
   56MOL   H24017950   4.737   3.231   2.625  4.1896  0.3484 -1.7003
   56MOL   H24117951   4.707   3.392   2.535  0.0189 -1.6722 -1.0839
   56MOL   C24217952   4.589   3.329   2.956  0.7489 -0.1050  0.2792
   56MOL   C24317953   4.549   3.459   3.036  0.0129 -0.3426 -0.1102
   56MOL   C24417954   4.557   3.190   3.026 -0.2437  0.1905 -0.6922
   56MOL   C24517955   4.577   3.069   2.929  0.2647 -0.2777  0.0379
   56MOL   C24617956   4.484   3.051   2.806 -0.1991  0.5554  0.7615
   56MOL   C24717957   4.687   2.981   2.945 -0.0153 -0.6101  0.4057
   56MOL   H24817958   4.518   3.341   2.874 -0.5909 -1.5119  1.2034
   56MOL   H24917959   4.582   3.537   2.966  0.8512  0.6265  1.3343
   56MOL   H25017960   4.609   3.476   3.126 -1.7596  1.4490  0.7715
   56MOL   H25117961   4.446   3.474   3.065 -0.1330  0.4531 -1.0092
   56MOL   H25217962   4.642   3.171   3.093  0.0460  2.3271 -0.4191
   56MOL   H25317963   4.540   2.983   2.742 -1.6976 -2.6258  2.6438
   56MOL   H25417964   4.457   3.143   2.755 -1.3084 -0.6910 -0.9786
   56MOL   H25517965   4.398   2.997   2.845  0.6054 -0.3482  1.3169
   56MOL   H25617966   4.762   3.000   3.020  0.4906 -0.3817 -0.1656
   56MOL   H25717967   4.704   2.899   2.877  0.2128  0.4796 -0.8669
   56MOL   C25817968   4.429   3.179   3.114  0.1940  0.4154  0.1669
   56MOL   C25917969   4.301   3.228   3.042 -0.0735  0.1314 -0.0525
   56MOL   C26017970   4.451   3.240   3.262  0.3699  0.6201 -0.1982
   56MOL   C26117971   4.567   3.174   3.337  0.6118  0.1011  0.0728
   56MOL   C26217972   4.637   3.250   3.447  0.2404  0.0339 -0.2605
   56MOL   C26317973   4.612   3.046   3.317  0.2378  0.4633 -0.4781
   56MOL   H26417974   4.410   3.072   3.120 -2.9788  0.9356  0.3510
   56MOL   H26517975   4.303   3.199   2.937  0.6627 -0.2606  0.0620
   56MOL   H26617976   4.291   3.337   3.042  2.8657  0.4567  0.5914
   56MOL   H26717977   4.212   3.177   3.077  0.5917 -0.9823  0.0261
   56MOL   H26817978   4.488   3.341   3.247 -2.7531  1.7357 -0.7984
   56MOL   H26917979   4.715   3.196   3.502 -0.7722 -1.3372 -0.1163
   56MOL   H27017980   4.565   3.291   3.518  2.2580  1.7151  0.8734
   56MOL   H27117981   4.695   3.334   3.410  0.9383 -0.7565 -0.9994
   56MOL   H27217982   4.560   2.980   3.249 -0.3416 -0.3932  0.7703
   56MOL   H27317983   4.693   3.000   3.372 -1.3331 -2.1581 -0.2659
   56MOL   C27417984   4.323   3.247   3.353  0.5423 -0.2699  0.2516
   56MOL   C27517985   4.252   3.111   3.372 -0.1804 -0.7089  0.6045
   56MOL   C27617986   4.224   3.380   3.348  0.1799 -1.2185  0.2111
   56MOL   C27717987   4.284   3.527   3.337  0.1390  0.8318  0.1862
   56MOL   C27817988   4.192   3.634   3.285  0.5442 -0.3360 -0.0190
   56MOL   C27917989   4.405   3.555   3.377  0.5737  0.6428  0.2119
   56MOL   H28017990   4.367   3.268   3.451 -0.2946 -1.4069  0.8827
   56MOL   H28117991   4.329   3.035   3.384  2.1932  1.5713  0.1606
   56MOL   H28217992   4.195   3.083   3.284 -0.0069 -0.6150  0.4636
   56MOL   H28317993   4.199   3.107   3.468 -1.6516  1.4614 -0.0628
   56MOL   H28417994   4.178   3.365   3.250  0.4528 -3.4289  0.3857
   56MOL   H28517995   4.097   3.644   3.338  0.2082  0.6592 -0.8002
   56MOL   H28617996   4.168   3.601   3.184  1.0926 -0.9043  0.0387
   56MOL   H28717997   4.248   3.728   3.279 -1.5222  0.9058 -0.4280
   56MOL   H28817998   4.471   3.489   3.431 -0.1809  0.2620  0.6731
   56MOL   H28917999   4.444   3.654   3.360 -0.0555  1.0124  0.9282
   56MOL   C29018000   4.120   3.369   3.463 -0.1238 -0.0029 -0.2354
   56MOL   C29118001   4.174   3.344   3.603  1.1551  0.0311 -0.1963
   56MOL   C29218002   3.985   3.295   3.430  0.1946  0.5778 -1.0394
   56MOL   C29318003   3.935   3.311   3.283 -0.0288  0.7366  0.2743
   56MOL   C29418004   3.885   3.448   3.235 -0.5034 -0.0815 -0.0721
   56MOL   C29518005   3.933   3.215   3.192  0.2727  0.2672  0.3468
   56MOL   H29618006   4.080   3.470   3.462 -0.7873 -0.2644 -0.8645
   56MOL   H29718007   4.153   3.243   3.639 -1.4085  0.6365  0.0350
   56MOL   H29818008   4.126   3.419   3.666  2.1441  0.3215  0.2270
   56MOL   H29918009   4.282   3.363   3.609  0.7116  2.2297  1.4721
   56MOL   H30018010   4.003   3.187   3.427  0.9065  0.5779  2.2002
   56MOL   H30118011   3.916   3.457   3.131  1.5395  0.2769  0.5454
   56MOL   H30218012   3.941   3.524   3.290  0.5194  0.5340 -1.8993
   56MOL   H30318013   3.778   3.468   3.240 -0.5012 -0.5856  2.2276
   56MOL   H30418014   3.971   3.117   3.217  2.8492  0.9980 -0.4950
   56MOL   H30518015   3.894   3.227   3.092  1.5734  1.1613 -0.0684
   56MOL   C30618016   3.860   3.320   3.528  0.3191  0.5914 -0.3328
   56MOL   C30718017   3.824   3.466   3.557 -0.4963 -0.4409  0.6068
   56MOL   C30818018   3.842   3.233   3.661 -0.1204  0.3262  0.8855
   56MOL   C30918019   3.859   3.081   3.648 -0.5444  0.3058  0.0745
   56MOL   C31018020   3.767   3.007   3.549 -0.1695 -0.2190  0.3639
   56MOL   C31118021   3.951   3.017   3.731 -0.5983  0.0696  0.3899
   56MOL   H31218022   3.770   3.296   3.472 -1.0530 -0.3765  2.2483
   56MOL   H31318023   3.903   3.528   3.599 -2.5424  0.7649  2.8364
   56MOL   H31418024   3.741   3.473   3.628 -0.9904 -1.3690  0.1273
   56MOL   H31518025   3.786   3.509   3.465 -1.0860 -2.4390 -0.0945
   56MOL   H31618026   3.912   3.265   3.738  1.3408 -0.0012 -0.2884
   56MOL   H31718027   3.761   2.902   3.578  1.0762 -0.0939  1.1444
   56MOL   H31818028   3.800   3.019   3.446 -2.5315  1.3022 -0.2512
   56MOL   H31918029   3.662   3.033   3.565 -0.2232  0.2360 -0.6848
   56MOL   H32018030   4.026   3.069   3.789 -0.4230  0.4369 -0.1542
   56MOL   H32118031   3.944   2.909   3.735  2.3434 -0.1250  2.0508
   56MOL   H32218032   3.742   3.242   3.703 -1.1007  1.1815 -1.5494
   57MOL     C118033   3.496   4.159   5.862 -0.6080 -0.5876 -0.1144
   57MOL     C218034   3.631   4.193   5.805  0.0838  0.1258 -0.6569
   57MOL     C318035   3.495   4.036   5.958 -0.1382 -0.2176 -0.1812
   57MOL     C418036   3.543   3.903   5.889 -0.2413 -0.2842 -0.2729
   57MOL     C518037   3.685   3.867   5.909  0.1526  0.2178  0.0839
   57MOL     C618038   3.464   3.821   5.817 -0.0207 -0.0101  0.4147
   57MOL     H718039   3.473   4.238   5.934  0.3555 -2.0662  1.8620
   57MOL     H818040   3.669   4.116   5.738 -0.3965 -2.4470  1.9203
   57MOL     H918041   3.709   4.178   5.879 -0.7137  0.1120  0.1910
   57MOL    H1018042   3.623   4.292   5.759 -1.9544  0.5278  0.4845
   57MOL    H1118043   3.575   4.058   6.029  0.8263 -0.9557 -1.0216
   57MOL    H1218044   3.710   3.789   5.837 -0.1652 -0.6352  0.8816
   57MOL    H1318045   3.717   3.844   6.011  1.5898  0.3131 -0.3338
   57MOL    H1418046   3.740   3.957   5.881  2.0105 -1.0642 -0.5252
   57MOL    H1518047   3.361   3.845   5.798  0.4603 -0.7271 -3.6856
   57MOL    H1618048   3.505   3.730   5.775 -1.5314 -0.2808 -0.4988
   57MOL    H1718049   3.422   4.150   5.783 -1.1174 -0.4631  0.3395
   57MOL    C1818050   3.370   4.014   6.050 -0.4142 -0.0306 -0.0296
   57MOL    C1918051   3.293   4.144   6.077  0.3917 -0.3687 -0.1440
   57MOL    C2018052   3.388   3.927   6.182  0.0474  0.0254  0.7057
   57MOL    C2118053   3.269   3.835   6.206  0.5179  0.5797 -0.2909
   57MOL    C2218054   3.257   3.706   6.125 -0.0736  0.3829 -0.5954
   57MOL    C2318055   3.160   3.866   6.282  0.3029  1.2570 -0.3659
   57MOL    H2418056   3.313   3.965   5.972  0.7646 -0.4747 -0.6278
   57MOL    H2518057   3.198   4.112   6.119  0.4216 -1.2810 -0.7447
   57MOL    H2618058   3.267   4.197   5.985 -0.5662 -0.4302  0.0950
   57MOL    H2718059   3.334   4.211   6.153 -0.8883 -0.1126  0.3255
   57MOL    H2818060   3.477   3.867   6.164  1.5950  1.9729  1.6572
   57MOL    H2918061   3.235   3.712   6.018  0.0623 -1.4666 -0.7268
   57MOL    H3018062   3.175   3.649   6.167 -0.5825  0.2673 -1.7147
   57MOL    H3118063   3.344   3.643   6.144 -1.5455 -1.9677 -1.5926
   57MOL    H3218064   3.157   3.962   6.332  1.5136 -0.2189  2.6755
   57MOL    H3318065   3.070   3.808   6.291  1.2591 -0.0485  1.0972
   57MOL    C3418066   3.442   4.005   6.312 -0.2831  0.3052  0.1817
   57MOL    C3518067   3.568   4.088   6.293  0.3011  0.2981 -0.4003
   57MOL    C3618068   3.460   3.908   6.432  0.1928  0.8256 -1.1412
   57MOL    C3718069   3.433   3.994   6.556  0.2750 -0.2334  0.3175
   57MOL    C3818070   3.292   4.000   6.594  0.9924 -0.2340 -0.4841
   57MOL    C3918071   3.525   4.058   6.625 -0.3174  0.7118  0.3157
   57MOL    H4018072   3.369   4.081   6.340 -0.5029 -0.1193  0.7830
   57MOL    H4118073   3.596   4.147   6.380 -0.5410  0.9506 -0.5628
   57MOL    H4218074   3.543   4.164   6.219 -1.4902 -1.4527 -1.6565
   57MOL    H4318075   3.659   4.032   6.270 -0.2230 -1.3210  1.3351
   57MOL    H4418076   3.376   3.840   6.416 -1.2862  2.4529 -0.5093
   57MOL    H4518077   3.237   4.050   6.514  5.2557  0.1067 -3.4083
   57MOL    H4618078   3.285   4.054   6.688 -1.2735 -0.6278 -0.4072
   57MOL    H4718079   3.252   3.900   6.605  0.2778 -0.0690 -1.4776
   57MOL    H4818080   3.630   4.056   6.603 -0.7956 -0.7579 -2.0639
   57MOL    H4918081   3.498   4.118   6.711 -3.4967  1.2001 -0.9443
   57MOL    C5018082   3.587   3.814   6.446 -0.5380 -0.2100  0.4805
   57MOL    C5118083   3.639   3.740   6.326  0.4754  0.2188  0.3629
   57MOL    C5218084   3.580   3.724   6.568  0.0049  0.0918 -0.3362
   57MOL    C5318085   3.722   3.718   6.635 -0.8690 -0.3584  0.0347
   57MOL    C5418086   3.826   3.621   6.580 -0.6345  0.0420  0.4679
   57MOL    C5518087   3.764   3.804   6.727 -0.1797  0.4455  0.6346
   57MOL    H5618088   3.665   3.889   6.463 -1.4959  0.8107  0.4391
   57MOL    H5718089   3.721   3.674   6.353  1.5660  1.2124 -0.4391
   57MOL    H5818090   3.676   3.806   6.247  2.3718 -0.8812  0.2930
   57MOL    H5918091   3.561   3.679   6.281  0.2427  0.6833  0.1280
   57MOL    H6018092   3.525   3.780   6.644  0.8410  1.8800 -1.0420
   57MOL    H6118093   3.903   3.670   6.519  1.9898 -2.5876  1.5387
   57MOL    H6218094   3.778   3.541   6.524  2.3211 -0.8126 -0.9574
   57MOL    H6318095   3.872   3.576   6.668 -1.3491  1.4491  1.5956
   57MOL    H6418096   3.694   3.879   6.762 -0.6174  0.3892 -0.1026
   57MOL    H6518097   3.861   3.789   6.771 -0.4870 -1.1654  0.7770
   57MOL    C6618098   3.514   3.582   6.564 -1.3432 -0.0083  1.0883
   57MOL    C6718099   3.369   3.569   6.503 -0.3095  0.1119  0.5108
   57MOL    C6818100   3.516   3.500   6.704 -0.3271  0.2325  0.1062
   57MOL    C6918101   3.510   3.348   6.676  0.3784 -0.8399  0.1176
   57MOL    C7018102   3.643   3.275   6.655 -0.8678  0.5103 -0.1827
   57MOL    C7118103   3.389   3.285   6.659 -0.2214 -0.3887  0.9888
   57MOL    H7218104   3.567   3.534   6.481  2.8826  3.5851  1.5205
   57MOL    H7318105   3.293   3.615   6.566  0.9595  0.8662  1.5059
   57MOL    H7418106   3.347   3.467   6.469  4.5725 -1.3561  1.3538
   57MOL    H7518107   3.358   3.615   6.404 -0.7126 -0.8542  0.0965
   57MOL    H7618108   3.620   3.511   6.732 -0.0531  0.4457 -0.9695
   57MOL    H7718109   3.678   3.295   6.554 -0.4721 -0.2302 -0.1967
   57MOL    H7818110   3.624   3.167   6.660 -2.7694  0.7961 -0.7032
   57MOL    H7918111   3.717   3.307   6.728 -0.7235  2.2709 -1.0642
   57MOL    H8018112   3.291   3.329   6.667 -0.5620 -0.6133 -1.5366
   57MOL    H8118113   3.401   3.180   6.638  0.9316  0.1415 -1.2209
   57MOL    C8218114   3.416   3.542   6.822  0.5819 -0.2556 -0.5631
   57MOL    C8318115   3.405   3.694   6.850  0.2010 -0.4484 -0.1011
   57MOL    C8418116   3.436   3.470   6.960  0.3199 -0.3012 -0.0892
   57MOL    C8518117   3.302   3.459   7.036 -0.1040  0.3659 -0.8816
   57MOL    C8618118   3.205   3.358   6.981  0.1608 -0.1691 -0.2299
   57MOL    C8718119   3.266   3.552   7.125  0.0002  0.6009 -0.2431
   57MOL    H8818120   3.315   3.523   6.786  0.7007 -1.2038 -0.4087
   57MOL    H8918121   3.336   3.716   6.931 -0.8862 -0.1140 -1.0938
   57MOL    H9018122   3.354   3.741   6.765 -0.2117 -0.6750  0.0219
   57MOL    H9118123   3.495   3.748   6.881 -0.2823 -0.2074  0.8833
   57MOL    H9218124   3.454   3.365   6.936 -1.6222 -0.4417 -0.9688
   57MOL    H9318125   3.102   3.394   6.987  0.2181  0.1743 -1.1887
   57MOL    H9418126   3.220   3.274   7.049 -0.0912  0.9134  1.1693
   57MOL    H9518127   3.247   3.335   6.883  1.1859  1.3721 -0.1646
   57MOL    H9618128   3.328   3.637   7.148  1.8661 -0.6678 -0.4889
   57MOL    H9718129   3.170   3.553   7.176 -1.5371 -0.8334 -2.9695
   57MOL    C9818130   3.556   3.518   7.052  0.6083  0.1892 -0.5726
   57MOL    C9918131   3.686   3.516   6.970  0.3074 -0.6130  0.3237
   57MOL   C10018132   3.575   3.479   7.200  0.7297  0.2089  0.7808
   57MOL   C10118133   3.660   3.579   7.276 -0.5089 -0.6424  0.7191
   57MOL   C10218134   3.600   3.711   7.307  0.2148  0.1454 -0.4337
   57MOL   C10318135   3.790   3.556   7.307  0.2113  0.4600 -0.2555
   57MOL   H10418136   3.534   3.624   7.063  0.2635  0.0939 -0.3258
   57MOL   H10518137   3.698   3.421   6.918 -0.0608 -1.0708  1.0644
   57MOL   H10618138   3.767   3.532   7.041  0.4453 -1.6170  0.3932
   57MOL   H10718139   3.688   3.602   6.903 -2.4996 -2.2187 -1.9295
   57MOL   H10818140   3.474   3.504   7.230  0.4928  1.2766 -0.7855
   57MOL   H10918141   3.666   3.785   7.353  0.5948 -0.1329 -0.5325
   57MOL   H11018142   3.521   3.692   7.380 -0.7776  1.9697 -0.9905
   57MOL   H11118143   3.556   3.766   7.224  1.9932  3.0207  0.4250
   57MOL   H11218144   3.843   3.468   7.274  0.7569  0.7840 -0.2539
   57MOL   H11318145   3.844   3.630   7.364 -0.5672  0.9232 -0.1103
   57MOL   C11418146   3.606   3.326   7.251  0.1107  0.7340  0.1662
   57MOL   C11518147   3.702   3.263   7.144  0.1713 -0.3381 -0.4330
   57MOL   C11618148   3.476   3.246   7.290  0.0263  0.2161  0.0102
   57MOL   C11718149   3.382   3.319   7.388  0.3070 -0.0609 -0.1304
   57MOL   C11818150   3.244   3.265   7.380 -0.3695  0.7092  0.0428
   57MOL   C11918151   3.422   3.418   7.472 -1.2924  0.0946  0.4926
   57MOL   H12018152   3.661   3.329   7.345  0.6144  3.1432 -0.1737
   57MOL   H12118153   3.736   3.162   7.169  1.8521 -0.3762 -2.7142
   57MOL   H12218154   3.782   3.331   7.117 -1.0036  1.1479 -0.2215
   57MOL   H12318155   3.654   3.250   7.047 -0.9965 -1.0009  0.2168
   57MOL   H12418156   3.425   3.230   7.195  2.4867  0.3219 -1.3664
   57MOL   H12518157   3.238   3.171   7.434 -0.2441  2.2261  2.8294
   57MOL   H12618158   3.212   3.248   7.277  2.6473 -0.6032 -0.7237
   57MOL   H12718159   3.175   3.334   7.429 -1.7899 -1.9876  1.9800
   57MOL   H12818160   3.525   3.448   7.464 -1.9449  1.4563 -3.3593
   57MOL   H12918161   3.355   3.480   7.530  0.5599  2.0382  0.6061
   57MOL   C13018162   3.488   3.094   7.333  0.0928  0.0861  0.0516
   57MOL   C13118163   3.602   3.083   7.440 -0.4294 -0.0503 -0.6570
   57MOL   C13218164   3.506   2.988   7.217  0.5241 -0.1628  0.7016
   57MOL   C13318165   3.381   2.995   7.128  0.2896  0.3378  0.1801
   57MOL   C13418166   3.251   2.944   7.186  0.0651  0.0792  0.2251
   57MOL   C13518167   3.390   3.023   7.001 -0.7519 -0.2152 -0.7717
   57MOL   H13618168   3.402   3.062   7.392 -1.4354  2.1971 -0.9812
   57MOL   H13718169   3.610   2.982   7.482  0.0297  0.2937  0.1031
   57MOL   H13818170   3.602   3.155   7.523 -0.9691  1.0018 -1.5668
   57MOL   H13918171   3.693   3.107   7.386 -0.3553 -0.3616 -0.6733
   57MOL   H14018172   3.592   3.019   7.158  1.1575 -0.9039  1.2279
   57MOL   H14118173   3.171   2.956   7.113  0.6538  0.3948 -0.3631
   57MOL   H14218174   3.218   2.985   7.282 -1.3752  0.6901 -0.5154
   57MOL   H14318175   3.246   2.835   7.195  0.5093 -0.0884 -1.4435
   57MOL   H14418176   3.485   3.045   6.956 -0.9018  0.0089 -0.9802
   57MOL   H14518177   3.297   3.021   6.946 -1.2748  1.0497  0.0354
   57MOL   C14618178   3.532   2.839   7.255  0.0478  0.8329 -0.5970
   57MOL   C14718179   3.463   2.778   7.386  0.3412 -0.2876 -0.1999
   57MOL   C14818180   3.681   2.808   7.236 -0.6226  0.1979 -0.5565
   57MOL   C14918181   3.718   2.812   7.087  0.2395  0.1374 -0.1822
   57MOL   C15018182   3.818   2.913   7.036  0.5283 -0.2006  0.3669
   57MOL   C15118183   3.670   2.721   7.000  0.1709 -0.6799  0.0239
   57MOL   H15218184   3.482   2.774   7.184  0.2535  1.3633 -1.2301
   57MOL   H15318185   3.477   2.670   7.379 -0.0635 -0.3673  0.1921
   57MOL   H15418186   3.357   2.806   7.387 -0.0840 -1.6696 -2.4540
   57MOL   H15518187   3.502   2.801   7.485  0.0094  0.2846 -0.2004
   57MOL   H15618188   3.715   2.899   7.285 -1.6326  1.1676 -1.6073
   57MOL   H15718189   3.916   2.925   7.082  0.5810  1.3943 -0.1120
   57MOL   H15818190   3.763   3.007   7.040  0.2580 -0.2962 -0.7384
   57MOL   H15918191   3.831   2.907   6.928 -0.0410  0.0782  0.2780
   57MOL   H16018192   3.602   2.644   7.035 -1.1210  0.6877  0.5594
   57MOL   H16118193   3.679   2.724   6.892 -0.6845 -1.4892 -0.0814
   57MOL   C16218194   3.753   2.686   7.314 -0.1074  0.1865 -0.2304
   57MOL   C16318195   3.686   2.543   7.293 -0.4728  0.1535  0.2148
   57MOL   C16418196   3.797   2.711   7.464  0.7483  0.9480  0.3039
   57MOL   C16518197   3.893   2.836   7.469  0.4898 -0.1386 -0.2257
   57MOL   C16618198   3.890   2.926   7.603 -0.1976  0.5119  0.0551
   57MOL   C16718199   3.989   2.863   7.380 -0.1553 -0.3365 -0.0056
   57MOL   H16818200   3.845   2.672   7.257  0.8237  0.6821  1.1203
   57MOL   H16918201   3.756   2.470   7.251 -0.0712  1.2572 -1.0974
   57MOL   H17018202   3.611   2.542   7.214  1.0856 -3.2724 -1.3675
   57MOL   H17118203   3.623   2.498   7.369 -0.7421  1.2299  0.6350
   57MOL   H17218204   3.704   2.738   7.515  0.6356  1.0974  0.0224
   57MOL   H17318205   3.789   2.959   7.627  0.1828  0.6462  1.4821
   57MOL   H17418206   3.961   3.008   7.589  1.0857 -0.5529  0.1709
   57MOL   H17518207   3.928   2.872   7.690  1.9175  1.8235 -0.0059
   57MOL   H17618208   4.000   2.810   7.287  1.4495  0.8045 -0.4940
   57MOL   H17718209   4.057   2.946   7.396 -2.6380  2.2118 -2.1507
   57MOL   C17818210   3.859   2.594   7.551  0.4392 -1.0686  0.3081
   57MOL   C17918211   3.981   2.523   7.481  0.1323 -0.6444 -0.3885
   57MOL   C18018212   3.750   2.506   7.634 -0.3795 -0.6302  0.0943
   57MOL   C18118213   3.635   2.583   7.699 -0.4425  0.0956  0.5950
   57MOL   C18218214   3.492   2.523   7.689  0.3535 -0.5372 -0.5558
   57MOL   C18318215   3.660   2.700   7.764  0.1894  0.4290 -0.1010
   57MOL   H18418216   3.897   2.652   7.634 -1.0349  0.8050 -0.2725
   57MOL   H18518217   3.940   2.439   7.425 -1.0580  0.2039 -0.8014
   57MOL   H18618218   4.049   2.474   7.551 -1.0148 -2.4024 -0.4471
   57MOL   H18718219   4.031   2.597   7.419 -2.0094  1.5458  0.3899
   57MOL   H18818220   3.695   2.445   7.561 -0.5760 -2.3041  1.6074
   57MOL   H18918221   3.466   2.493   7.587  0.0688 -1.6338 -0.1691
   57MOL   H19018222   3.414   2.598   7.701  1.6326  0.7739 -0.2787
   57MOL   H19118223   3.470   2.439   7.754  1.9639 -2.0106 -1.8545
   57MOL   H19218224   3.757   2.748   7.765  0.5957 -0.3482  3.1601
   57MOL   H19318225   3.583   2.752   7.820  0.0202 -0.5292  0.5755
   57MOL   C19418226   3.803   2.396   7.728 -0.3053 -1.3503 -0.3626
   57MOL   C19518227   3.917   2.447   7.814  0.2924  0.7014  0.4416
   57MOL   C19618228   3.838   2.260   7.664 -0.7644  0.7577 -0.3157
   57MOL   C19718229   3.719   2.198   7.582 -0.0052 -0.4917 -0.4969
   57MOL   C19818230   3.594   2.152   7.658  0.0203  0.4749 -0.3177
   57MOL   C19918231   3.723   2.199   7.448  0.0746 -0.3114  0.2833
   57MOL   H20018232   3.720   2.375   7.796 -0.5339 -2.9621 -1.1399
   57MOL   H20118233   3.917   2.393   0.016 -2.0300 -0.3040 -0.0935
   57MOL   H20218234   3.871   2.534   7.860  0.3654  0.1251  1.6147
   57MOL   H20318235   4.006   2.477   7.759 -0.3066  2.1637  0.2590
   57MOL   H20418236   3.908   2.292   7.587 -1.9656  1.7728 -0.9986
   57MOL   H20518237   3.608   2.155   7.766  1.0653 -1.2104 -0.3949
   57MOL   H20618238   3.563   2.050   7.635  0.6549  0.4625 -1.1401
   57MOL   H20718239   3.505   2.209   7.631 -0.4300 -1.4183 -2.9647
   57MOL   H20818240   3.815   2.235   7.402  0.5391 -0.5642  1.0137
   57MOL   H20918241   3.638   2.168   7.390  0.5962 -0.3095 -0.4993
   57MOL   C21018242   3.910   2.144   7.757 -0.0878 -0.0105  0.0579
   57MOL   C21118243   3.845   2.119   0.006 -0.2374  0.2683  0.6500
   57MOL   C21218244   4.071   2.154   7.770  0.0109  0.2682 -0.1082
   57MOL   C21318245   4.137   2.172   7.631 -0.0859  0.3609 -0.6038
   57MOL   C21418246   4.118   2.058   7.529  0.3131 -0.1225 -0.3500
   57MOL   C21518247   4.225   2.272   7.606 -0.2693 -0.4405 -0.5061
   57MOL   H21618248   3.901   2.047   7.708 -3.0137 -0.1904  0.8527
   57MOL   H21718249   3.769   2.041   7.892  1.3657 -1.4329  1.6999
   57MOL   H21818250   3.795   2.205   0.050 -0.9676  0.0544  0.2347
   57MOL   H21918251   3.910   2.085   0.086  1.2838 -0.0622 -0.6876
   57MOL   H22018252   4.095   2.253   7.809  1.6946 -0.3791  0.5265
   57MOL   H22118253   4.167   2.070   7.432  3.1561  0.2246  1.0923
   57MOL   H22218254   4.011   2.051   7.508 -0.3893  0.5529  2.7409
   57MOL   H22318255   4.148   1.965   7.578 -0.7569  0.0065  0.5555
   57MOL   H22418256   4.238   2.358   7.671  1.3758  1.1688 -2.8761
   57MOL   H22518257   4.279   2.275   7.513  1.4633 -0.1652  0.4850
   57MOL   C22618258   4.157   2.047   7.851 -0.3838  0.3360 -1.0008
   57MOL   C22718259   4.092   1.911   7.863  0.2953  0.3614  0.3276
   57MOL   C22818260   4.214   2.092   0.103  0.2886 -0.3185  0.1075
   57MOL   C22918261   4.213   2.241   0.136  0.2732  0.6036 -0.7145
   57MOL   C23018262   4.317   2.333   0.074  1.1119 -0.5218 -0.3571
   57MOL   C23118263   4.119   2.300   0.216 -0.2203 -0.4022  0.0979
   57MOL   H23218264   4.250   2.027   7.797  1.4048  0.1551  2.0346
   57MOL   H23318265   4.164   1.830   7.872 -0.2149 -0.1964 -0.4927
   57MOL   H23418266   4.034   1.884   7.774 -0.6935  2.7879  0.2108
   57MOL   H23518267   4.030   1.906   0.060 -1.1328 -2.8430 -0.7607
   57MOL   H23618268   4.133   2.072   0.174  0.7808  0.6366  0.9461
   57MOL   H23718269   4.405   2.334   0.139  1.5610 -1.3994 -0.9347
   57MOL   H23818270   4.289   2.438   0.070 -1.5854 -1.1627  0.4373
   57MOL   H23918271   4.348   2.293   7.870 -0.9922 -1.6863 -0.5884
   57MOL   H24018272   4.033   2.249   0.259 -0.8910  0.9972  0.4362
   57MOL   H24118273   4.134   2.405   0.234 -0.4284  0.1234 -2.5785
   57MOL   C24218274   4.356   2.033   0.140 -0.0465  0.1754 -0.2256
   57MOL   C24318275   4.386   1.883   0.094 -0.3925  0.3101 -0.6502
   57MOL   C24418276   4.413   2.064   0.284 -0.0934  0.0807  0.5183
   57MOL   C24518277   4.572   2.075   0.263 -0.4273 -0.9751 -0.2451
   57MOL   C24618278   4.626   2.187   0.178 -0.2842  0.0285 -0.7096
   57MOL   C24718279   4.658   1.990   0.324  0.1199 -0.5665  0.1134
   57MOL   H24818280   4.426   2.073   0.066  1.2774 -0.5760  0.5984
   57MOL   H24918281   4.313   1.813   0.135 -0.5536 -0.0583 -1.5477
   57MOL   H25018282   4.487   1.854   0.124 -0.6749 -0.5960 -0.5608
   57MOL   H25118283   4.372   1.874   7.879  0.7912  0.4897 -0.8232
   57MOL   H25218284   4.380   2.168   0.293 -2.1915 -0.4114 -1.1388
   57MOL   H25318285   4.588   2.199   0.077 -0.7725 -1.2836 -0.6916
   57MOL   H25418286   4.734   2.189   0.175 -0.2631 -0.2946 -0.2873
   57MOL   H25518287   4.595   2.279   0.227  3.4512  0.7526  0.4286
   57MOL   H25618288   4.637   1.898   0.377  2.4240 -0.6146  0.9801
   57MOL   H25718289   4.762   2.011   0.306 -0.1996 -0.2947 -1.5272
   57MOL   C25818290   4.362   1.972   0.403  0.0097  0.0101 -0.4593
   57MOL   C25918291   4.208   1.949   0.398 -0.7258 -0.1332 -0.2917
   57MOL   C26018292   4.407   2.016   0.545 -0.3063 -0.3101 -0.0585
   57MOL   C26118293   4.416   1.885   0.636 -0.2010  0.4895 -0.2453
   57MOL   C26218294   4.550   1.819   0.636  0.7851  0.0887  0.8961
   57MOL   C26318295   4.314   1.832   0.712 -0.0978 -0.2122 -0.1857
   57MOL   H26418296   4.407   1.877   0.375  0.5413  0.4527 -1.1124
   57MOL   H26518297   4.149   2.036   0.426  0.4482  0.0555  1.6874
   57MOL   H26618298   4.181   1.879   0.477  0.5847  1.1398  1.3345
   57MOL   H26718299   4.181   1.909   0.300  0.0200 -1.6845  0.1192
   57MOL   H26818300   4.509   2.045   0.523 -0.3722 -0.6602 -0.8402
   57MOL   H26918301   4.560   1.753   0.722  0.7671  0.5955  1.2868
   57MOL   H27018302   4.632   1.889   0.649 -0.7474  1.8301  1.3765
   57MOL   H27118303   4.567   1.754   0.550 -0.9471  0.3088  0.3740
   57MOL   H27218304   4.215   1.875   0.715  0.2500  0.5336  1.1635
   57MOL   H27318305   4.336   1.738   0.760  2.0780  0.1712 -0.3706
   57MOL   C27418306   4.344   2.133   0.634  0.5799 -0.3079 -0.7947
   57MOL   C27518307   4.290   2.249   0.551  0.0517  0.0799  0.3792
   57MOL   C27618308   4.443   2.177   0.752  0.6413  0.8218 -1.4205
   57MOL   C27718309   4.363   2.191   0.881 -0.7430  0.0957 -0.6799
   57MOL   C27818310   4.274   2.313   0.890 -0.6914 -0.2797  0.8013
   57MOL   C27918311   4.374   2.108   0.987 -0.2195 -0.5784 -0.0868
   57MOL   H28018312   4.257   2.091   0.683  0.5245  0.9581  0.2329
   57MOL   H28118313   4.359   2.278   0.471  1.5753 -2.5066  0.6745
   57MOL   H28218314   4.267   2.342   0.602  0.4877 -0.4351  1.5247
   57MOL   H28318315   4.191   2.227   0.511  0.5015 -1.8691  0.2820
   57MOL   H28418316   4.500   2.085   0.768  2.5714  1.9520 -1.6401
   57MOL   H28518317   4.326   2.409   0.877 -0.2302 -0.3159  2.2475
   57MOL   H28618318   4.241   2.326   0.993  2.5287 -0.9305  1.9910
   57MOL   H28718319   4.199   2.307   0.811  1.0653  1.9658 -1.1456
   57MOL   H28818320   4.453   2.034   0.993  1.0583  0.9313  2.4624
   57MOL   H28918321   4.314   2.117   1.076 -0.0063  0.9808 -0.0844
   57MOL   C29018322   4.543   2.293   0.732 -0.0071 -0.2360  0.0909
   57MOL   C29118323   4.620   2.280   0.599  0.7831 -0.3148  0.2228
   57MOL   C29218324   4.633   2.310   0.860 -1.2476 -0.1619  0.1851
   57MOL   C29318325   4.642   2.458   0.892 -0.0664 -1.9265 -0.1949
   57MOL   C29418326   4.731   2.542   0.809  0.1427 -0.1133  0.4155
   57MOL   C29518327   4.585   2.508   1.003  0.6595  0.3493  0.5986
   57MOL   H29618328   4.481   2.383   0.733  0.4502  0.0707  1.0641
   57MOL   H29718329   4.692   2.359   0.581  0.7430 -0.6540 -1.5384
   57MOL   H29818330   4.574   2.276   0.500  2.3122  0.3183 -0.5295
   57MOL   H29918331   4.679   2.188   0.598  1.9764  0.4389 -1.6227
   57MOL   H30018332   4.577   2.269   0.944 -1.1145 -0.0717  0.3176
   57MOL   H30118333   4.727   2.647   0.840  1.3534  0.1357 -0.2350
   57MOL   H30218334   4.701   2.543   0.704 -1.7464 -0.5031  0.9346
   57MOL   H30318335   4.833   2.504   0.809  0.3151  0.2789  2.4598
   57MOL   H30418336   4.528   2.452   1.076 -0.6682 -2.4278 -2.4519
   57MOL   H30518337   4.604   2.612   1.022  0.3106  0.4868  0.1967
   57MOL   C30618338   4.773   2.239   0.861 -0.0685 -0.3380 -0.5977
   57MOL   C30718339   4.765   2.083   0.840 -0.7617 -0.3920  0.7181
   57MOL   C30818340   4.861   2.274   0.986  0.3843 -0.8949 -0.3716
   57MOL   C30918341   5.008   2.250   0.972  0.1601  0.2067 -0.1751
   57MOL   C31018342   5.063   2.120   1.021 -0.7409  0.0342  0.2009
   57MOL   C31118343   5.087   2.342   0.924  0.1789 -0.0876 -0.2018
   57MOL   H31218344   4.823   2.266   0.768  1.7676  1.6301  0.9105
   57MOL   H31318345   4.727   2.023   0.923  0.3768  0.4320  1.8485
   57MOL   H31418346   4.865   2.043   0.823  0.1726  2.0168  0.3378
   57MOL   H31518347   4.709   2.053   0.751  0.6145 -1.9043  0.3193
   57MOL   H31618348   4.839   2.371   1.030 -1.2494 -2.3905  2.3115
   57MOL   H31718349   5.061   2.115   1.130  1.1482  4.7111  0.5529
   57MOL   H31818350   5.168   2.103   0.997 -1.4657 -0.9813 -2.4850
   57MOL   H31918351   5.007   2.031   0.992 -0.4581 -0.2657  0.5624
   57MOL   H32018352   5.047   2.440   0.902 -0.2439  0.6876  3.7083
   57MOL   H32118353   5.194   2.330   0.910  0.6071  1.2668  1.6743
   57MOL   H32218354   4.815   2.218   1.068 -0.0745  1.8018  1.2555
   58MOL     C118355   2.494   0.055   4.657  0.1731  0.7553 -0.5313
   58MOL     C218356   2.427   0.192   4.684  0.4320 -0.3808 -0.5650
   58MOL     C318357   2.381   7.849   4.604  0.0907  0.0943 -0.1796
   58MOL     C418358   2.277   7.816   4.709  0.0999  0.9355  0.5078
   58MOL     C518359   2.144   7.773   4.658  0.5481  0.3732 -1.0086
   58MOL     C618360   2.301   7.818   4.838 -0.2803  0.0411 -0.1074
   58MOL     H718361   2.574   0.081   4.588 -0.7936  1.7585 -1.3110
   58MOL     H818362   2.422   0.228   4.787 -1.3186 -0.0224 -0.7556
   58MOL     H918363   2.326   0.193   4.643  0.1127 -1.0780  0.1960
   58MOL    H1018364   2.483   0.263   4.623 -0.5943  0.9041 -0.0642
   58MOL    H1118365   2.327   0.005   4.523  0.4507  2.1865  0.8022
   58MOL    H1218366   2.070   7.766   4.738  0.9657 -1.1396 -0.7492
   58MOL    H1318367   2.139   7.678   4.606  0.3936 -0.3768  0.3486
   58MOL    H1418368   2.114   7.855   4.593  0.2359  1.4224  0.4252
   58MOL    H1518369   2.399   7.843   4.876 -1.0005  0.4340  1.5177
   58MOL    H1618370   2.223   7.778   4.901 -0.0777  2.5296  1.7972
   58MOL    H1718371   2.553   0.010   4.736 -0.2755  1.6618  0.3312
   58MOL    C1818372   2.447   7.724   4.534 -0.4593 -0.5830 -0.4451
   58MOL    C1918373   2.540   7.648   4.637 -0.4840  0.0745  0.6703
   58MOL    C2018374   2.524   7.758   4.394  0.9857  0.9839 -0.0514
   58MOL    C2118375   2.473   7.875   4.312 -0.3902 -0.2805 -0.7738
   58MOL    C2218376   2.340   7.868   4.248 -0.7426 -0.0559 -0.5405
   58MOL    C2318377   2.545   0.092   4.301 -0.3167  0.1340 -0.3789
   58MOL    H2418378   2.360   7.659   4.526 -1.1832 -0.0261  2.4554
   58MOL    H2518379   2.634   7.703   4.637 -0.9052  0.9070 -2.4026
   58MOL    H2618380   2.563   7.548   4.599  0.8507  0.0267  1.5868
   58MOL    H2718381   2.488   7.627   4.730 -3.1823  0.3762 -0.7285
   58MOL    H2818382   2.623   7.793   4.423  0.8497  2.4309 -1.2626
   58MOL    H2918383   2.321   7.794   4.171 -2.5222 -2.1844  1.8678
   58MOL    H3018384   2.307   0.066   4.198 -1.2960  0.4525  0.7230
   58MOL    H3118385   2.268   7.852   4.329 -0.2398 -1.7029 -0.4008
   58MOL    H3218386   2.638   0.106   4.354 -1.3675  2.0722  1.0134
   58MOL    H3318387   2.505   0.171   4.238  1.6953 -0.0667 -1.9588
   58MOL    C3418388   2.542   7.634   4.293 -0.7234 -0.0755  0.3012
   58MOL    C3518389   2.417   7.540   4.305 -0.5135 -0.3595  0.9277
   58MOL    C3618390   2.673   7.554   4.309  0.5590 -0.1129 -0.4656
   58MOL    C3718391   2.794   7.644   4.317 -1.0523 -0.3440 -0.1316
   58MOL    C3818392   2.836   7.733   4.196 -0.2788 -0.6699 -0.3531
   58MOL    C3918393   2.872   7.644   4.429 -0.1060 -0.7540  0.1744
   58MOL    H4018394   2.538   7.674   4.192 -0.0774 -0.1195  0.2565
   58MOL    H4118395   2.408   7.481   4.396  0.6158 -0.5397  0.9314
   58MOL    H4218396   2.405   7.475   4.218  1.8231 -0.8254  0.9345
   58MOL    H4318397   2.327   7.601   4.303  1.4708  2.6647  0.6889
   58MOL    H4418398   2.672   7.512   4.409  0.1890 -1.5641 -1.0671
   58MOL    H4518399   2.896   7.685   4.119 -1.4117 -1.1659 -0.9531
   58MOL    H4618400   2.892   7.823   4.220 -0.2806 -0.9083  0.5304
   58MOL    H4718401   2.747   7.779   4.152  0.1816  0.2390 -0.3453
   58MOL    H4818402   2.845   7.590   4.518 -2.9262  1.6827  0.8867
   58MOL    H4918403   2.952   7.717   4.435 -1.9632  1.2615  1.2621
   58MOL    C5018404   2.704   7.444   4.194  0.0584 -0.2291 -0.1370
   58MOL    C5118405   2.656   7.488   4.052 -0.3120  0.2902 -0.4169
   58MOL    C5218406   2.651   7.297   4.223  0.4088  0.2300  0.1131
   58MOL    C5318407   2.659   7.254   4.374 -0.0092  0.0974  0.4556
   58MOL    C5418408   2.800   7.231   4.427  0.7316 -0.3055  0.0049
   58MOL    C5518409   2.539   7.224   4.432 -0.0141 -0.3400  0.1608
   58MOL    H5618410   2.813   7.439   4.188  0.0569  0.3129 -0.5612
   58MOL    H5718411   2.692   7.585   4.019  1.5634 -0.5917 -1.0303
   58MOL    H5818412   2.549   7.480   4.032 -0.9992 -0.2159  3.1006
   58MOL    H5918413   2.709   7.429   3.977  3.0531 -0.4477  2.3975
   58MOL    H6018414   2.544   7.312   4.210  0.1110 -0.6846  1.4315
   58MOL    H6118415   2.789   7.235   4.535 -0.0614 -0.3486 -0.0725
   58MOL    H6218416   2.869   7.300   4.379  2.7740 -2.6123 -0.5244
   58MOL    H6318417   2.838   7.132   4.398 -1.0146 -1.0806  0.3230
   58MOL    H6418418   2.444   7.242   4.383 -0.8354 -2.6800  0.8458
   58MOL    H6518419   2.529   7.186   4.532 -0.3194  0.0942  0.2990
   58MOL    C6618420   2.697   7.177   4.127 -0.6577 -0.0920  0.6362
   58MOL    C6718421   2.842   7.208   4.078  0.0846  0.3902 -0.2839
   58MOL    C6818422   2.591   7.141   4.013  0.1671 -0.0714 -0.4850
   58MOL    C6918423   2.451   7.124   4.062 -0.8448 -0.0466 -0.0817
   58MOL    C7018424   2.431   7.024   4.169 -0.2280 -0.5361  0.3315
   58MOL    C7118425   2.356   7.209   4.020  0.2643  0.2954  0.5629
   58MOL    H7218426   2.706   7.093   4.197 -1.5652  0.6283  1.6296
   58MOL    H7318427   2.915   7.225   4.156  1.0462  1.1753 -1.3454
   58MOL    H7418428   2.849   7.294   4.012 -1.1770  0.4374 -0.3790
   58MOL    H7518429   2.892   7.126   4.026 -2.2615 -1.3506  0.1155
   58MOL    H7618430   2.589   7.236   3.959 -1.7669  1.9016  2.8246
   58MOL    H7718431   2.343   7.042   4.230  0.0355 -0.4088  0.6744
   58MOL    H7818432   2.519   7.018   4.233 -0.4800 -1.9936  0.5528
   58MOL    H7918433   2.409   6.932   4.115 -1.9488 -0.0420  0.1537
   58MOL    H8018434   2.369   7.283   3.942 -1.4186  0.2586  0.2375
   58MOL    H8118435   2.256   7.205   4.060 -0.1443  0.8091 -0.3877
   58MOL    C8218436   2.630   7.029   3.909 -0.3743 -1.1990  0.2792
   58MOL    C8318437   2.693   6.907   3.989 -0.1562  0.1918  0.2772
   58MOL    C8418438   2.697   7.078   3.780 -0.0725  0.4198 -0.1397
   58MOL    C8518439   2.631   7.208   3.726  0.3840 -0.3639  0.3045
   58MOL    C8618440   2.490   7.201   3.673  0.2850  0.3230 -0.7958
   58MOL    C8718441   2.697   7.325   3.720 -0.3677 -0.1992 -0.4583
   58MOL    H8818442   2.537   6.986   3.872  0.6477 -2.2543 -1.1753
   58MOL    H8918443   2.801   6.916   4.002 -0.3368  1.6143  0.9131
   58MOL    H9018444   2.683   6.802   3.961 -1.2290 -0.3902  2.6580
   58MOL    H9118445   2.652   6.905   4.091  1.8862 -0.8504  1.1024
   58MOL    H9218446   2.797   7.104   3.814  0.0894 -1.0721  0.5939
   58MOL    H9318447   2.488   7.199   3.564 -0.2751  1.2823 -0.8039
   58MOL    H9418448   2.437   7.288   3.712 -0.2286 -0.5367  0.4600
   58MOL    H9518449   2.436   7.120   3.721  2.8058 -1.0660 -0.1974
   58MOL    H9618450   2.796   7.327   3.763 -1.1906  1.9029  1.4335
   58MOL    H9718451   2.662   7.416   3.673  0.5715  0.1312 -0.5246
   58MOL    C9818452   2.719   6.966   3.671 -0.5554  0.1938 -0.4667
   58MOL    C9918453   2.591   6.872   3.660 -0.8153  0.6439 -0.5154
   58MOL   C10018454   2.863   6.896   3.680  0.2247  0.6122  0.0222
   58MOL   C10118455   2.979   6.997   3.696  0.2834  0.0749  0.2723
   58MOL   C10218456   2.989   7.099   3.589 -0.7933 -0.5815 -1.3786
   58MOL   C10318457   3.063   6.993   3.801 -0.3936 -0.1551  0.4837
   58MOL   H10418458   2.717   7.012   3.572  1.1206  1.3251 -0.0012
   58MOL   H10518459   2.500   6.926   3.635 -0.0447  0.9159 -2.8371
   58MOL   H10618460   2.570   6.813   3.749  3.7648  1.5847  1.3795
   58MOL   H10718461   2.609   6.813   3.571 -0.8647  0.1780 -0.2170
   58MOL   H10818462   2.861   6.843   3.775  0.0191  1.3200  0.4189
   58MOL   H10918463   3.067   7.086   3.514 -0.5359  0.8482 -1.3753
   58MOL   H11018464   3.028   7.193   3.630 -0.0171 -1.0859 -0.9495
   58MOL   H11118465   2.895   7.119   3.538 -0.8074  2.5794 -0.2311
   58MOL   H11218466   3.046   6.925   3.883  1.5719  0.2292  1.2144
   58MOL   H11318467   3.154   7.050   3.807 -0.5893  0.2132  0.0262
   58MOL   C11418468   2.901   6.788   3.578  0.0889  0.1207 -0.2799
   58MOL   C11518469   2.854   6.825   3.434 -0.4644  0.6517  0.4241
   58MOL   C11618470   2.876   6.643   3.637  0.2136 -0.4080 -0.2092
   58MOL   C11718471   2.956   6.620   3.770  0.2315 -0.0289  0.0156
   58MOL   C11818472   2.895   6.537   3.880  0.8538  0.1137  0.7363
   58MOL   C11918473   3.082   6.663   3.791  0.2464 -0.4473  0.1126
   58MOL   H12018474   3.010   6.791   3.565 -0.0023  0.6778 -0.9922
   58MOL   H12118475   2.905   6.779   3.350 -1.6288  0.2545 -0.0756
   58MOL   H12218476   2.869   6.932   3.418 -1.8930  0.9022  0.6944
   58MOL   H12318477   2.749   6.808   3.411 -0.6646 -0.4099  2.0394
   58MOL   H12418478   2.773   6.646   3.674  0.5411 -0.7183  0.7465
   58MOL   H12518479   2.935   6.553   3.980 -0.1169  0.4834  1.0748
   58MOL   H12618480   2.905   6.429   3.870  0.1779  0.1651 -0.5363
   58MOL   H12718481   2.786   6.547   3.885  1.1484  3.7673  1.4447
   58MOL   H12818482   3.149   6.714   3.724  1.4805  0.3943  1.9517
   58MOL   H12918483   3.116   6.649   3.892 -0.0018  0.5903  0.3443
   58MOL   C13018484   2.890   6.518   3.544  0.0840  0.1609  0.3685
   58MOL   C13118485   3.030   6.520   3.483  0.0404 -0.1379  0.1929
   58MOL   C13218486   2.774   6.482   3.453 -0.2481  0.1513 -0.1866
   58MOL   C13318487   2.660   6.430   3.537  0.3325  0.0069 -0.5540
   58MOL   C13418488   2.665   6.302   3.607 -0.1152  0.7027 -0.3505
   58MOL   C13518489   2.555   6.507   3.559 -0.6053  0.2795  0.6328
   58MOL   H13618490   2.887   6.442   3.622  0.5025  0.8745  1.0857
   58MOL   H13718491   3.046   6.613   3.429  1.4743 -2.7255 -4.1147
   58MOL   H13818492   3.057   6.445   3.408  0.4690 -1.4995  1.6743
   58MOL   H13918493   3.098   6.504   3.567  0.7944 -0.0579 -0.4029
   58MOL   H14018494   2.755   6.583   3.415 -0.6459  0.1003 -0.1299
   58MOL   H14118495   2.690   6.218   3.542  2.6854  1.4203 -0.2801
   58MOL   H14218496   2.572   6.282   3.660  0.4257  0.3966  0.4893
   58MOL   H14318497   2.742   6.302   3.685 -0.1128  1.2952 -0.3514
   58MOL   H14418498   2.533   6.605   3.520 -0.1513  0.5593  1.0701
   58MOL   H14518499   2.477   6.467   3.622  1.2379 -2.3583  1.3249
   58MOL   C14618500   2.805   6.393   3.321 -0.3946  0.3074 -0.6906
   58MOL   C14718501   2.890   6.467   3.210  0.2869 -0.1255 -0.5975
   58MOL   C14818502   2.687   6.304   3.260 -0.0729 -0.8727 -0.9962
   58MOL   C14918503   2.755   6.189   3.180  0.2311 -0.8894 -0.0183
   58MOL   C15018504   2.820   6.213   3.041  0.7824  0.6561  0.8429
   58MOL   C15118505   2.756   6.066   3.227 -0.1229 -0.2354 -0.0126
   58MOL   H15218506   2.876   6.322   3.364 -1.5135 -0.6435 -0.3708
   58MOL   H15318507   2.822   6.492   3.129  0.3660  1.9428 -0.0395
   58MOL   H15418508   2.980   6.407   3.194 -0.0665 -1.4121  1.9258
   58MOL   H15518509   2.922   6.569   3.232  0.2177 -0.0415 -0.8841
   58MOL   H15618510   2.632   6.251   3.338  1.2892  2.2248  2.1893
   58MOL   H15718511   2.866   6.123   2.997 -1.4221 -0.9543  1.7488
   58MOL   H15818512   2.899   6.288   3.034 -0.1226  1.4613 -1.0428
   58MOL   H15918513   2.745   6.251   2.973  1.1293  0.1331  0.1551
   58MOL   H16018514   2.717   6.039   3.324 -1.6555 -0.5531 -0.6993
   58MOL   H16118515   2.797   5.986   3.166 -1.0009 -0.1898 -0.6764
   58MOL   C16218516   2.580   6.369   3.168  0.0226 -0.0918 -0.0600
   58MOL   C16318517   2.538   6.514   3.202  0.6502 -0.4096  0.2778
   58MOL   C16418518   2.457   6.282   3.130 -0.1706  0.3033 -0.6659
   58MOL   C16518519   2.402   6.319   2.991  0.5023  0.1339 -0.5049
   58MOL   C16618520   2.470   6.251   2.868 -0.0629  1.0274 -0.4295
   58MOL   C16718521   2.315   6.414   2.968  0.6243  0.0620 -0.0268
   58MOL   H16818522   2.636   6.392   3.077  0.2999 -1.3433 -0.2067
   58MOL   H16918523   2.531   6.514   3.311  3.2494  1.3209  0.4736
   58MOL   H17018524   2.441   6.546   3.164  0.8485 -1.8888 -1.5372
   58MOL   H17118525   2.619   6.582   3.176  3.2819 -2.2826  3.2127
   58MOL   H17218526   2.504   6.188   3.102  0.8534  0.6567 -0.1564
   58MOL   H17318527   2.475   6.146   2.894  0.7839  1.1374 -0.1390
   58MOL   H17418528   2.570   6.287   2.844  1.3422 -1.4186  1.6538
   58MOL   H17518529   2.395   6.258   2.788 -0.3390  0.0360 -0.2529
   58MOL   H17618530   2.259   6.467   3.044 -1.4290 -2.4424  0.3038
   58MOL   H17718531   2.284   6.451   2.871  0.7964  1.1996  0.3420
   58MOL   C17818532   2.338   6.238   3.234 -0.2828  0.0495 -0.5534
   58MOL   C17918533   2.353   6.298   3.377 -0.6803 -0.5464  0.5784
   58MOL   C18018534   2.320   6.084   3.252  0.7638  0.1284  0.3981
   58MOL   C18118535   2.294   6.004   3.128 -0.2499  0.9906  0.2684
   58MOL   C18218536   2.403   5.898   3.098 -0.4123 -0.4183 -0.0819
   58MOL   C18318537   2.200   6.046   3.039 -0.9624  0.5166 -0.1959
   58MOL   H18418538   2.245   6.275   3.191 -0.0747 -0.2597 -1.2748
   58MOL   H18518539   2.258   6.294   3.431 -0.4405 -1.5471  0.9477
   58MOL   H18618540   2.358   6.407   3.374 -0.7776 -0.5314  0.9849
   58MOL   H18718541   2.439   6.262   3.433 -0.9395 -0.4097  1.0682
   58MOL   H18818542   2.414   6.052   3.295 -0.0525 -1.1198  1.2888
   58MOL   H18918543   2.417   5.818   3.171  2.0440  0.5608  0.5833
   58MOL   H19018544   2.499   5.949   3.083 -0.2459 -0.3304  1.2420
   58MOL   H19118545   2.377   5.845   3.006 -2.4754  0.7884 -0.2315
   58MOL   H19218546   2.128   6.125   3.058  0.4161  1.9167 -0.6913
   58MOL   H19318547   2.198   5.989   2.948 -0.6820 -0.1600  0.2202
   58MOL   C19418548   2.213   6.033   3.356  0.2755  0.0850 -0.4227
   58MOL   C19518549   2.080   6.116   3.355  0.3180  0.0929  0.2980
   58MOL   C19618550   2.267   5.989   3.496  1.0051 -1.0311 -0.3016
   58MOL   C19718551   2.392   5.897   3.511 -0.2379  0.0296 -0.2789
   58MOL   C19818552   2.383   5.751   3.515  0.2213 -0.7353  0.3764
   58MOL   C19918553   2.513   5.958   3.534  0.0646  0.8795 -0.1887
   58MOL   H20018554   2.171   5.941   3.315  0.0403 -0.1469  0.3376
   58MOL   H20118555   2.060   6.172   3.263 -4.3828  0.8135  1.6237
   58MOL   H20218556   2.069   6.195   3.430 -1.8770  0.7020 -0.6118
   58MOL   H20318557   1.997   6.046   3.353  0.2497  0.1111 -4.9334
   58MOL   H20418558   2.307   6.085   3.528  0.2990 -1.0007  0.5151
   58MOL   H20518559   2.313   5.714   3.440 -0.4326  1.9873 -0.3955
   58MOL   H20618560   2.346   5.717   3.612  1.9499 -1.0817  0.9317
   58MOL   H20718561   2.480   5.704   3.497 -0.4491 -0.9759 -2.8965
   58MOL   H20818562   2.519   6.066   3.530 -3.4780  1.1307 -0.2710
   58MOL   H20918563   2.608   5.908   3.549  0.4256  1.0838 -1.6549
   58MOL   C21018564   2.171   5.941   3.609  0.1860 -0.1856  0.7063
   58MOL   C21118565   2.075   5.824   3.557  0.3239 -0.6529 -0.8020
   58MOL   C21218566   2.107   6.058   3.697 -0.1383  0.4914  0.1011
   58MOL   C21318567   2.212   6.147   3.757 -0.1693 -0.4674 -0.4797
   58MOL   C21418568   2.179   6.301   3.743 -0.0975  0.7461 -0.5908
   58MOL   C21518569   2.323   6.109   3.820  0.0167  0.1654  0.4008
   58MOL   H21618570   2.233   5.901   3.690  0.2489 -1.1050  0.2139
   58MOL   H21718571   2.066   5.754   3.639 -4.2144 -0.7215 -1.2329
   58MOL   H21818572   2.106   5.766   3.470  1.1446  0.0725 -1.0096
   58MOL   H21918573   1.975   5.850   3.523  0.6172  0.8686 -0.5452
   58MOL   H22018574   2.048   6.124   3.635  0.5011  1.8601  0.9180
   58MOL   H22118575   2.175   6.337   3.640 -1.4278  4.7388  0.7873
   58MOL   H22218576   2.263   6.355   3.786  0.8862 -1.4465  0.3322
   58MOL   H22318577   2.090   6.322   3.802  0.6857 -1.7386  1.5820
   58MOL   H22418578   2.359   6.009   3.837 -0.7783 -0.1194  0.4351
   58MOL   H22518579   2.399   6.176   3.855  0.6862 -0.0098 -0.6854
   58MOL   C22618580   2.011   6.018   3.814 -0.4430  0.7129  0.6820
   58MOL   C22718581   2.073   5.926   3.919  0.1763 -0.0330  0.3978
   58MOL   C22818582   1.861   5.968   3.777 -0.1591  0.1724  0.3594
   58MOL   C22918583   1.803   6.043   3.659  0.4677 -0.7359  0.3937
   58MOL   C23018584   1.795   6.194   3.673  0.3746 -0.6568 -0.1712
   58MOL   C23118585   1.752   5.982   3.550  0.2460  0.4301 -0.3694
   58MOL   H23218586   1.998   6.109   3.872 -2.5817  0.9309 -0.1143
   58MOL   H23318587   2.009   5.895   4.001  0.3413  0.5859  0.7607
   58MOL   H23418588   2.159   5.970   3.968 -0.8070  0.6964  1.4917
   58MOL   H23518589   2.107   5.833   3.872 -1.4082 -1.5089  2.0876
   58MOL   H23618590   1.869   5.868   3.733  0.9538  0.6185 -0.4860
   58MOL   H23718591   1.723   6.221   3.750 -1.4893  0.1399 -2.1447
   58MOL   H23818592   1.749   6.232   3.582  1.4648 -0.2667 -0.5639
   58MOL   H23918593   1.887   6.251   3.682  1.3682 -2.3580  0.6157
   58MOL   H24018594   1.754   5.874   3.540 -0.9287  0.4517 -0.9396
   58MOL   H24118595   1.712   6.047   3.474 -0.0111  0.0712 -0.5438
   58MOL   C24218596   1.750   5.955   3.891  0.4836  1.0179 -0.3936
   58MOL   C24318597   1.761   6.068   3.989 -0.4043  0.0709 -0.0083
   58MOL   C24418598   1.723   5.813   3.958 -0.4280  1.0418 -0.1565
   58MOL   C24518599   1.709   5.699   3.857 -0.2049  0.1495 -0.2957
   58MOL   C24618600   1.587   5.692   3.772  0.8060  0.9005 -0.1711
   58MOL   C24718601   1.808   5.606   3.851 -0.0372  0.3297 -0.7820
   58MOL   H24818602   1.655   5.972   3.840 -0.5755 -1.3092  0.7299
   58MOL   H24918603   1.843   6.050   4.058  0.2630  0.4588 -0.6830
   58MOL   H25018604   1.672   6.083   4.049 -0.3526 -1.2662  0.4248
   58MOL   H25118605   1.776   6.167   3.946 -1.4121  0.7910  1.2719
   58MOL   H25218606   1.817   5.794   4.009 -1.4774 -2.3076  0.6377
   58MOL   H25318607   1.583   5.614   3.695  1.0199 -1.9459  2.6016
   58MOL   H25418608   1.588   5.790   3.724  1.7100  0.5528 -0.8882
   58MOL   H25518609   1.491   5.682   3.822  1.3244 -0.0634  0.6547
   58MOL   H25618610   1.894   5.609   3.915 -0.5838 -1.5021  0.0702
   58MOL   H25718611   1.804   5.525   3.780  4.3247  0.9550 -1.8900
   58MOL   C25818612   1.609   5.803   4.067 -0.2097 -0.7257 -0.1187
   58MOL   C25918613   1.479   5.875   4.022 -0.5397  0.6102  0.7550
   58MOL   C26018614   1.661   5.829   4.213  0.2675 -0.3618 -0.5066
   58MOL   C26118615   1.781   5.738   4.260 -0.6730  0.1316  0.7347
   58MOL   C26218616   1.879   5.798   4.358 -0.5296  0.4935 -0.6900
   58MOL   C26318617   1.796   5.615   4.207  0.1626 -0.0518 -0.6675
   58MOL   H26418618   1.573   5.701   4.073  0.0239 -0.8093 -0.1596
   58MOL   H26518619   1.494   5.982   4.037 -0.2495  0.7727 -0.6617
   58MOL   H26618620   1.390   5.842   4.075 -0.3395  1.9529  1.9599
   58MOL   H26718621   1.474   5.875   3.913  0.3475 -0.7786  0.7070
   58MOL   H26818622   1.703   5.929   4.207 -1.8172  0.6766  1.0816
   58MOL   H26918623   1.943   5.718   4.394  1.2942  1.2045 -2.2757
   58MOL   H27018624   1.825   5.845   4.441  1.5997  0.3500  0.7997
   58MOL   H27118625   1.950   5.860   4.303  1.5264 -0.4602  0.8594
   58MOL   H27218626   1.740   5.566   4.129  0.0018  0.0843 -0.6380
   58MOL   H27318627   1.884   5.560   4.238  0.5443  1.7627  1.6369
   58MOL   C27418628   1.557   5.832   4.326  0.6706 -0.0294 -0.0977
   58MOL   C27518629   1.473   5.699   4.333 -0.2605 -0.2275  0.2541
   58MOL   C27618630   1.473   5.962   4.336  0.0075  0.2267  0.1106
   58MOL   C27718631   1.550   6.095   4.330  0.3740  0.3240  0.6634
   58MOL   C27818632   1.656   6.125   4.429 -0.2046 -0.4586  0.3228
   58MOL   C27918633   1.512   6.189   4.244  0.3624 -0.4014  0.1073
   58MOL   H28018634   1.602   5.829   4.425 -0.4944 -3.8141  0.3992
   58MOL   H28118635   1.532   5.608   4.346 -1.1883 -0.6526  1.5187
   58MOL   H28218636   1.400   5.689   4.253  2.4391 -1.7980 -2.0949
   58MOL   H28318637   1.402   5.691   4.415 -1.8905  4.5290 -0.4856
   58MOL   H28418638   1.413   5.961   4.244  1.3103  0.2334 -0.7523
   58MOL   H28518639   1.620   6.182   4.515 -0.7398  0.2596 -0.3677
   58MOL   H28618640   1.730   6.193   4.387  0.9718 -1.4553  0.7444
   58MOL   H28718641   1.714   6.039   4.461  2.3580  0.1486 -2.4010
   58MOL   H28818642   1.437   6.163   4.170 -2.7946  1.7339  2.3948
   58MOL   H28918643   1.549   6.291   4.240 -0.5772 -0.0116  0.8899
   58MOL   C29018644   1.364   5.977   4.446  0.8670  0.8981 -0.1991
   58MOL   C29118645   1.406   5.927   4.584 -0.0998  0.5903 -0.4317
   58MOL   C29218646   1.215   5.933   4.401  0.0650 -0.1907  0.1703
   58MOL   C29318647   1.166   5.996   4.271  0.0548  0.1243 -0.2315
   58MOL   C29418648   1.141   6.142   4.273  0.3334  0.0287  0.5366
   58MOL   C29518649   1.127   5.931   4.162 -0.6156 -0.4333  0.0151
   58MOL   H29618650   1.344   6.079   4.480 -2.1122 -0.3603  2.0153
   58MOL   H29718651   1.332   5.935   4.664  0.0815 -3.7477  0.3219
   58MOL   H29818652   1.502   5.971   4.610  1.0656 -2.4978  0.8294
   58MOL   H29918653   1.439   5.823   4.577  0.0378  0.6761 -1.1036
   58MOL   H30018654   1.224   5.830   4.369 -0.6991 -1.0922  2.7403
   58MOL   H30118655   1.213   6.192   4.338 -0.7035 -0.0137  1.7414
   58MOL   H30218656   1.043   6.157   4.317  0.2908  0.8715  0.1696
   58MOL   H30318657   1.145   6.189   4.175  1.1456 -0.5346  0.2904
   58MOL   H30418658   1.129   5.823   4.159 -1.4635 -0.4941  1.1929
   58MOL   H30518659   1.097   5.974   4.068 -1.0777 -1.1336 -0.1609
   58MOL   C30618660   1.102   5.927   4.511 -0.3149  0.0388 -0.4436
   58MOL   C30718661   1.085   6.040   4.605 -0.6738 -0.1992  0.0429
   58MOL   C30818662   1.087   5.788   4.598  0.2383  0.2346  0.3041
   58MOL   C30918663   1.039   5.677   4.514  0.1783  0.7869 -0.3612
   58MOL   C31018664   0.896   5.695   4.471  0.6543  0.9738  0.3978
   58MOL   C31118665   1.106   5.567   4.494  0.1449 -0.3612 -0.0517
   58MOL   H31218666   1.007   5.939   4.459 -1.8221 -1.3908  1.8391
   58MOL   H31318667   1.109   6.137   4.561  1.6721  0.1508  1.9965
   58MOL   H31418668   1.145   6.037   4.696  0.1185 -0.1050 -0.4707
   58MOL   H31518669   0.982   6.045   4.640 -0.9161  0.9083 -0.7846
   58MOL   H31618670   1.174   5.757   4.657 -0.4684 -2.1304  0.1525
   58MOL   H31718671   0.902   5.777   4.400  1.4247  0.2191 -0.4300
   58MOL   H31818672   0.823   5.716   4.549 -1.1935 -1.4021 -0.6091
   58MOL   H31918673   0.876   5.610   4.406  0.5058  0.9329  0.4984
   58MOL   H32018674   1.205   5.559   4.536  0.5325  1.1385 -0.6404
   58MOL   H32118675   1.064   5.484   4.439  0.8439 -0.0059 -1.1320
   58MOL   H32218676   1.009   5.810   4.671 -0.1911  2.5037 -0.7982
   59MOL     C118677   3.658   4.764   6.887  0.8673 -0.5078  0.2510
   59MOL     C218678   3.803   4.805   6.904  0.0837  0.3015 -0.1267
   59MOL     C318679   3.565   4.887   6.859  0.2739  0.2953 -0.4818
   59MOL     C418680   3.578   5.007   6.954  0.0515  0.3110  0.3899
   59MOL     C518681   3.550   5.142   6.891 -0.8119 -0.6156 -0.1321
   59MOL     C618682   3.605   5.009   7.085 -0.2020  0.1775  0.4073
   59MOL     H718683   3.637   4.687   6.812 -1.9845  1.3399 -0.9019
   59MOL     H818684   3.829   4.873   6.823 -1.0522 -1.1662 -1.7419
   59MOL     H918685   3.861   4.713   6.905 -1.0998 -0.4872 -1.7279
   59MOL    H1018686   3.829   4.848   7.001  0.3358  0.1549 -0.1294
   59MOL    H1118687   3.598   4.932   6.765 -0.8406  2.0289 -0.0632
   59MOL    H1218688   3.441   5.141   6.897 -0.7415 -1.6392  1.6586
   59MOL    H1318689   3.581   5.142   6.787  0.0850 -1.4445  0.1239
   59MOL    H1418690   3.562   5.231   6.953  1.7300 -0.8273 -0.2721
   59MOL    H1518691   3.612   4.916   7.139  0.1866  0.8776  1.5933
   59MOL    H1618692   3.608   5.099   7.145 -1.4255  0.9325 -0.6426
   59MOL    H1718693   3.629   4.722   6.983 -1.3315 -0.8064 -0.5102
   59MOL    C1818694   3.414   4.839   6.847 -0.1845 -0.1457  0.0520
   59MOL    C1918695   3.365   4.762   6.974  0.8667 -0.1714 -0.1204
   59MOL    C2018696   3.381   4.768   6.711  0.3758  0.2706  0.4497
   59MOL    C2118697   3.424   4.846   6.586 -0.5869 -0.2953  0.8810
   59MOL    C2218698   3.483   4.761   6.469 -0.4086  0.4819  0.0831
   59MOL    C2318699   3.407   4.982   6.581 -0.2909  0.5309  0.1721
   59MOL    H2418700   3.357   4.932   6.845  1.2082  0.7683  1.7690
   59MOL    H2518701   3.412   4.664   6.977  1.3553  0.0173 -1.2874
   59MOL    H2618702   3.257   4.771   6.991  0.7732 -2.4859  0.7604
   59MOL    H2718703   3.406   4.815   7.059  1.2283  1.6868 -1.4284
   59MOL    H2818704   3.455   4.688   6.717 -0.0168 -0.0452  1.1066
   59MOL    H2918705   3.494   4.828   6.383  0.0790 -0.9985 -1.0282
   59MOL    H3018706   3.413   4.681   6.444  1.7173 -1.4982  0.3792
   59MOL    H3118707   3.575   4.708   6.493  0.3805  1.3504 -0.9413
   59MOL    H3218708   3.363   5.041   6.659 -1.7284  0.2901 -0.4466
   59MOL    H3318709   3.435   5.029   6.488  1.8100 -0.3863  0.2989
   59MOL    C3418710   3.239   4.702   6.694  0.0551 -0.6668 -0.3917
   59MOL    C3518711   3.116   4.791   6.736 -0.4793 -0.0348 -0.4019
   59MOL    C3618712   3.228   4.555   6.742  0.3706  0.3037  0.9076
   59MOL    C3718713   3.346   4.459   6.702  0.2153 -0.3633  0.2598
   59MOL    C3818714   3.359   4.407   6.559 -0.4870 -0.5410 -0.7580
   59MOL    C3918715   3.429   4.411   6.794  0.3859 -0.0412  0.2809
   59MOL    H4018716   3.229   4.697   6.586 -0.3788  2.4008 -0.5418
   59MOL    H4118717   3.090   4.784   6.841  1.7256 -2.5310  0.0484
   59MOL    H4218718   3.024   4.783   6.679 -2.0985  4.5848  1.3735
   59MOL    H4318719   3.138   4.897   6.724  0.0109 -0.1706 -0.7521
   59MOL    H4418720   3.242   4.571   6.849  0.1516  2.8394  0.5881
   59MOL    H4518721   3.347   4.487   6.485 -0.4919 -0.5572 -0.7736
   59MOL    H4618722   3.285   4.328   6.544 -0.8964 -0.2165 -0.4911
   59MOL    H4718723   3.457   4.365   6.541 -0.7370 -0.9117 -1.2704
   59MOL    H4818724   3.411   4.433   6.898  3.1490 -0.0322  0.7696
   59MOL    H4918725   3.511   4.341   6.785  0.6444  0.2255  0.5377
   59MOL    C5018726   3.087   4.476   6.729  0.7490 -0.1320  0.1324
   59MOL    C5118727   3.034   4.506   6.592 -0.0193  0.3124  0.0156
   59MOL    C5218728   2.993   4.499   6.849 -0.1568  1.0463  0.3585
   59MOL    C5318729   3.064   4.453   6.983  0.0932  0.1295  0.9612
   59MOL    C5418730   3.066   4.303   7.015  0.1899 -0.6332  0.3077
   59MOL    C5518731   3.115   4.539   7.067 -0.5570  0.1462  0.2199
   59MOL    H5618732   3.110   4.370   6.720  0.7436 -0.0005 -1.6835
   59MOL    H5718733   2.978   4.597   6.572 -0.8869  0.3625  2.4317
   59MOL    H5818734   2.967   4.425   6.561 -0.1215  0.8963 -1.3226
   59MOL    H5918735   3.119   4.507   6.524 -0.4625  2.8597 -0.5415
   59MOL    H6018736   2.977   4.606   6.858  2.7400  1.5159  0.1468
   59MOL    H6118737   3.106   4.251   6.929  0.8293 -0.3741  0.4473
   59MOL    H6218738   2.971   4.253   7.037 -1.6214  1.8297 -1.5564
   59MOL    H6318739   3.135   4.267   7.092  0.2366 -1.0230  0.0824
   59MOL    H6418740   3.123   4.645   7.047  2.2493  0.1058  0.8521
   59MOL    H6518741   3.154   4.508   7.163  1.6160  1.0462 -0.3442
   59MOL    C6618742   2.845   4.438   6.838 -0.2700 -0.6404  0.4470
   59MOL    C6718743   2.843   4.302   6.761 -0.2934 -0.1441 -0.5165
   59MOL    C6818744   2.741   4.529   6.766 -0.2465 -0.0011 -0.2171
   59MOL    C6918745   2.732   4.671   6.839 -0.0004  0.0877  0.3161
   59MOL    C7018746   2.726   4.784   6.741 -0.6039  0.0195  0.0768
   59MOL    C7118747   2.755   4.687   6.971  0.8404 -0.0160 -0.5826
   59MOL    H7218748   2.812   4.425   6.941 -0.9363  2.7406  0.7335
   59MOL    H7318749   2.772   4.228   6.797  1.4594 -1.7166 -0.2439
   59MOL    H7418750   2.944   4.261   6.769  0.0718  0.8360  0.1067
   59MOL    H7518751   2.818   4.323   6.657 -3.5483  1.9560  0.6152
   59MOL    H7618752   2.779   4.545   6.666  0.3163 -0.0142 -0.0075
   59MOL    H7718753   2.623   4.790   6.707 -0.2185  2.3517 -0.7650
   59MOL    H7818754   2.789   4.776   6.653 -0.7916 -0.8507  0.0130
   59MOL    H7918755   2.754   4.870   6.802  0.5726  0.3272 -0.8928
   59MOL    H8018756   2.761   4.601   7.036 -0.5893 -0.5548 -1.1383
   59MOL    H8118757   2.755   4.788   7.009 -4.2626 -0.2890  0.5924
   59MOL    C8218758   2.600   4.475   6.737 -0.2179 -0.8131 -0.7629
   59MOL    C8318759   2.551   4.525   6.600 -0.4272 -0.2548 -0.1433
   59MOL    C8418760   2.487   4.502   6.846 -0.2286  0.3485  0.0403
   59MOL    C8518761   2.522   4.472   6.991 -0.5923  0.7326 -0.3253
   59MOL    C8618762   2.489   4.578   7.098  0.1055 -0.3106 -0.5580
   59MOL    C8718763   2.573   4.353   7.028  0.2621  0.1481  0.5859
   59MOL    H8818764   2.607   4.369   6.714 -1.3966 -0.7860 -1.2924
   59MOL    H8918765   2.484   4.611   6.606 -1.1499 -0.8703  0.6687
   59MOL    H9018766   2.492   4.448   6.550 -0.4320 -1.3816  1.5635
   59MOL    H9118767   2.634   4.555   6.535  0.0386  0.4276  0.7604
   59MOL    H9218768   2.475   4.611   6.844  0.8289  0.4979 -4.7890
   59MOL    H9318769   2.481   4.676   7.053  0.3961  0.3766  0.8471
   59MOL    H9418770   2.569   4.593   7.171 -0.3596  1.0547 -0.3057
   59MOL    H9518771   2.396   4.549   7.148 -0.8980 -0.0166 -2.2252
   59MOL    H9618772   2.592   4.282   6.949 -3.1290 -0.1222 -0.0573
   59MOL    H9718773   2.598   4.343   7.133  2.3404  0.5872  0.1583
   59MOL    C9818774   2.351   4.423   6.822  0.6655  0.6212  0.0336
   59MOL    C9918775   2.367   4.289   6.748  0.3200 -0.1380 -0.1075
   59MOL   C10018776   2.230   4.514   6.767  0.3133  0.2615 -0.4785
   59MOL   C10118777   2.209   4.641   6.856  1.0855 -0.0884 -0.3110
   59MOL   C10218778   2.148   4.634   6.994 -0.5698  0.4129  0.0643
   59MOL   C10318779   2.245   4.762   6.814 -0.8183  0.0212  0.0174
   59MOL   H10418780   2.306   4.393   6.916 -0.5707 -0.1733 -0.7886
   59MOL   H10518781   2.374   4.303   6.640  0.2916  1.1707  0.0490
   59MOL   H10618782   2.291   4.215   6.772  0.6028  0.2577  2.1526
   59MOL   H10718783   2.457   4.242   6.788  0.4892  1.2976  1.2487
   59MOL   H10818784   2.265   4.561   6.674  1.9240  3.2409  1.5481
   59MOL   H10918785   2.183   4.720   7.052  0.7185  0.1628 -0.3183
   59MOL   H11018786   2.162   4.541   7.049 -0.9568  0.7091  0.6662
   59MOL   H11118787   2.040   4.644   6.988 -0.5866  0.3489  0.2634
   59MOL   H11218788   2.300   4.776   6.722 -0.1454 -1.3507  0.1944
   59MOL   H11318789   2.241   4.848   6.879  1.6393 -1.0714  1.6641
   59MOL   C11418790   2.087   4.447   6.728 -0.5704 -0.7473 -0.1357
   59MOL   C11518791   2.044   4.346   6.831  0.9608  0.5893  0.9189
   59MOL   C11618792   2.079   4.403   6.578  0.4512  0.1977  0.3690
   59MOL   C11718793   2.090   4.526   6.478  0.2328  0.0394  0.3656
   59MOL   C11818794   2.164   4.500   6.349 -0.9836  0.4034  0.1806
   59MOL   C11918795   2.041   4.651   6.504  0.6018  0.2239 -0.2198
   59MOL   H12018796   2.024   4.535   6.739 -2.6310 -2.4193  2.0832
   59MOL   H12118797   1.942   4.309   6.822  0.3967  2.2008  0.4840
   59MOL   H12218798   2.031   4.395   6.927  0.1415 -0.4994  1.3754
   59MOL   H12318799   2.108   4.263   6.859  0.8822 -0.0394 -0.7267
   59MOL   H12418800   2.174   4.352   6.565 -0.1693 -1.4406  2.1498
   59MOL   H12518801   2.187   4.595   6.301 -1.4634  0.3512 -0.1616
   59MOL   H12618802   2.119   4.426   6.283  0.3862  0.6401 -1.0362
   59MOL   H12718803   2.263   4.462   6.375 -0.9605 -0.3143 -0.9187
   59MOL   H12818804   1.979   4.676   6.589  0.8590 -0.5019  0.1839
   59MOL   H12918805   2.055   4.738   6.441 -1.0348  0.4709 -0.2722
   59MOL   C13018806   1.967   4.305   6.532 -0.1112 -0.5061 -0.0798
   59MOL   C13118807   1.826   4.358   6.577 -0.3968  0.1873 -0.0170
   59MOL   C13218808   1.998   4.153   6.566  0.6081  0.2282 -1.2751
   59MOL   C13318809   2.140   4.099   6.541 -0.1379 -0.6725  0.7602
   59MOL   C13418810   2.194   4.003   6.648  0.0260 -0.3407  0.2762
   59MOL   C13518811   2.218   4.137   6.440 -0.7137  0.0890  0.4354
   59MOL   H13618812   1.968   4.323   6.425 -1.0271 -0.4412 -0.0838
   59MOL   H13718813   1.757   4.326   6.500 -1.7616  1.5623  0.5979
   59MOL   H13818814   1.823   4.467   6.575  1.2170  0.3169  2.0314
   59MOL   H13918815   1.792   4.324   6.675  0.2837 -2.1842 -0.5807
   59MOL   H14018816   1.998   4.151   6.675  1.6427 -0.6938 -1.2874
   59MOL   H14118817   2.151   4.023   6.747  0.0388  1.9504 -0.1670
   59MOL   H14218818   2.302   4.015   6.652 -0.2878  2.3537  1.9019
   59MOL   H14318819   2.170   3.902   6.613  0.6424  0.4295 -2.4326
   59MOL   H14418820   2.169   4.203   6.369 -0.4304 -1.7604 -1.5483
   59MOL   H14518821   2.319   4.102   6.426 -1.0534 -1.0495  0.7740
   59MOL   C14618822   1.898   4.046   6.509  0.2986 -0.3584 -0.5072
   59MOL   C14718823   1.871   4.080   6.365  0.9242 -0.3810 -0.2961
   59MOL   C14818824   1.771   4.013   6.598  0.0347  0.0976 -0.4293
   59MOL   C14918825   1.809   3.979   6.742  0.2371 -0.3053  0.3570
   59MOL   C15018826   1.724   4.049   6.855  0.2914 -0.1878  0.0116
   59MOL   C15118827   1.892   3.880   6.778  0.5780 -0.1635 -0.3545
   59MOL   H15218828   1.952   3.953   6.492 -2.9699 -2.8125  1.9756
   59MOL   H15318829   1.808   4.169   6.367  2.7216  0.9060  0.6534
   59MOL   H15418830   1.826   3.998   6.310  2.2326 -0.8980 -0.6188
   59MOL   H15518831   1.956   4.119   6.309 -0.0995  3.1135  0.4470
   59MOL   H15618832   1.726   4.111   6.608  0.9988  0.5910 -0.8081
   59MOL   H15718833   1.640   3.985   6.881 -0.5772  1.8794  2.5075
   59MOL   H15818834   1.685   4.144   6.819 -0.2901 -0.8008 -0.9954
   59MOL   H15918835   1.798   4.061   6.935 -0.1592  1.4848  0.1918
   59MOL   H16018836   1.953   3.818   6.713  0.8277  0.2458 -0.5075
   59MOL   H16118837   1.893   3.858   6.884 -0.9933  1.4824  0.0304
   59MOL   C16218838   1.656   3.922   6.549 -0.0160  0.0564 -0.1872
   59MOL   C16318839   1.713   3.784   6.516 -0.9671  0.2207  0.0095
   59MOL   C16418840   1.561   3.976   6.435 -0.4207 -0.1974 -0.9277
   59MOL   C16518841   1.517   4.122   6.441  0.0169 -0.0000  0.1721
   59MOL   C16618842   1.438   4.160   6.570 -0.6837 -0.2607  0.1385
   59MOL   C16718843   1.538   4.218   6.348  0.5733 -0.2227 -0.0592
   59MOL   H16818844   1.583   3.900   6.626  1.4928 -1.3823  0.8797
   59MOL   H16918845   1.639   3.703   6.514  1.0873 -1.7725  1.3166
   59MOL   H17018846   1.788   3.751   6.588  0.4142  2.9529 -0.1173
   59MOL   H17118847   1.759   3.778   6.418 -0.8116  0.0348  0.0921
   59MOL   H17218848   1.633   3.968   6.353  0.4179 -4.4245  0.1250
   59MOL   H17318849   1.341   4.111   6.563 -0.6055 -0.5890  1.3553
   59MOL   H17418850   1.430   4.267   6.589  0.2633 -0.6360  2.7625
   59MOL   H17518851   1.485   4.119   6.659 -1.8389 -0.4094  0.6859
   59MOL   H17618852   1.592   4.194   6.257  0.3383  1.1503 -0.5860
   59MOL   H17718853   1.493   4.316   6.360  2.3119  0.6877 -0.7503
   59MOL   C17818854   1.438   3.886   6.391  0.6218 -0.7186  0.1397
   59MOL   C17918855   1.358   3.829   6.513 -0.4775  0.4609 -0.2379
   59MOL   C18018856   1.466   3.765   6.292  0.1643 -0.7351 -0.5350
   59MOL   C18118857   1.568   3.797   6.179 -0.8292 -0.2783  0.2261
   59MOL   C18218858   1.535   3.905   6.080 -0.4546  0.1539  0.2195
   59MOL   C18318859   1.683   3.732   6.164  0.1218  0.9757 -0.3536
   59MOL   H18418860   1.382   3.963   6.338 -0.3300  0.2071  2.4272
   59MOL   H18518861   1.408   3.744   6.558 -1.0036 -0.1759 -0.8455
   59MOL   H18618862   1.258   3.796   6.485  0.2056 -0.8168 -1.2006
   59MOL   H18718863   1.340   3.906   6.588 -1.1722  0.0403  0.0274
   59MOL   H18818864   1.513   3.686   6.350  1.3333  0.4286  0.1305
   59MOL   H18918865   1.623   3.909   6.015  1.4131  1.4901  2.7439
   59MOL   H19018866   1.528   3.997   6.137 -1.7365  0.5085 -0.5010
   59MOL   H19118867   1.442   3.890   6.026  0.5317  2.2035 -2.1475
   59MOL   H19218868   1.705   3.662   6.243  3.1468  3.3743  1.0634
   59MOL   H19318869   1.759   3.748   6.089  0.1289  1.6927 -0.1976
   59MOL   C19418870   1.337   3.695   6.233  0.0970  0.8809 -0.1190
   59MOL   C19518871   1.224   3.790   6.206  0.1372  0.0724  0.6323
   59MOL   C19618872   1.288   3.554   6.289  0.6555 -0.1798 -0.1770
   59MOL   C19718873   1.405   3.469   6.329 -0.6610 -0.0904  0.4022
   59MOL   C19818874   1.394   3.411   6.467  0.4630  0.4990  0.5086
   59MOL   C19918875   1.498   3.432   6.243  0.0427  0.5921  0.4175
   59MOL   H20018876   1.375   3.671   6.134  3.0909  1.1453  0.9107
   59MOL   H20118877   1.174   3.828   6.296 -1.0891 -1.3333  0.5454
   59MOL   H20218878   1.139   3.755   6.148  0.3192 -0.1870  0.5249
   59MOL   H20318879   1.265   3.875   6.151 -1.9402 -1.0079 -2.7217
   59MOL   H20418880   1.241   3.574   6.386  0.9626 -0.0686 -0.0531
   59MOL   H20518881   1.478   3.347   6.496 -0.8795 -2.2316 -1.4253
   59MOL   H20618882   1.298   3.360   6.469  0.7075 -0.0199 -0.7990
   59MOL   H20718883   1.368   3.474   6.553 -2.1153 -1.2444  1.0666
   59MOL   H20818884   1.487   3.465   6.141 -0.6935 -1.4492 -0.1811
   59MOL   H20918885   1.581   3.364   6.252  0.7398  0.8985 -3.0694
   59MOL   C21018886   1.184   3.470   6.205 -0.1512 -0.5544 -0.2518
   59MOL   C21118887   1.183   3.494   6.057  0.5786 -1.0044 -0.1353
   59MOL   C21218888   1.032   3.450   6.251 -0.3717 -1.0734  0.0741
   59MOL   C21318889   0.959   3.569   6.294 -0.2221 -0.5023 -0.2032
   59MOL   C21418890   0.884   3.636   6.181  0.5239  0.1172 -0.3250
   59MOL   C21518891   0.942   3.614   6.422 -0.1689  0.5955  0.3890
   59MOL   H21618892   1.241   3.377   6.205 -1.6151 -1.4837 -0.0605
   59MOL   H21718893   1.156   3.403   6.003 -1.5399 -0.5930  0.1955
   59MOL   H21818894   1.283   3.512   6.017  0.4954 -0.3236 -0.0365
   59MOL   H21918895   1.117   3.572   6.021  0.8630  0.0738  1.5851
   59MOL   H22018896   0.981   3.426   6.158 -0.0204 -2.0199  0.1158
   59MOL   H22118897   0.944   3.677   6.099  0.9642  0.6437  0.2482
   59MOL   H22218898   0.842   3.730   6.217 -0.0001 -0.3306  0.2421
   59MOL   H22318899   0.811   3.572   6.132  0.9169 -0.3913 -0.2432
   59MOL   H22418900   0.991   3.561   6.503  1.0366  1.3484  0.1647
   59MOL   H22518901   0.869   3.692   6.435 -0.4307  0.6503 -1.2913
   59MOL   C22618902   1.007   3.326   6.341 -0.9476 -0.0786 -0.4604
   59MOL   C22718903   1.068   3.193   6.289 -0.4424  0.5192 -0.2953
   59MOL   C22818904   0.859   3.308   6.387  1.4138  0.5959  0.1991
   59MOL   C22918905   0.863   3.263   6.534  0.6857 -0.1699  0.3879
   59MOL   C23018906   0.932   3.133   6.571 -0.0208  0.3514 -0.2693
   59MOL   C23118907   0.814   3.347   6.634 -0.1897  0.5002 -0.2729
   59MOL   H23218908   1.055   3.341   6.438 -0.1121  1.4131 -1.0944
   59MOL   H23318909   1.174   3.194   6.267 -0.2689  0.0937  0.5282
   59MOL   H23418910   1.016   3.159   6.199 -0.0042 -0.8241 -0.0403
   59MOL   H23518911   1.044   3.113   6.359  0.3381  0.2982 -0.2803
   59MOL   H23618912   0.804   3.402   6.382 -0.6178 -0.5368  0.5863
   59MOL   H23718913   1.039   3.152   6.563 -0.3604  2.1239 -0.6722
   59MOL   H23818914   0.893   3.058   6.502  2.3534 -0.5158 -0.7335
   59MOL   H23918915   0.918   3.115   6.678 -1.7728 -0.1374 -0.5748
   59MOL   H24018916   0.766   3.442   6.613  0.5398  0.7837 -0.6686
   59MOL   H24118917   0.822   3.316   6.738 -1.1073 -1.0757 -0.6619
   59MOL   C24218918   0.761   3.220   6.295  0.0091 -0.7682 -0.0399
   59MOL   C24318919   0.750   3.266   6.144 -0.2529  0.5813 -0.1815
   59MOL   C24418920   0.613   3.193   6.350  0.0861  0.1776 -0.2795
   59MOL   C24518921   0.573   3.055   6.313  0.5403 -0.9258 -0.9290
   59MOL   C24618922   0.607   2.950   6.413 -0.2988  0.5570  0.1764
   59MOL   C24718923   0.508   3.024   6.202 -0.3556 -0.2842 -0.2166
   59MOL   H24818924   0.804   3.120   6.290  0.6697 -0.6152  2.0852
   59MOL   H24918925   0.836   3.246   6.080  0.1800 -1.5825  1.0070
   59MOL   H25018926   0.714   3.369   6.138 -0.2858  0.7910  2.8746
   59MOL   H25118927   0.670   3.206   6.100 -1.8619  1.2001  1.8322
   59MOL   H25218928   0.625   3.204   6.458 -3.6974 -0.7752  0.3252
   59MOL   H25318929   0.707   2.957   6.456 -0.0335 -1.4817 -0.0577
   59MOL   H25418930   0.598   2.852   6.366 -1.4100 -0.4986  2.4992
   59MOL   H25518931   0.534   2.951   6.495  0.1262  3.0935  0.5556
   59MOL   H25618932   0.487   3.096   6.125  0.9444 -0.6495 -0.9280
   59MOL   H25718933   0.472   2.923   6.187 -3.8084  0.5839  1.8817
   59MOL   C25818934   0.508   3.308   6.320 -0.3250  0.2401  0.2301
   59MOL   C25918935   0.552   3.449   6.364 -1.2241  0.6685  0.0946
   59MOL   C26018936   0.361   3.279   6.368 -0.4319  0.0636 -0.6018
   59MOL   C26118937   0.269   3.334   6.262  0.0659 -0.1484 -0.0355
   59MOL   C26218938   0.228   3.242   6.160 -0.1869  0.1793 -0.9221
   59MOL   C26318939   0.216   3.455   6.264 -0.4099  0.2965  0.6369
   59MOL   H26418940   0.498   3.317   6.212 -1.0328  1.0013  0.3489
   59MOL   H26518941   0.466   3.517   6.359 -2.4211 -0.8387 -0.1651
   59MOL   H26618942   0.632   3.489   6.302  1.2620 -2.4851  1.1319
   59MOL   H26718943   0.589   3.450   6.466  1.3465 -0.9099 -0.7772
   59MOL   H26818944   0.340   3.173   6.382 -1.4301  0.5983  2.3961
   59MOL   H26918945   0.181   3.153   6.203 -0.9871  0.1943 -1.7490
   59MOL   H27018946   0.313   3.217   6.096  1.7889  0.9848  1.3210
   59MOL   H27118947   0.147   3.281   6.099 -1.2781 -0.2633  0.2167
   59MOL   H27218948   0.260   3.522   6.336 -1.4657  2.3691 -0.5945
   59MOL   H27318949   0.139   3.487   6.195  0.7648 -3.9394 -2.8936
   59MOL   C27418950   0.329   3.325   6.513  0.5147  0.3070  0.0483
   59MOL   C27518951   0.425   3.265   6.623  0.1434 -0.0949 -0.3903
   59MOL   C27618952   0.181   3.303   6.562  0.4319 -0.2223 -0.1757
   59MOL   C27718953   0.131   3.425   6.644  0.2125  0.4378 -0.2385
   59MOL   C27818954   0.077   3.541   6.565 -0.4852  0.2998 -0.0206
   59MOL   C27918955   0.140   3.427   6.782  0.7958  0.2883  0.7347
   59MOL   H28018956   0.326   3.434   6.521  0.1694  0.3610 -0.8241
   59MOL   H28118957   0.421   3.156   6.619  0.2206 -0.1369  0.5804
   59MOL   H28218958   0.388   3.302   6.719  0.7752 -0.4880  0.0129
   59MOL   H28318959   0.525   3.307   6.610  0.2317 -0.5358 -1.1218
   59MOL   H28418960   0.116   3.310   6.474  1.1497  0.1052 -0.6883
   59MOL   H28518961   0.158   3.599   6.519  0.6188 -1.9131 -0.9568
   59MOL   H28618962   0.022   3.606   6.632 -0.5232 -0.1965  0.4307
   59MOL   H28718963   0.015   3.518   6.478 -0.3604  0.2427 -0.0944
   59MOL   H28818964   0.179   3.352   6.849  1.6644  1.3020  1.3895
   59MOL   H28918965   0.099   3.516   6.828 -0.9828 -0.0812 -0.0989
   59MOL   C29018966   0.143   3.153   6.620  0.2808  0.5712 -0.4052
   59MOL   C29118967   0.188   3.038   6.536  0.1748  0.5336  0.7613
   59MOL   C29218968   7.884   3.138   6.665  0.1853 -0.2407  0.7031
   59MOL   C29318969   7.892   3.067   6.802  0.5149  0.1218 -0.1130
   59MOL   C29418970   0.051   2.921   6.813 -0.4493 -0.5404 -0.3012
   59MOL   C29518971   7.865   3.134   6.915 -0.6374 -0.4530  0.3804
   59MOL   H29618972   0.208   3.145   6.707 -2.1356  0.7262  1.4759
   59MOL   H29718973   0.296   3.030   6.527 -0.0731 -0.4150 -1.6732
   59MOL   H29818974   0.158   3.048   6.431  1.4428 -1.4790  0.1939
   59MOL   H29918975   0.143   2.943   6.563  0.3805 -0.3770 -2.0019
   59MOL   H30018976   7.853   3.242   6.678 -2.8158 -1.0999  0.7500
   59MOL   H30118977   0.159   2.915   6.806 -0.3567  1.0869 -0.3513
   59MOL   H30218978   0.006   2.856   6.737  1.3403 -2.2642  0.0624
   59MOL   H30318979   0.025   2.879   6.910 -2.0948  1.0940  0.0031
   59MOL   H30418980   7.828   3.235   6.907  3.7600  1.3715  1.5299
   59MOL   H30518981   7.880   3.099   7.016  2.4823  1.5660  0.6756
   59MOL   C30618982   7.789   3.082   6.563 -0.3610  0.1692  0.7341
   59MOL   C30718983   7.785   3.166   6.429 -0.3939  0.3061 -0.9571
   59MOL   C30818984   7.641   3.053   6.623 -0.6392  0.3169  0.5216
   59MOL   C30918985   7.581   2.945   6.542  0.9009 -1.1063  0.0720
   59MOL   C31018986   7.604   2.805   6.585 -0.5465  0.4857 -0.1255
   59MOL   C31118987   7.503   2.976   6.438  0.5311  0.4931  0.4366
   59MOL   H31218988   7.819   2.985   6.524  0.2163  1.2946 -1.6996
   59MOL   H31318989   7.881   3.178   6.379  0.7408 -1.2331  0.7881
   59MOL   H31418990   7.751   3.267   6.455 -0.9225  0.0181 -0.5207
   59MOL   H31518991   7.716   3.116   6.361 -1.2526 -0.9786  0.8308
   59MOL   H31618992   7.643   3.021   6.727 -0.5908 -0.7080  0.2065
   59MOL   H31718993   7.526   2.772   6.653  0.5674  0.0353  0.9428
   59MOL   H31818994   7.696   2.806   6.642  1.4819 -0.8641 -3.2660
   59MOL   H31918995   7.618   2.730   6.508  0.2813  0.4372  0.0719
   59MOL   H32018996   7.496   3.083   6.425  2.1711  0.6941  1.0865
   59MOL   H32118997   7.458   2.904   6.372 -1.8627  1.9801  0.3844
   59MOL   H32218998   7.591   3.150   6.617  1.0752  1.3502  2.5232
   60MOL     C118999   6.475   7.546   6.127 -0.0790 -0.2271  0.1723
   60MOL     C219000   6.567   7.558   6.250  0.6313  0.6557  0.2301
   60MOL     C319001   6.337   7.621   6.140 -0.6020  0.2828 -0.4698
   60MOL     C419002   6.245   7.587   6.262  0.5322  0.7301  0.0445
   60MOL     C519003   6.183   7.686   6.366 -0.3695  0.6162 -0.4864
   60MOL     C619004   6.220   7.453   6.292 -0.2200 -0.1764  0.3595
   60MOL     H719005   6.530   7.588   6.043 -1.1362 -2.3423 -1.6525
   60MOL     H819006   6.607   7.655   6.278 -0.3309  0.9557  0.5613
   60MOL     H919007   6.647   7.490   6.220  0.1116  0.5304 -0.9114
   60MOL    H1019008   6.521   7.513   6.338  1.0449 -0.0310  0.1079
   60MOL    H1119009   6.372   7.712   6.188 -0.6933 -0.0054  0.1462
   60MOL    H1219010   6.256   7.751   6.415  0.1645 -0.6804  0.4691
   60MOL    H1319011   6.126   7.643   6.448  0.4953  0.4094  0.0119
   60MOL    H1419012   6.112   7.750   6.313 -0.8638 -0.1571 -0.7673
   60MOL    H1519013   6.252   7.368   6.234  1.3721  0.1546  0.7349
   60MOL    H1619014   6.171   7.426   6.384 -0.1297 -2.4352 -0.2166
   60MOL    H1719015   6.464   7.442   6.097  1.6766 -0.7911  1.4120
   60MOL    C1819016   6.259   7.635   6.009 -0.2598  0.0253  0.2989
   60MOL    C1919017   6.247   7.494   5.943 -0.0070  0.8250 -0.7461
   60MOL    C2019018   6.315   7.749   5.916  0.7987  0.3348  0.2550
   60MOL    C2119019   6.333   7.876   5.992 -0.7392 -0.1750 -0.2457
   60MOL    C2219020   6.213   0.046   6.053  0.1076  0.1457 -0.4179
   60MOL    C2319021   6.450   0.051   5.998 -0.4444  0.4093 -0.6157
   60MOL    H2419022   6.160   7.660   6.046 -0.5332  1.9371 -1.6377
   60MOL    H2519023   6.219   7.427   6.025  1.2649  0.4833 -0.5729
   60MOL    H2619024   6.345   7.463   5.908  1.0381  2.4287  0.6356
   60MOL    H2719025   6.177   7.484   5.861 -1.3232 -0.8665  0.5328
   60MOL    H2819026   6.418   7.732   5.885  0.9098  1.6552 -0.1238
   60MOL    H2919027   6.246   0.115   6.131 -0.3539  0.6855 -0.6979
   60MOL    H3019028   6.142   7.875   6.105 -1.3450  1.1681 -1.1319
   60MOL    H3119029   6.166   0.111   5.979 -0.0778  0.0603 -0.3730
   60MOL    H3219030   6.537   0.012   5.946 -1.9152  2.4643 -4.7863
   60MOL    H3319031   6.465   0.146   6.046 -1.6933  0.4543 -0.3093
   60MOL    C3419032   6.237   7.767   5.779 -0.2226 -0.9976 -0.6716
   60MOL    C3519033   6.080   7.746   5.786 -0.3964 -0.9354  0.6955
   60MOL    C3619034   6.300   7.701   5.654 -0.0013  0.5210 -0.1033
   60MOL    C3719035   6.448   7.683   5.644  0.1169  0.6519  0.1595
   60MOL    C3819036   6.523   7.812   5.636 -0.7403 -0.2740  0.7165
   60MOL    C3919037   6.499   7.559   5.649 -0.2823  0.7849  0.1037
   60MOL    H4019038   6.248   7.875   5.769 -0.0599 -1.2758 -4.0235
   60MOL    H4119039   6.019   7.815   5.728 -0.3082 -1.6544 -0.2749
   60MOL    H4219040   6.049   7.773   5.887 -2.4607  1.9376 -0.6195
   60MOL    H4319041   6.046   7.645   5.762 -1.4103 -0.6079  0.7479
   60MOL    H4419042   6.271   7.597   5.670 -0.8836  0.3530 -2.5154
   60MOL    H4519043   6.632   7.805   5.633 -0.4736  3.2325 -0.1226
   60MOL    H4619044   6.496   7.882   5.714  0.0466  1.7175 -0.7370
   60MOL    H4719045   6.503   7.851   5.536 -2.6763 -1.7838  0.4816
   60MOL    H4819046   6.443   7.466   5.650  0.6367  0.1963 -1.4365
   60MOL    H4919047   6.606   7.550   5.651 -0.4320 -1.1457  2.0292
   60MOL    C5019048   6.245   7.749   5.518 -0.2319 -0.3974 -0.0892
   60MOL    C5119049   6.219   0.008   5.514 -0.0915  0.6831 -0.7345
   60MOL    C5219050   6.133   7.659   5.451  0.3865 -0.5237 -0.2220
   60MOL    C5319051   6.151   7.509   5.453 -0.1200  0.5927 -0.0903
   60MOL    C5419052   6.262   7.452   5.367  0.4665  0.1175  0.5496
   60MOL    C5519053   6.082   7.432   5.536 -0.8446  0.1110  0.1769
   60MOL    H5619054   6.328   7.749   5.446  0.1954  2.2305  0.3528
   60MOL    H5719055   6.127   0.038   5.565 -0.3912 -0.8708 -0.3502
   60MOL    H5819056   6.211   0.050   5.414  0.2851  0.1961 -0.9695
   60MOL    H5919057   6.296   0.066   5.565 -0.4565  0.0082  0.6019
   60MOL    H6019058   6.051   7.682   5.518  0.1820  0.7784 -0.9054
   60MOL    H6119059   6.350   7.515   5.382  2.8400 -2.4626 -2.0572
   60MOL    H6219060   6.240   7.458   5.261 -0.8681  1.8875  0.8962
   60MOL    H6319061   6.281   7.347   5.389  0.1645  0.1444  0.9578
   60MOL    H6419062   6.005   7.472   5.601 -2.8147 -0.1031 -1.9700
   60MOL    H6519063   6.104   7.327   5.539  0.1612  0.3463  1.4600
   60MOL    C6619064   6.069   7.699   5.308  0.3877  0.2612  0.3645
   60MOL    C6719065   6.181   7.740   5.208 -0.1166  0.2612 -0.0037
   60MOL    C6819066   5.948   7.803   5.319  0.5349 -0.3435 -0.1688
   60MOL    C6919067   5.841   7.774   5.429  0.6040  0.6887 -0.4773
   60MOL    C7019068   5.800   0.007   5.512  0.6238 -0.5645 -0.5409
   60MOL    C7119069   5.777   7.659   5.453 -1.0903  0.3698 -0.2628
   60MOL    H7219070   6.012   7.618   5.264  0.2659  2.1885 -3.2207
   60MOL    H7319071   6.229   7.837   5.215  0.5968 -0.2500  2.5675
   60MOL    H7419072   6.145   7.728   5.105  0.0276 -0.5373  0.0341
   60MOL    H7519073   6.267   7.674   5.222 -1.3665 -1.4367 -0.0970
   60MOL    H7619074   6.006   7.889   5.353  0.2414 -0.2077 -0.0053
   60MOL    H7719075   5.739   7.877   5.600 -2.1154 -0.8630 -2.4699
   60MOL    H7819076   5.728   0.063   5.452  0.4991  0.0931  0.2058
   60MOL    H7919077   5.885   0.066   5.546  0.8317 -0.0319 -1.9500
   60MOL    H8019078   5.810   7.563   5.416 -0.0065  0.8304 -0.5184
   60MOL    H8119079   5.699   7.649   5.527  0.2869 -1.0434  1.0339
   60MOL    C8219080   5.858   7.819   5.184  0.7367 -0.1885  0.1489
   60MOL    C8319081   5.819   7.678   5.121  0.0819 -0.3818 -0.2341
   60MOL    C8419082   5.919   0.026   5.080  0.3002 -0.4575  1.2821
   60MOL    C8519083   5.998   0.151   5.130 -0.0228 -0.1541  0.9836
   60MOL    C8619084   5.916   0.254   5.208  0.1736  0.7373 -0.1330
   60MOL    C8719085   6.128   0.169   5.110  0.0888 -0.9381 -0.0458
   60MOL    H8819086   5.761   7.859   5.214  0.5499  1.7238 -2.8224
   60MOL    H8919087   5.797   7.598   5.192  2.4418 -0.0132  0.9564
   60MOL    H9019088   5.890   7.645   5.046 -0.0297 -1.9439  0.3263
   60MOL    H9119089   5.728   7.686   5.061 -0.2715  1.3747  0.4825
   60MOL    H9219090   5.997   7.863   5.028  0.5756  1.6505 -0.6249
   60MOL    H9319091   5.873   0.203   5.295 -2.0497  1.2533 -0.9021
   60MOL    H9419092   5.829   0.294   5.156 -2.0158 -0.5343  2.4169
   60MOL    H9519093   5.967   0.344   5.242 -1.4534  1.8414 -0.5352
   60MOL    H9619094   6.196   0.094   5.071 -0.6957 -2.7823  2.0393
   60MOL    H9719095   6.174   0.259   5.149  2.1287 -1.7565 -0.4716
   60MOL    C9819096   5.828   0.061   4.955 -0.5626  0.7516 -0.3141
   60MOL    C9919097   5.678   0.088   5.008  0.2437 -0.5302  0.6043
   60MOL   C10019098   5.823   7.850   4.842 -0.1981  0.2257 -0.2648
   60MOL   C10119099   5.958   7.789   4.799 -0.7649 -0.1699  0.0246
   60MOL   C10219100   5.965   7.646   4.758 -0.5714  0.0224 -0.2682
   60MOL   C10319101   6.064   7.864   4.782 -0.7851 -0.1084  0.9667
   60MOL   H10419102   5.868   0.157   4.923  1.5369 -0.2341 -0.7228
   60MOL   H10519103   5.675   0.141   5.103  0.5307 -0.6422  0.6769
   60MOL   H10619104   5.631   7.884   5.026 -0.3216 -0.3635  0.0377
   60MOL   H10719105   5.616   0.142   4.936  0.9644  0.4444  0.7013
   60MOL   H10819106   5.763   7.764   4.873 -0.9113  1.6712  2.5908
   60MOL   H10919107   6.069   7.616   4.748 -0.4541 -0.5379  2.3110
   60MOL   H11019108   5.914   7.631   4.662 -0.7838  0.5553 -0.2395
   60MOL   H11119109   5.926   7.565   4.819 -1.5090 -0.1380 -1.0522
   60MOL   H11219110   6.057   0.077   4.803  2.0754  0.8138 -2.2571
   60MOL   H11319111   6.158   7.823   4.747 -0.9359  0.0161  0.4048
   60MOL   C11419112   5.758   0.007   4.707  0.0902  0.0584  0.3094
   60MOL   C11519113   5.792   0.156   4.685 -0.0522  0.0639 -0.2295
   60MOL   C11619114   5.603   7.867   4.694 -0.8035 -0.0316 -0.4621
   60MOL   C11719115   5.580   7.714   4.693  0.3176 -0.3723  0.1881
   60MOL   C11819116   5.477   7.661   4.794  0.1235 -0.1463 -0.0477
   60MOL   C11919117   5.657   7.624   4.625 -0.1781 -0.1796  0.0346
   60MOL   H12019118   5.810   7.857   4.621 -0.6341  1.5063 -0.8801
   60MOL   H12119119   5.738   0.207   4.765 -2.1566  1.0820 -2.2609
   60MOL   H12219120   5.766   0.192   4.586  0.0079  1.6823  0.3191
   60MOL   H12319121   5.898   0.183   4.692  0.6122 -2.2248 -1.0400
   60MOL   H12419122   5.567   7.890   4.795  0.1959  0.9265 -0.3187
   60MOL   H12519123   5.492   7.697   4.896 -1.3268 -1.2975  0.5721
   60MOL   H12619124   5.483   7.552   4.789 -0.0971 -0.1069 -1.3961
   60MOL   H12719125   5.376   7.687   4.764 -0.0054  0.5046  0.9114
   60MOL   H12819126   5.742   7.656   4.566  2.6991 -3.5089  2.2182
   60MOL   H12919127   5.643   7.518   4.634 -2.4779  0.0151 -0.7820
   60MOL   C13019128   5.516   0.042   4.584  0.4971 -0.0340  0.9106
   60MOL   C13119129   5.588   0.019   4.439  0.2082  0.3317  0.3241
   60MOL   C13219130   5.481   0.188   4.617  0.0727  0.6201  0.4627
   60MOL   C13319131   5.423   0.212   4.760  0.0392  0.5600  0.3045
   60MOL   C13419132   5.458   0.344   4.829 -0.2464 -0.7898  0.3167
   60MOL   C13519133   5.346   0.123   4.822 -0.3945  0.5704 -0.4797
   60MOL   H13619134   5.423   7.878   4.589  0.3405  0.3030  1.7468
   60MOL   H13719135   5.668   0.089   4.414  1.8037 -1.4930  0.1333
   60MOL   H13819136   5.512   0.016   4.361 -0.3728 -0.8545  0.9220
   60MOL   H13919137   5.634   7.813   4.431  1.1548  0.8830 -1.2620
   60MOL   H14019138   5.575   0.242   4.605 -0.2583  0.6112 -2.8018
   60MOL   H14119139   5.560   0.362   4.865 -1.3998  0.2156  3.1884
   60MOL   H14219140   5.401   0.355   4.921 -1.5250  1.1935 -0.6987
   60MOL   H14319141   5.431   0.432   4.771 -0.2604 -0.9022  0.1502
   60MOL   H14419142   5.328   0.028   4.774  1.0966  0.6735 -1.2615
   60MOL   H14519143   5.303   0.141   4.919  1.7732  1.2809  0.3729
   60MOL   C14619144   5.380   0.258   4.511 -0.1341 -0.2806 -0.1362
   60MOL   C14719145   5.248   0.170   4.479 -0.7482 -0.6233 -0.0991
   60MOL   C14819146   5.449   0.311   4.380 -0.6912 -0.2196 -0.0643
   60MOL   C14919147   5.576   0.389   4.410  0.1548  0.2848  0.1392
   60MOL   C15019148   5.571   0.513   4.489 -0.6197 -0.4029  0.2979
   60MOL   C15119149   5.692   0.348   4.361  0.4244 -0.4961  0.0883
   60MOL   H15219150   5.335   0.341   4.565 -1.5873 -0.1359 -1.5465
   60MOL   H15319151   5.265   0.086   4.412  3.3759  1.4509 -1.8239
   60MOL   H15419152   5.167   0.237   4.451 -0.8427 -1.6513 -2.4453
   60MOL   H15519153   5.212   0.126   4.572 -0.1072 -1.5174 -0.2678
   60MOL   H15619154   5.478   0.225   4.320  0.8371 -0.7916  1.4857
   60MOL   H15719155   5.672   0.532   4.526 -1.0642  0.0875  1.2768
   60MOL   H15819156   5.499   0.494   4.568  2.2113  0.5385  3.2124
   60MOL   H15919157   5.539   0.587   4.416  1.6484 -0.5881 -0.9148
   60MOL   H16019158   5.705   0.262   4.297 -2.2107  0.3636 -1.7144
   60MOL   H16119159   5.787   0.396   4.379 -0.0012 -0.5219  2.6111
   60MOL   C16219160   5.369   0.401   4.287  0.3229 -0.0696 -0.1164
   60MOL   C16319161   5.277   0.502   4.365  0.0986  0.6746  0.8212
   60MOL   C16419162   5.287   0.325   4.172 -0.3828 -0.1316  0.2262
   60MOL   C16519163   5.383   0.257   4.065  0.1889 -0.1230  0.4545
   60MOL   C16619164   5.338   0.125   4.021  0.1185  0.0616 -0.1249
   60MOL   C16719165   5.497   0.311   4.023 -0.5331 -0.5380  0.6494
   60MOL   H16819166   5.431   0.469   4.229  1.3330 -1.0140 -0.1623
   60MOL   H16919167   5.316   0.540   4.459  0.8585 -0.1956  0.8655
   60MOL   H17019168   5.183   0.451   4.389  0.4881 -0.1248  0.6639
   60MOL   H17119169   5.256   0.586   4.299  0.8833  0.2250 -0.0127
   60MOL   H17219170   5.232   0.250   4.228  1.8867 -2.6766 -0.8462
   60MOL   H17319171   5.412   0.071   3.961  1.9212  2.2719  0.0438
   60MOL   H17419172   5.248   0.127   3.960 -0.1436 -0.5498  0.2397
   60MOL   H17519173   5.314   0.067   4.110  2.7138  1.2427  1.4007
   60MOL   H17619174   5.527   0.410   4.056 -1.3638 -0.4595  1.1744
   60MOL   H17719175   5.559   0.258   3.953 -1.8371 -0.8625 -0.2769
   60MOL   C17819176   5.185   0.406   4.089 -0.0643  0.4063 -0.0958
   60MOL   C17919177   5.253   0.535   4.025  0.4500 -0.4533  0.2897
   60MOL   C18019178   5.045   0.427   4.146  0.5838  0.3257 -0.6143
   60MOL   C18119179   4.989   0.303   4.228 -0.9877 -0.2632  0.6199
   60MOL   C18219180   4.990   0.171   4.163 -0.0762  0.3595  0.3384
   60MOL   C18319181   4.923   0.322   4.346 -0.3374  0.6744 -0.6581
   60MOL   H18419182   5.162   0.336   4.008 -0.0575  1.8178 -1.3292
   60MOL   H18519183   5.323   0.511   3.945  0.3316  2.1183 -0.6320
   60MOL   H18619184   5.304   0.603   4.093  1.4246 -0.3903 -0.4850
   60MOL   H18719185   5.173   0.595   3.981  0.5798 -1.4349 -1.3431
   60MOL   H18819186   5.061   0.505   4.221 -0.4179  1.9107 -2.0203
   60MOL   H18919187   4.893   0.136   4.126  0.3581 -0.2435 -0.2524
   60MOL   H19019188   5.033   0.099   4.231  2.3070  1.5694  0.1649
   60MOL   H19119189   5.036   0.159   4.065  0.5177  1.1698  0.5102
   60MOL   H19219190   4.920   0.418   4.396  0.4185 -0.8084  2.3231
   60MOL   H19319191   4.875   0.240   4.397  0.9616 -0.4082 -1.1506
   60MOL   C19419192   4.924   0.469   4.053  0.1400 -0.2927 -0.4586
   60MOL   C19519193   4.942   0.415   3.903 -1.0609 -0.4999  0.9572
   60MOL   C19619194   4.875   0.614   4.064 -0.2070 -0.4107 -0.6078
   60MOL   C19719195   4.834   0.662   4.208  0.6738  0.0803 -0.1307
   60MOL   C19819196   4.883   0.800   4.257 -0.0809  0.1740 -0.0424
   60MOL   C19919197   4.750   0.592   4.292 -0.7235 -0.0420 -0.2236
   60MOL   H20019198   4.832   0.415   4.077  0.5379 -0.7605  0.0308
   60MOL   H20119199   4.986   0.316   3.898 -0.9495 -0.3812 -0.7521
   60MOL   H20219200   5.009   0.475   3.841 -1.4275 -0.0537  0.9909
   60MOL   H20319201   4.843   0.411   3.858 -1.5386  0.0405  1.9354
   60MOL   H20419202   4.955   0.682   4.034  0.0181 -0.4342 -0.0697
   60MOL   H20519203   4.841   0.874   4.189  0.1518 -0.3261 -0.7381
   60MOL   H20619204   4.991   0.810   4.272  0.1094 -2.1564  0.3120
   60MOL   H20719205   4.838   0.840   4.348 -0.9838  0.0017 -0.4083
   60MOL   H20819206   4.707   0.499   4.256  0.7131 -0.2441 -1.4188
   60MOL   H20919207   4.718   0.618   4.392  0.9914 -0.2645  0.4002
   60MOL   C21019208   4.754   0.665   3.968  0.1100 -0.2534  0.0561
   60MOL   C21119209   4.639   0.567   3.959  0.5298 -0.1711 -0.2382
   60MOL   C21219210   4.804   0.730   3.828 -0.3358 -0.7481 -0.3583
   60MOL   C21319211   4.904   0.845   3.851  0.1308 -0.0225 -0.6958
   60MOL   C21419212   5.045   0.817   3.804 -0.3293 -0.0115  0.3232
   60MOL   C21519213   4.873   0.965   3.907 -0.0388  0.4824 -0.1076
   60MOL   H21619214   4.718   0.756   4.016  0.0243 -0.4102  0.2927
   60MOL   H21719215   4.548   0.621   3.932  0.3324  0.0946  0.9241
   60MOL   H21819216   4.623   0.499   4.042  0.6311 -0.5573 -0.5330
   60MOL   H21919217   4.656   0.492   3.882  0.0509 -1.3770  0.8225
   60MOL   H22019218   4.869   0.658   3.778  2.4229  0.2101  1.7872
   60MOL   H22119219   5.120   0.883   3.847 -3.3970  3.1617  1.0843
   60MOL   H22219220   5.049   0.842   3.698  0.2367  1.5686  0.6954
   60MOL   H22319221   5.071   0.714   3.828  0.3132  0.2271  0.6568
   60MOL   H22419222   4.774   0.989   3.941 -0.1990 -1.7098  1.0929
   60MOL   H22519223   4.952   1.038   3.918  0.1183  0.1141  1.3512
   60MOL   C22619224   4.699   0.771   3.723 -0.5227 -0.2319 -0.2073
   60MOL   C22719225   4.576   0.840   3.781 -0.3911 -0.0952  0.2066
   60MOL   C22819226   4.667   0.674   3.609 -0.0222  0.0086  0.0082
   60MOL   C22919227   4.790   0.611   3.537  0.2771  0.6604 -0.3710
   60MOL   C23019228   4.801   0.460   3.537 -0.1387 -0.0830 -0.3012
   60MOL   C23119229   4.888   0.683   3.481 -0.6799 -0.0978 -0.4032
   60MOL   H23219230   4.757   0.851   3.677 -1.5462  0.7329  0.1743
   60MOL   H23319231   4.524   0.900   3.706 -0.0464  0.5741  0.4993
   60MOL   H23419232   4.593   0.911   3.862  0.0200 -1.2206  1.1191
   60MOL   H23519233   4.497   0.776   3.819 -0.8979  0.1726 -0.3835
   60MOL   H23619234   4.644   0.584   3.666  1.7108 -0.7804 -0.4919
   60MOL   H23719235   4.787   0.430   3.641  2.3593 -1.8705 -0.4496
   60MOL   H23819236   4.896   0.421   3.501  0.4674  1.2537 -0.2102
   60MOL   H23919237   4.713   0.429   3.481 -1.0050  1.3537  0.2195
   60MOL   H24019238   4.866   0.788   3.475  1.3452  0.2367 -2.5678
   60MOL   H24119239   4.979   0.646   3.436 -0.3769  0.9941 -0.6955
   60MOL   C24219240   4.555   0.706   3.504 -0.1604 -1.1642  0.2260
   60MOL   C24319241   4.578   0.841   3.436  0.2918 -0.2652 -0.4668
   60MOL   C24419242   4.407   0.668   3.533 -0.7131 -0.2577  0.0059
   60MOL   C24519243   4.394   0.535   3.614 -0.2189  0.0845 -0.2733
   60MOL   C24619244   4.409   0.400   3.544 -0.2344 -0.2955 -0.2360
   60MOL   C24719245   4.359   0.538   3.744  0.1942 -0.1380  0.6048
   60MOL   H24819246   4.590   0.640   3.425 -0.8030  0.2398 -1.2367
   60MOL   H24919247   4.582   0.933   3.495 -0.0097 -0.6526  0.1714
   60MOL   H25019248   4.505   0.864   3.359  0.4062  0.8609 -0.2524
   60MOL   H25119249   4.665   0.851   3.371 -0.7590  1.1196 -1.6729
   60MOL   H25219250   4.377   0.739   3.610  3.4213  0.8019  0.7531
   60MOL   H25319251   4.317   0.381   3.489 -1.9416 -1.0613  2.7714
   60MOL   H25419252   4.427   0.318   3.614 -2.8436  0.3162  1.2266
   60MOL   H25519253   4.492   0.409   3.474 -1.0920 -1.3828 -1.4005
   60MOL   H25619254   4.338   0.632   3.793  0.2088 -0.2709  0.8664
   60MOL   H25719255   4.344   0.447   3.800 -0.8863  0.5214  1.3935
   60MOL   C25819256   4.308   0.676   3.414 -0.3835 -0.5881  0.1611
   60MOL   C25919257   4.370   0.622   3.287  0.0413  0.5086  0.1289
   60MOL   C26019258   4.227   0.807   3.380  0.9063  0.5314 -0.8386
   60MOL   C26119259   4.204   0.891   3.509 -1.1678  0.1777  0.3392
   60MOL   C26219260   4.101   0.841   3.612  0.0973 -0.1582 -0.1317
   60MOL   C26319261   4.277   1.005   3.532  0.9696  0.1832  1.0165
   60MOL   H26419262   4.235   0.597   3.437  1.2033 -1.9400  0.6587
   60MOL   H26519263   4.299   0.640   3.207 -0.3895 -1.1488  0.1279
   60MOL   H26619264   4.398   0.518   3.277 -1.2294  0.0475  1.2012
   60MOL   H26719265   4.465   0.671   3.270  0.2622  0.1245  0.2582
   60MOL   H26819266   4.303   0.861   3.324  0.6919  1.3935 -0.3092
   60MOL   H26919267   4.125   0.893   3.705 -0.8175  3.4955 -1.8329
   60MOL   H27019268   4.124   0.735   3.624 -1.2701 -0.5617 -0.9618
   60MOL   H27119269   3.997   0.865   3.589 -0.5464 -1.1368  1.7317
   60MOL   H27219270   4.355   1.031   3.462 -0.8101  0.4405 -0.9088
   60MOL   H27319271   4.264   1.071   3.617 -1.4394 -0.1479  0.9387
   60MOL   C27419272   4.109   0.815   3.283 -0.0817 -0.2368 -0.1311
   60MOL   C27519273   4.076   0.958   3.257  0.3847  0.2886 -0.2748
   60MOL   C27619274   3.972   0.736   3.323 -0.6041 -0.4140  0.0406
   60MOL   C27719275   3.996   0.582   3.333 -0.4622 -0.3972 -0.1359
   60MOL   C27819276   3.924   0.514   3.449 -0.2044  0.6732  0.2894
   60MOL   C27919277   4.072   0.505   3.259  0.0982 -0.4835 -0.2823
   60MOL   H28019278   4.139   0.774   3.187 -1.0927  1.6682 -1.2837
   60MOL   H28119279   4.020   0.983   3.167 -2.0415 -1.5814  0.6634
   60MOL   H28219280   4.169   1.015   3.261  0.0571  0.8688 -0.7727
   60MOL   H28319281   4.015   0.999   3.338 -0.0499 -0.6036 -0.1426
   60MOL   H28419282   3.946   0.785   3.417  2.3089  0.3803  0.4934
   60MOL   H28519283   3.817   0.511   3.428 -0.0119  0.3341 -0.6995
   60MOL   H28619284   3.935   0.570   3.541 -0.1309 -0.8141  1.2064
   60MOL   H28719285   3.972   0.416   3.464  0.1673  0.5306 -1.6043
   60MOL   H28819286   4.132   0.534   3.175 -0.4746 -0.7759 -0.7967
   60MOL   H28919287   4.063   0.399   3.275 -0.4905 -0.2807  0.7973
   60MOL   C29019288   3.850   0.757   3.224 -0.3799 -0.6725 -0.4124
   60MOL   C29119289   3.876   0.740   3.072  0.1140 -0.0011 -1.0859
   60MOL   C29219290   3.754   0.877   3.255 -0.0557  1.0901 -0.7030
   60MOL   C29319291   3.736   0.916   3.404 -0.6103 -0.4149 -0.8163
   60MOL   C29419292   3.692   0.804   3.498  0.4991  0.3420  0.1796
   60MOL   C29519293   3.748   1.042   3.450 -0.2445 -0.5555 -0.5400
   60MOL   H29619294   3.791   0.668   3.246 -0.4653 -0.5491 -0.1352
   60MOL   H29719295   3.968   0.682   3.071  1.3917  1.9163  0.5046
   60MOL   H29819296   3.886   0.832   3.013  1.8204  0.4466 -0.1338
   60MOL   H29919297   3.808   0.675   3.018 -2.4877  0.4522  1.5487
   60MOL   H30019298   3.808   0.964   3.219 -1.1980  1.6038 -1.1877
   60MOL   H30119299   3.742   0.809   3.594 -1.0745 -1.3950  1.1185
   60MOL   H30219300   3.706   0.700   3.470 -1.0211  0.8080 -2.5539
   60MOL   H30319301   3.586   0.814   3.523  0.2679 -1.1815 -0.1520
   60MOL   H30419302   3.776   1.129   3.393  0.2239  0.2432  0.8944
   60MOL   H30519303   3.732   1.056   3.556 -1.1829  0.7110 -0.8267
   60MOL   C30619304   3.624   0.891   3.168  0.2959 -0.1923 -0.5119
   60MOL   C30719305   3.556   1.025   3.195  0.6274 -0.4062 -0.0447
   60MOL   C30819306   3.536   0.771   3.187  0.3687  0.1293  0.2846
   60MOL   C30919307   3.442   0.742   3.068  0.0948  0.5122 -0.7571
   60MOL   C31019308   3.491   0.667   2.951 -0.3066 -0.0223  0.1009
   60MOL   C31119309   3.311   0.764   3.083 -0.6205 -0.1197 -0.0328
   60MOL   H31219310   3.657   0.887   3.064  0.9003 -0.6793 -0.3092
   60MOL   H31319311   3.522   1.038   3.298  2.0979 -0.7287  0.4987
   60MOL   H31419312   3.473   1.043   3.128 -0.4194  0.5551  1.4865
   60MOL   H31519313   3.627   1.107   3.188 -2.5984  2.4072 -0.8377
   60MOL   H31619314   3.587   0.675   3.199 -0.6648 -0.6051 -1.0910
   60MOL   H31719315   3.419   0.667   2.869  0.9452 -2.1287 -1.0413
   60MOL   H31819316   3.507   0.560   2.967 -0.4938 -0.3930 -2.0181
   60MOL   H31919317   3.588   0.709   2.924 -0.6194  2.3078  2.4366
   60MOL   H32019318   3.284   0.824   3.169  0.8801 -1.4380  1.4125
   60MOL   H32119319   3.227   0.738   3.021 -0.3496 -2.0896  0.4155
   60MOL   H32219320   3.476   0.786   3.277 -0.2405  3.1441 -0.5816
   61MOL     C119321   6.111   3.780   0.565 -1.1156  0.0052  0.0009
   61MOL     C219322   6.088   3.784   0.414  0.1010 -0.7487 -0.2975
   61MOL     C319323   6.043   3.667   0.640  0.0190  0.1099  0.0045
   61MOL     C419324   6.005   3.708   0.788  0.2370 -0.3429 -0.7433
   61MOL     C519325   5.882   3.644   0.853  0.5598 -0.1113 -0.0119
   61MOL     C619326   6.084   3.786   0.863 -0.2963  0.2611 -0.2937
   61MOL     H719327   6.217   3.790   0.587 -0.9454 -1.2388 -0.2123
   61MOL     H819328   5.980   3.775   0.405  0.2026 -1.2266 -1.0799
   61MOL     H919329   6.143   3.715   0.351  1.8618  1.7262 -1.5456
   61MOL    H1019330   6.099   3.883   0.371 -1.3106 -0.6690 -0.5101
   61MOL    H1119331   5.947   3.662   0.588  0.7063  0.4849 -1.3144
   61MOL    H1219332   5.858   3.693   0.947 -1.4559  1.0501 -1.1065
   61MOL    H1319333   5.897   3.539   0.878  0.6936  0.4757  2.5051
   61MOL    H1419334   5.791   3.650   0.793 -0.1502  1.6144  1.1845
   61MOL    H1519335   6.173   3.832   0.824  1.7215 -1.0051  2.6836
   61MOL    H1619336   6.060   3.807   0.966  1.7338  0.5432  0.1309
   61MOL    H1719337   6.065   3.871   0.604 -0.9553 -0.3086  0.9418
   61MOL    C1819338   6.117   3.528   0.639  0.4886  0.1974  0.4170
   61MOL    C1919339   6.271   3.551   0.659 -0.7289 -0.9451  0.2334
   61MOL    C2019340   6.076   3.433   0.524  0.0460  0.2241 -0.0892
   61MOL    C2119341   5.924   3.428   0.508  0.3582  0.1687 -0.3951
   61MOL    C2219342   5.837   3.362   0.611  0.3177 -0.0893 -0.1667
   61MOL    C2319343   5.866   3.476   0.396  0.1348 -0.1374 -0.4486
   61MOL    H2419344   6.081   3.483   0.731 -2.9810  1.1468 -0.4225
   61MOL    H2519345   6.311   3.571   0.559 -0.1516  0.4088  0.7240
   61MOL    H2619346   6.317   3.462   0.702 -3.4117 -1.1436  2.8598
   61MOL    H2719347   6.298   3.634   0.723  0.7994 -1.4356  0.2564
   61MOL    H2819348   6.096   3.500   0.440 -2.4456  0.1871 -0.7617
   61MOL    H2919349   5.733   3.376   0.581 -0.1118 -2.6909 -0.0890
   61MOL    H3019350   5.853   3.403   0.710 -0.2907 -2.2555  0.8705
   61MOL    H3119351   5.858   3.255   0.607 -1.0048 -0.4047  1.0651
   61MOL    H3219352   5.931   3.522   0.323  1.0353 -1.3446 -0.4296
   61MOL    H3319353   5.759   3.468   0.394  0.2489 -2.2004 -0.0051
   61MOL    C3419354   6.152   3.298   0.497  0.3999  0.1332  0.1115
   61MOL    C3519355   6.146   3.211   0.625  0.0755  0.7587  0.1894
   61MOL    C3619356   6.299   3.303   0.434 -0.1637 -0.4456 -0.6870
   61MOL    C3719357   6.289   3.390   0.314 -0.5292  0.2434 -0.1740
   61MOL    C3819358   6.401   3.485   0.299  0.9022 -0.0678  0.1277
   61MOL    C3919359   6.194   3.386   0.222  0.8794  0.4069  0.6703
   61MOL    H4019360   6.095   3.239   0.425 -1.0373  1.1735  0.3868
   61MOL    H4119361   6.233   3.223   0.689  0.6478  0.0782 -0.4503
   61MOL    H4219362   6.140   3.104   0.606  3.4401  0.3516  1.0343
   61MOL    H4319363   6.072   3.236   0.702  0.1278  2.6440 -0.3549
   61MOL    H4419364   6.364   3.365   0.495  0.7179 -0.8198 -1.2387
   61MOL    H4519365   6.407   3.559   0.379  1.6756 -0.5477  0.5220
   61MOL    H4619366   6.396   3.533   0.201  0.5876 -0.7800 -0.2074
   61MOL    H4719367   6.493   3.427   0.309  0.4518 -1.1248 -1.7337
   61MOL    H4819368   6.112   3.316   0.229  0.2036  1.3042  1.8942
   61MOL    H4919369   6.196   3.445   0.132 -0.6697 -0.6933 -0.0991
   61MOL    C5019370   6.370   3.168   0.402 -0.3694  0.5236 -0.5508
   61MOL    C5119371   6.284   3.066   0.329  0.5049 -0.0378 -0.3068
   61MOL    C5219372   6.455   3.098   0.517 -0.3422  0.2335 -0.3112
   61MOL    C5319373   6.530   3.193   0.609 -0.1223 -0.2616 -0.0356
   61MOL    C5419374   6.521   3.163   0.758  0.4557 -0.7377 -0.9588
   61MOL    C5519375   6.616   3.286   0.572 -0.1465  0.8262 -0.2912
   61MOL    H5619376   6.439   3.203   0.326  0.9278 -0.1737  0.2932
   61MOL    H5719377   6.227   3.127   0.259  0.3858  0.0476 -0.1362
   61MOL    H5819378   6.210   3.017   0.393  1.2922  0.6328  1.1251
   61MOL    H5919379   6.344   2.992   0.275 -2.0432 -1.5540 -1.1957
   61MOL    H6019380   6.388   3.044   0.583 -0.5081 -1.4229 -1.8056
   61MOL    H6119381   6.418   3.131   0.776  0.4823 -0.3876 -0.1581
   61MOL    H6219382   6.542   3.246   0.825 -1.4591  1.4879 -3.0383
   61MOL    H6319383   6.588   3.082   0.787  0.4451 -0.6159 -0.5948
   61MOL    H6419384   6.626   3.309   0.467 -1.9976 -1.5941 -1.0494
   61MOL    H6519385   6.686   3.335   0.638  0.2067 -0.8147  0.5541
   61MOL    C6619386   6.560   2.984   0.472 -1.1126 -0.1761  0.7931
   61MOL    C6719387   6.632   3.027   0.342  0.3979  0.0672  0.2948
   61MOL    C6819388   6.508   2.839   0.474  0.2534 -0.7000  0.1730
   61MOL    C6919389   6.447   2.804   0.615  0.3308  0.2195 -0.1987
   61MOL    C7019390   6.306   2.753   0.623 -0.6461  0.3458  0.2166
   61MOL    C7119391   6.515   2.827   0.731 -0.1935 -0.1159 -0.8702
   61MOL    H7219392   6.640   2.980   0.546  0.4140  1.4263 -0.7366
   61MOL    H7319393   6.579   3.015   0.247  0.9546  1.0571 -0.1380
   61MOL    H7419394   6.719   2.962   0.335 -0.4100 -0.9041 -1.1064
   61MOL    H7519395   6.666   3.130   0.341  0.1555  0.1661 -2.1944
   61MOL    H7619396   6.428   2.840   0.399  1.1581  1.0117 -0.7982
   61MOL    H7719397   6.237   2.836   0.634 -0.7756  0.0486  1.7291
   61MOL    H7819398   6.293   2.708   0.721 -0.9668  2.9896  1.4425
   61MOL    H7919399   6.276   2.688   0.541 -1.1959 -1.0675  1.5084
   61MOL    H8019400   6.612   2.874   0.734 -0.1681 -0.2658  0.5921
   61MOL    H8119401   6.476   2.809   0.830 -0.1555  1.4435 -0.5511
   61MOL    C8219402   6.590   2.715   0.429  0.3553  0.7767  0.8119
   61MOL    C8319403   6.728   2.710   0.507 -0.3632 -0.2601 -0.5106
   61MOL    C8419404   6.596   2.700   0.267 -0.1671  0.3936  0.6347
   61MOL    C8519405   6.452   2.683   0.209 -0.3778 -0.0215 -0.1767
   61MOL    C8619406   6.428   2.752   0.075  0.2014  0.4579  0.7376
   61MOL    C8719407   6.359   2.599   0.260  0.3699 -0.4167  0.2909
   61MOL    H8819408   6.539   2.625   0.464  0.3368  0.6135  0.3650
   61MOL    H8919409   6.721   2.733   0.613 -0.3779 -1.2758 -0.2861
   61MOL    H9019410   6.800   2.778   0.461 -1.3273  0.9721 -0.1938
   61MOL    H9119411   6.770   2.609   0.515 -0.9709 -0.5945 -1.4393
   61MOL    H9219412   6.627   2.795   0.225 -1.7439  1.5070  1.9601
   61MOL    H9319413   6.339   2.713   0.027 -0.6083  3.1134  0.0128
   61MOL    H9419414   6.520   2.748   0.016  0.0650  1.8220  0.4286
   61MOL    H9519415   6.410   2.859   0.082  0.8781  0.4983  1.9706
   61MOL    H9619416   6.376   2.540   0.349 -2.2027 -2.2739 -0.3888
   61MOL    H9719417   6.264   2.581   0.213  0.3696 -0.2060  0.2115
   61MOL    C9819418   6.698   2.593   0.200  0.8839  0.1176  0.0440
   61MOL    C9919419   6.672   2.460   0.273  0.8771 -0.1697  0.2866
   61MOL   C10019420   6.854   2.635   0.185  0.0989 -0.1027 -0.5858
   61MOL   C10119421   6.890   2.785   0.173  0.0073 -0.2089 -0.2691
   61MOL   C10219422   6.851   2.846   0.040 -1.0202 -0.2330 -0.1030
   61MOL   C10319423   6.958   2.856   0.266 -0.2179 -0.3389  0.2336
   61MOL   H10419424   6.663   2.578   0.098  1.9511  1.9805 -0.6421
   61MOL   H10519425   6.692   2.457   0.380 -2.3125 -1.6070  0.8969
   61MOL   H10619426   6.707   2.376   0.213 -0.9740  0.5752 -1.9214
   61MOL   H10719427   6.570   2.423   0.281  1.4916 -2.1001 -0.5940
   61MOL   H10819428   6.893   2.613   0.284  0.3163  2.2589 -0.1213
   61MOL   H10919429   6.825   2.951   0.053 -1.5324 -0.5251  1.2979
   61MOL   H11019430   6.752   2.816   0.007 -2.3760  3.5989  0.2570
   61MOL   H11119431   6.925   2.839   7.853 -1.1562  0.8347 -0.3224
   61MOL   H11219432   6.987   2.817   0.363 -0.2893  0.4415  0.5680
   61MOL   H11319433   6.974   2.961   0.247  0.6149 -0.6611 -0.9433
   61MOL   C11419434   6.945   2.554   0.084 -0.2791 -0.6410  0.0107
   61MOL   C11519435   6.875   2.425   0.026  0.0647  0.8296  0.2156
   61MOL   C11619436   7.092   2.546   0.137  0.2013  0.1183  0.5673
   61MOL   C11719437   7.180   2.579   0.018  0.4186 -0.5984 -0.5251
   61MOL   C11819438   7.186   2.480   7.791  0.0369  0.1038 -0.1892
   61MOL   C11919439   7.238   2.699   0.000  0.5826 -0.3544  1.0963
   61MOL   H12019440   6.947   2.615   7.886  0.8561  0.7383  0.9526
   61MOL   H12119441   6.891   2.339   0.091 -0.6963 -0.0653 -0.7762
   61MOL   H12219442   6.914   2.393   7.822 -3.2841 -0.1557 -0.8676
   61MOL   H12319443   6.772   2.429   7.883  0.3415  0.8721 -0.5950
   61MOL   H12419444   7.111   2.631   0.203 -0.5174 -0.5410  1.6228
   61MOL   H12519445   7.171   2.375   7.816  1.6238 -0.2870 -0.7821
   61MOL   H12619446   7.282   2.476   7.740  0.4417 -0.6560  0.6134
   61MOL   H12719447   7.106   2.512   7.725 -0.9903 -0.0942  0.9506
   61MOL   H12819448   7.241   2.769   0.082  2.4189 -1.6261  2.1683
   61MOL   H12919449   7.281   2.721   7.796 -0.1174  2.7534  1.4308
   61MOL   C13019450   7.138   2.429   0.232  0.2966  0.1174 -0.3089
   61MOL   C13119451   7.025   2.391   0.342 -0.1876  0.1486  0.0858
   61MOL   C13219452   7.280   2.447   0.307 -1.1907 -0.3428  0.7285
   61MOL   C13319453   7.398   2.459   0.215 -0.1684  0.7285 -0.1427
   61MOL   C13419454   7.502   2.562   0.249  0.4527 -0.3369  0.5888
   61MOL   C13519455   7.412   2.382   0.108  0.4918  0.6988  0.2794
   61MOL   H13619456   7.140   2.341   0.167 -1.8212  1.3954 -2.1466
   61MOL   H13719457   6.942   2.349   0.286 -0.2004 -0.2543  0.4054
   61MOL   H13819458   6.989   2.471   0.406  3.2619  0.0340  2.3489
   61MOL   H13919459   7.044   2.306   0.408 -0.6397 -1.4639 -1.8104
   61MOL   H14019460   7.268   2.548   0.346 -1.4342  0.2025 -0.7191
   61MOL   H14119461   7.538   2.538   0.349 -2.1757 -3.3796  0.8666
   61MOL   H14219462   7.443   2.654   0.248 -0.9986 -1.2658 -0.8495
   61MOL   H14319463   7.584   2.566   0.178 -1.3871  3.0558 -1.5132
   61MOL   H14419464   7.341   2.305   0.079 -0.9610  1.5573  1.4527
   61MOL   H14519465   7.502   2.400   0.052 -0.4173  2.3622 -0.6839
   61MOL   C14619466   7.324   2.350   0.424  0.1988 -0.8519 -0.1844
   61MOL   C14719467   7.294   2.203   0.385  0.1468 -0.0394  0.0202
   61MOL   C14819468   7.276   2.393   0.567 -0.2868 -0.7558 -0.1357
   61MOL   C14919469   7.321   2.536   0.595  0.2173  0.2585  0.2042
   61MOL   C15019470   7.205   2.638   0.606 -0.3761  0.0796  0.7412
   61MOL   C15119471   7.448   2.574   0.608  0.0054 -0.3014 -0.4470
   61MOL   H15219472   7.433   2.341   0.433  0.3369 -0.6015 -1.6024
   61MOL   H15319473   7.384   2.145   0.362 -0.7305 -0.7607 -1.6375
   61MOL   H15419474   7.224   2.181   0.305 -1.0039  0.0051  1.0146
   61MOL   H15519475   7.236   2.140   0.453 -0.6832  1.8425  1.0993
   61MOL   H15619476   7.167   2.404   0.562 -0.2311 -0.1167 -0.0871
   61MOL   H15719477   7.122   2.619   0.538  1.2766 -4.2198 -0.1634
   61MOL   H15819478   7.236   2.741   0.587 -0.2240  0.0627  0.8973
   61MOL   H15919479   7.162   2.636   0.706  1.1026 -0.9263  1.3643
   61MOL   H16019480   7.526   2.500   0.603  1.0061  0.8006 -1.5213
   61MOL   H16119481   7.477   2.674   0.637 -1.0390 -0.6911  2.0873
   61MOL   C16219482   7.306   2.301   0.695 -0.5542  0.1665  0.2685
   61MOL   C16319483   7.373   2.171   0.674 -0.0885 -0.4851 -0.0696
   61MOL   C16419484   7.198   2.311   0.803  0.1058  0.1476 -0.4365
   61MOL   C16519485   7.269   2.335   0.930 -0.3640 -0.0282  0.0994
   61MOL   C16619486   7.302   2.484   0.958 -0.3233  0.2704 -0.3512
   61MOL   C16719487   7.302   2.245   1.018 -0.2251 -0.5692  0.2720
   61MOL   H16819488   7.385   2.363   0.739 -2.5887  0.7963  3.1763
   61MOL   H16919489   7.299   2.102   0.635 -0.4604  0.7728 -1.6667
   61MOL   H17019490   7.413   2.123   0.763  1.7982  2.8117  0.9418
   61MOL   H17119491   7.451   2.187   0.599 -0.1528  1.7036  0.2768
   61MOL   H17219492   7.150   2.409   0.797  1.4024  0.8264  0.1199
   61MOL   H17319493   7.343   2.493   1.059 -0.8558  1.5342 -0.2448
   61MOL   H17419494   7.214   2.549   0.954 -0.1023  0.5300 -0.9743
   61MOL   H17519495   7.364   2.529   0.882  0.5516  2.3910  1.5620
   61MOL   H17619496   7.296   2.138   1.008 -1.6511 -0.6615  1.8032
   61MOL   H17719497   7.342   2.276   1.114  0.1808  1.4813 -0.5378
   61MOL   C17819498   7.087   2.198   0.794  0.4759 -0.4311 -0.3218
   61MOL   C17919499   7.024   2.177   0.655  0.8487 -0.0427 -0.1126
   61MOL   C18019500   6.977   2.214   0.908  0.3607 -0.2273  0.3438
   61MOL   C18119501   6.953   2.074   0.971 -0.8289 -0.2271 -0.1022
   61MOL   C18219502   6.868   1.982   0.897  0.0472  0.2105  0.4813
   61MOL   C18319503   7.012   2.037   1.082 -0.2419  0.2119 -0.0205
   61MOL   H18419504   7.139   2.103   0.808 -3.2695 -2.4543  0.4451
   61MOL   H18519505   6.952   2.095   0.656  1.0852 -0.2587 -0.7245
   61MOL   H18619506   7.097   2.131   0.588 -1.4740 -1.0792 -2.0159
   61MOL   H18719507   6.981   2.272   0.624  2.7443  0.4700 -1.2614
   61MOL   H18819508   7.026   2.271   0.987  1.6740 -0.3613 -0.3470
   61MOL   H18919509   6.784   2.024   0.842  0.7891 -1.2113 -1.8172
   61MOL   H19019510   6.830   1.897   0.954 -0.4064  0.0516 -0.0501
   61MOL   H19119511   6.936   1.927   0.831 -0.0864  1.0854 -0.3893
   61MOL   H19219512   7.080   2.106   1.129 -0.4837 -0.7411  1.8114
   61MOL   H19319513   7.002   1.942   1.134 -0.7391  0.3091  0.0622
   61MOL   C19419514   6.853   2.296   0.875  1.0614 -0.3310 -0.1334
   61MOL   C19519515   6.886   2.438   0.823  0.7710 -0.3339 -0.0879
   61MOL   C19619516   6.735   2.292   0.979 -0.8556  0.3427 -0.6160
   61MOL   C19719517   6.597   2.307   0.914  0.2612 -0.6511 -0.1097
   61MOL   C19819518   6.515   2.180   0.909  0.9200  0.0212 -0.3899
   61MOL   C19919519   6.539   2.432   0.897  0.4407  0.1137 -0.2619
   61MOL   H20019520   6.810   2.256   0.783 -1.9918 -2.0297  1.9386
   61MOL   H20119521   6.954   2.485   0.894  2.1442 -2.2920 -0.0783
   61MOL   H20219522   6.796   2.493   0.796 -0.0777 -0.7649  1.7589
   61MOL   H20319523   6.927   2.434   0.723 -2.0834  1.7632 -1.4023
   61MOL   H20419524   6.732   2.192   1.021 -0.5140  0.8612  0.6886
   61MOL   H20519525   6.586   2.114   0.858  1.4642  0.5328 -0.2968
   61MOL   H20619526   6.431   2.186   0.839 -1.1820 -1.5432  1.9154
   61MOL   H20719527   6.485   2.135   1.004 -0.4509  1.7338  0.0168
   61MOL   H20819528   6.594   2.525   0.906  0.5836  0.2472 -2.2096
   61MOL   H20919529   6.434   2.442   0.873  0.4628 -2.4015 -1.5836
   61MOL   C21019530   6.755   2.389   1.102  0.3706 -0.3151 -0.2905
   61MOL   C21119531   6.895   2.400   1.160  0.2445 -0.1349 -0.2578
   61MOL   C21219532   6.629   2.372   1.201 -0.2010  0.0253  0.2404
   61MOL   C21319533   6.595   2.516   1.259  0.2858  0.1335 -0.8093
   61MOL   C21419534   6.465   2.583   1.207  0.7099 -0.5937  0.2664
   61MOL   C21519535   6.668   2.569   1.359 -0.3776 -0.4005  0.5995
   61MOL   H21619536   6.738   2.488   1.061  0.5114 -0.3012 -0.3141
   61MOL   H21719537   6.959   2.459   1.094  0.2484 -1.8891 -1.8598
   61MOL   H21819538   6.936   2.301   1.178  0.0835 -0.0262  0.7219
   61MOL   H21919539   6.884   2.456   1.253 -0.2716 -2.6917  1.2780
   61MOL   H22019540   6.534   2.333   1.163 -0.5080  0.6721  0.3349
   61MOL   H22119541   6.384   2.511   1.223  0.5026 -0.7203 -1.2765
   61MOL   H22219542   6.481   2.606   1.101  2.2360  1.1758  0.8721
   61MOL   H22319543   6.424   2.667   1.263  0.3550  0.2536 -1.2338
   61MOL   H22419544   6.754   2.524   1.406 -0.3789 -0.5727  0.4375
   61MOL   H22519545   6.642   2.662   1.407  1.3663  1.4574 -1.8943
   61MOL   C22619546   6.645   2.279   1.326 -0.1427  0.4243  0.1982
   61MOL   C22719547   6.712   2.140   1.287 -0.8856 -0.2197  0.2150
   61MOL   C22819548   6.508   2.271   1.419 -0.5649 -0.0519  0.1917
   61MOL   C22919549   6.531   2.282   1.574 -0.3393  0.4792 -0.4026
   61MOL   C23019550   6.433   2.366   1.652  0.4632 -0.4518  0.0479
   61MOL   C23119551   6.628   2.213   1.642 -0.1207 -0.7471 -0.0814
   61MOL   H23219552   6.716   2.319   1.398  1.4618 -1.5215 -0.2614
   61MOL   H23319553   6.730   2.079   1.376 -1.1748 -0.7880 -0.1106
   61MOL   H23419554   6.813   2.144   1.247 -1.3676  1.1642 -0.9296
   61MOL   H23519555   6.650   2.090   1.212  1.1777  0.0345 -1.7267
   61MOL   H23619556   6.447   2.360   1.406  1.5381  1.2470 -0.8195
   61MOL   H23719557   6.328   2.336   1.650  0.5515 -0.8641  1.1831
   61MOL   H23819558   6.427   2.464   1.604 -1.9323  0.2057  1.5776
   61MOL   H23919559   6.478   2.374   1.751 -0.8646 -1.6317  0.7684
   61MOL   H24019560   6.696   2.154   1.583 -0.8222 -0.0832 -1.5767
   61MOL   H24119561   6.637   2.214   1.750 -0.6275 -2.4696  0.0028
   61MOL   C24219562   6.393   2.167   1.373  0.0885  0.7913 -0.3002
   61MOL   C24319563   6.245   2.228   1.383 -0.4905  0.2603  0.1385
   61MOL   C24419564   6.409   2.018   1.426  0.1973 -0.3792  0.8090
   61MOL   C24519565   6.447   1.923   1.304  0.5943 -0.7061 -0.4363
   61MOL   C24619566   6.346   1.915   1.191  0.0847  0.4242 -0.1745
   61MOL   C24719567   6.564   1.857   1.297  0.4640  0.1073  0.1657
   61MOL   H24819568   6.410   2.166   1.266  1.4232 -1.7439 -0.1219
   61MOL   H24919569   6.175   2.174   1.320 -0.7195  1.8699 -1.0169
   61MOL   H25019570   6.240   2.334   1.358  2.5889 -0.0943 -2.2171
   61MOL   H25119571   6.217   2.217   1.488 -0.8265  0.0059  0.0202
   61MOL   H25219572   6.502   2.024   1.483  1.7318 -4.0496 -1.1208
   61MOL   H25319573   6.246   1.895   1.229  0.3783 -1.9972 -0.6067
   61MOL   H25419574   6.356   1.821   1.137  1.2168  0.2696  0.2954
   61MOL   H25519575   6.339   2.007   1.131 -0.7943  0.9346  0.6963
   61MOL   H25619576   6.634   1.880   1.376  0.9606 -0.0827 -0.2238
   61MOL   H25719577   6.599   1.798   1.214  1.1176 -2.2108  2.0412
   61MOL   C25819578   6.298   1.961   1.530 -0.1779 -0.3383 -0.2662
   61MOL   C25919579   6.282   2.035   1.662  0.3732  0.1283  0.4988
   61MOL   C26019580   6.281   1.803   1.544 -0.2406 -0.6823 -0.5235
   61MOL   C26119581   6.133   1.767   1.505  0.0385 -0.2267 -0.2069
   61MOL   C26219582   6.028   1.807   1.607  0.0216 -0.0552  0.2860
   61MOL   C26319583   6.098   1.706   1.390  0.3943 -0.6523 -0.4876
   61MOL   H26419584   6.210   1.985   1.471 -0.5072 -1.8921 -0.4286
   61MOL   H26519585   6.243   1.969   1.740 -0.3287  1.0775  0.9628
   61MOL   H26619586   6.218   2.122   1.670  0.5844  0.5964 -2.6288
   61MOL   H26719587   6.370   2.077   1.712  2.3692 -1.2264 -1.7831
   61MOL   H26819588   6.347   1.752   1.474  1.6657 -0.5450  1.1032
   61MOL   H26919589   6.027   1.768   1.709 -1.2591  0.8217  0.6221
   61MOL   H27019590   5.925   1.779   1.586 -0.5726  2.0662  0.1657
   61MOL   H27119591   6.023   1.916   1.615  0.8495 -0.1669  2.8815
   61MOL   H27219592   6.175   1.685   1.317  1.2456  2.1039 -0.4553
   61MOL   H27319593   5.996   1.680   1.365  0.3106  0.6971 -1.6063
   61MOL   C27419594   6.327   1.728   1.682  0.4154  0.2830 -0.3980
   61MOL   C27519595   6.472   1.766   1.738  0.1137 -0.6226 -0.3328
   61MOL   C27619596   6.311   1.574   1.682  0.1791  0.3724  0.0862
   61MOL   C27719597   6.268   1.534   1.826 -0.8006 -0.5464 -0.4236
   61MOL   C27819598   6.116   1.507   1.831 -0.3966 -0.7635 -0.5679
   61MOL   C27919599   6.350   1.508   1.930  0.5928 -0.5776 -0.5984
   61MOL   H28019600   6.259   1.758   1.761 -0.4293 -2.0754 -0.1858
   61MOL   H28119601   6.558   1.733   1.678  0.8750  0.3324  0.2183
   61MOL   H28219602   6.490   1.721   1.836  0.6139  0.8713  0.2768
   61MOL   H28319603   6.493   1.870   1.764 -1.5594 -0.9422  2.4178
   61MOL   H28419604   6.228   1.556   1.614 -0.5107 -1.1180  1.3056
   61MOL   H28519605   6.093   1.439   1.749 -3.7577 -1.2548  0.7134
   61MOL   H28619606   6.066   1.602   1.814  1.0292 -0.2892 -2.3453
   61MOL   H28719607   6.087   1.473   1.930  0.5659  1.1296  0.3919
   61MOL   H28819608   6.458   1.505   1.928  0.6528  0.9209 -0.7797
   61MOL   H28919609   6.301   1.487   2.024  1.8889  0.7773  0.4233
   61MOL   C29019610   6.426   1.481   1.622  0.4996 -0.2705 -0.5063
   61MOL   C29119611   6.504   1.532   1.494  0.2814 -0.0252  0.3103
   61MOL   C29219612   6.400   1.320   1.632 -0.0774 -0.1022  0.3416
   61MOL   C29319613   6.505   1.249   1.732  0.3478  0.0642 -0.3532
   61MOL   C29419614   6.652   1.257   1.694  0.6120 -0.0802 -0.4413
   61MOL   C29519615   6.461   1.208   1.852  0.4185 -0.1530  0.2214
   61MOL   H29619616   6.500   1.503   1.699 -0.8084  1.4002  0.3186
   61MOL   H29719617   6.554   1.627   1.514 -0.3904  0.5437 -0.6989
   61MOL   H29819618   6.428   1.550   1.418 -1.0316 -1.3595  1.2547
   61MOL   H29919619   6.588   1.466   1.472  0.0278 -0.2656  0.0595
   61MOL   H30019620   6.306   1.314   1.686 -0.5420 -1.7767 -0.6364
   61MOL   H30119621   6.690   1.355   1.723 -0.4610  0.3455 -0.4660
   61MOL   H30219622   6.665   1.241   1.587  2.1426 -0.0434 -0.2781
   61MOL   H30319623   6.718   1.190   1.750  2.0648  2.1746  0.6096
   61MOL   H30419624   6.359   1.203   1.886  0.9334 -1.6577  1.5945
   61MOL   H30519625   6.529   1.179   1.931 -0.1060 -1.4065  0.2123
   61MOL   C30619626   6.384   1.249   1.492  0.3820  0.3135 -0.1907
   61MOL   C30719627   6.278   1.308   1.403  0.1798 -0.4404 -0.4315
   61MOL   C30819628   6.358   1.093   1.500  0.1044 -0.5772  0.1262
   61MOL   C30919629   6.414   1.009   1.388  0.0440 -0.9601 -0.3486
   61MOL   C31019630   6.565   1.021   1.363  0.4739 -0.2457 -0.4983
   61MOL   C31119631   6.341   0.924   1.312  0.0651  0.6847 -0.0424
   61MOL   H31219632   6.484   1.265   1.451  0.7333 -0.8648  0.1752
   61MOL   H31319633   6.308   1.395   1.345 -2.9026  0.2787 -1.0289
   61MOL   H31419634   6.198   1.343   1.468  0.1572 -1.6148  0.1953
   61MOL   H31519635   6.229   1.244   1.329 -2.6708  1.2836 -0.1185
   61MOL   H31619636   6.411   1.053   1.586 -0.3968 -0.7143  0.3726
   61MOL   H31719637   6.592   1.112   1.310  1.5627 -0.9504 -1.1629
   61MOL   H31819638   6.589   0.936   1.300 -2.1523 -0.9852 -0.5652
   61MOL   H31919639   6.618   1.008   1.458  1.6861  1.5216 -0.9195
   61MOL   H32019640   6.234   0.917   1.324  0.0258 -1.0619 -1.1998
   61MOL   H32119641   6.391   0.868   1.234  1.1002  0.3755  0.8274
   61MOL   H32219642   6.258   1.052   1.516 -0.2864  0.7690  1.3644
   62MOL     C119643   1.993   7.291   0.291  0.0114 -0.1591 -0.6640
   62MOL     C219644   1.850   7.232   0.320  0.4675  0.1944  0.6119
   62MOL     C319645   2.062   7.235   0.157 -0.2755 -0.0523  0.0389
   62MOL     C419646   2.071   7.080   0.175  0.0627 -0.7450  0.0936
   62MOL     C519647   2.055   7.003   0.042  0.0713 -0.0609  0.4189
   62MOL     C619648   2.078   7.009   0.290 -0.2854  0.3273 -0.7119
   62MOL     H719649   1.971   7.396   0.272  1.2413  0.5091  1.4795
   62MOL     H819650   1.845   7.125   0.335 -1.1968  0.3673  1.4598
   62MOL     H919651   1.781   7.251   0.238  0.7403  3.3010  1.0343
   62MOL    H1019652   1.801   7.285   0.402 -4.0503 -1.0625 -1.0955
   62MOL    H1119653   1.985   7.256   0.083  0.7354  0.5351 -0.8543
   62MOL    H1219654   2.137   7.012   7.862  0.1713 -1.6816  0.3033
   62MOL    H1319655   1.955   7.007   7.891 -0.5831 -1.9117  1.7009
   62MOL    H1419656   2.055   6.896   0.064  1.2752 -0.4435 -1.2837
   62MOL    H1519657   2.077   7.052   0.389  2.0817  1.5821 -1.1865
   62MOL    H1619658   2.080   6.901   0.285 -1.8606  0.3199 -1.5363
   62MOL    H1719659   2.052   7.279   0.381  0.2042 -1.7895 -0.9856
   62MOL    C1819660   2.203   7.303   0.132 -0.0471 -0.0378  0.6361
   62MOL    C1919661   2.292   7.290   0.258 -0.3373 -1.1049 -0.0564
   62MOL    C2019662   2.185   7.445   0.072  0.1944  0.0935 -0.4288
   62MOL    C2119663   2.074   7.452   7.861  0.7902  0.3779  0.3653
   62MOL    C2219664   1.960   7.548   0.008 -0.0927 -0.1916  0.1792
   62MOL    C2319665   2.077   7.381   7.747  0.0133 -0.0718 -0.4246
   62MOL    H2419666   2.240   7.238   0.052  3.8547  0.4133  1.9667
   62MOL    H2519667   2.303   7.190   0.298 -0.6040 -0.7918  0.8138
   62MOL    H2619668   2.261   7.350   0.344  1.0787 -1.0082  0.3883
   62MOL    H2719669   2.394   7.316   0.231  0.0312 -0.6452  1.7187
   62MOL    H2819670   2.142   7.499   0.157  0.6435  0.5030 -0.4613
   62MOL    H2919671   1.948   7.553   0.116  0.9856 -1.2804  0.3577
   62MOL    H3019672   1.862   7.538   7.853 -0.4877 -1.0867  1.1447
   62MOL    H3119673   1.993   7.647   7.872 -1.4588  0.6867  1.5447
   62MOL    H3219674   2.162   7.322   7.716  0.3690  0.8442 -1.2196
   62MOL    H3319675   1.995   7.376   7.677 -0.0322 -1.4553 -0.2746
   62MOL    C3419676   2.314   7.535   0.032 -0.1201 -0.3637  1.0073
   62MOL    C3519677   2.416   7.449   7.848 -0.6057  0.6583 -0.2939
   62MOL    C3619678   2.382   7.640   0.134  1.1255 -0.5387 -0.0314
   62MOL    C3719679   2.269   7.717   0.211 -0.0207  0.4751  0.6593
   62MOL    C3819680   2.240   7.674   0.351 -0.4751  0.4653  0.6525
   62MOL    C3919681   2.199   7.815   0.149 -1.0287  0.2859 -0.4586
   62MOL    H4019682   2.282   7.597   7.840 -1.0748 -1.7978  0.2916
   62MOL    H4119683   2.367   7.391   7.771 -0.3901  0.6713 -0.4412
   62MOL    H4219684   2.459   7.383   0.031 -1.4574 -1.5464 -1.7194
   62MOL    H4319685   2.507   7.493   7.805  0.1990 -0.7142 -0.0226
   62MOL    H4419686   2.403   7.568   0.213 -1.6448 -0.3769  0.9104
   62MOL    H4519687   2.212   7.570   0.369  0.0987  0.8321  3.8521
   62MOL    H4619688   2.158   7.741   0.377  0.2685  1.5783  0.1538
   62MOL    H4719689   2.321   7.698   0.420  0.4130  0.2802 -0.3152
   62MOL    H4819690   2.216   7.850   0.049 -0.7903 -0.4515 -0.6772
   62MOL    H4919691   2.121   7.873   0.198 -1.6099 -1.8319  1.1861
   62MOL    C5019692   2.502   7.724   0.089  0.0935  0.2611 -0.6311
   62MOL    C5119693   2.491   7.781   7.835  0.4290 -0.4730  0.5238
   62MOL    C5219694   2.642   7.658   0.129 -0.5367  0.7195 -0.1775
   62MOL    C5319695   2.639   7.601   0.277  0.5837 -0.0624 -0.2180
   62MOL    C5419696   2.715   7.475   0.295  0.3457 -0.4210 -0.3155
   62MOL    C5519697   2.584   7.660   0.388 -0.3529  0.1719  0.3110
   62MOL    H5619698   2.505   7.806   0.161 -0.6652  0.1370 -0.4599
   62MOL    H5719699   2.575   7.847   7.815 -1.2837  1.9758  1.1616
   62MOL    H5819700   2.394   7.828   7.816  0.0118 -2.0898 -1.5508
   62MOL    H5919701   2.501   7.704   7.759 -0.1600 -0.6077  0.5803
   62MOL    H6019702   2.648   7.567   0.069 -0.2474 -0.0520  0.9837
   62MOL    H6119703   2.686   7.409   0.214  0.1700  1.0468 -1.4754
   62MOL    H6219704   2.698   7.423   0.390  1.7686 -1.0705 -0.4159
   62MOL    H6319705   2.820   7.503   0.296  0.3933 -0.6048 -0.1994
   62MOL    H6419706   2.525   7.750   0.387 -1.4290 -0.5310  0.3126
   62MOL    H6519707   2.588   7.610   0.484 -3.9144 -0.5754  0.1135
   62MOL    C6619708   2.776   7.740   0.114  0.0160  0.2129 -0.7984
   62MOL    C6719709   2.765   7.890   0.169 -0.7707  0.1872  0.2628
   62MOL    C6819710   2.843   7.735   7.863 -0.3810  0.1188 -0.1320
   62MOL    C6919711   2.860   7.591   7.818 -0.3677 -0.0948  0.4214
   62MOL    C7019712   2.780   7.546   7.698  0.1795  0.2949 -0.6757
   62MOL    C7119713   2.935   7.499   7.884  0.3195 -0.5529 -0.1614
   62MOL    H7219714   2.857   7.703   0.177  1.5288 -0.5996 -3.1463
   62MOL    H7319715   2.866   0.034   0.191  0.3250 -1.9965 -0.9829
   62MOL    H7419716   2.716   7.888   0.266  0.3212  0.3865  0.8278
   62MOL    H7519717   2.707   0.059   0.100  0.4555  1.3855  0.2686
   62MOL    H7619718   2.772   7.780   7.793  1.0547  2.7720  0.0427
   62MOL    H7719719   2.673   7.544   7.717 -0.1910 -1.1077 -2.7168
   62MOL    H7819720   2.802   7.444   7.665 -2.0236 -0.8265  1.1649
   62MOL    H7919721   2.813   7.612   7.618 -0.5698 -0.6537 -1.7794
   62MOL    H8019722   2.996   7.529   0.075 -1.1833  1.9092  0.1046
   62MOL    H8119723   2.941   7.395   7.856  0.0469 -1.0336  1.5152
   62MOL    C8219724   2.986   7.814   7.835  1.1841  0.1553 -0.3954
   62MOL    C8319725   3.092   7.807   0.057 -0.1968  0.4523 -0.1518
   62MOL    C8419726   2.954   0.066   7.780  0.4521  0.2331  0.4981
   62MOL    C8519727   2.858   0.055   7.650 -0.0163  0.0608 -0.1360
   62MOL    C8619728   2.746   0.163   7.643  0.0309  0.2228 -0.7701
   62MOL    C8719729   2.859   7.859   7.546 -0.5486 -0.1738  0.1687
   62MOL    H8819730   3.033   7.761   7.751 -0.0618  1.3846 -1.8899
   62MOL    H8919731   3.077   7.874   0.141 -0.3409 -0.5317  0.6093
   62MOL    H9019732   3.193   7.799   0.014 -1.6626 -0.8190 -3.5725
   62MOL    H9119733   3.083   7.706   0.095 -0.4346  0.1219 -1.0749
   62MOL    H9219734   2.897   0.117   7.858  0.8190  0.3330  0.7056
   62MOL    H9319735   2.656   0.115   7.605 -0.7048 -1.2408  2.6128
   62MOL    H9419736   2.776   0.241   7.574  1.5872  0.1754 -0.1636
   62MOL    H9519737   2.730   0.210   7.740  0.2998  1.8682 -1.5228
   62MOL    H9619738   2.933   7.779   7.543  0.7884  0.9191  2.6330
   62MOL    H9719739   2.785   7.870   7.468  0.8498  4.1022 -0.6528
   62MOL    C9819740   3.070   0.168   7.761  0.0773 -0.4556  0.2296
   62MOL    C9919741   3.168   0.112   7.652  0.4438 -1.4421 -1.1337
   62MOL   C10019742   3.133   0.231   0.003 -0.5698  0.1602 -0.0504
   62MOL   C10119743   3.031   0.286   0.103 -0.3378 -0.2295 -0.1717
   62MOL   C10219744   3.074   0.271   0.250  0.1876 -0.2711  0.6597
   62MOL   C10319745   2.911   0.337   0.067 -0.2755  0.2780 -0.0649
   62MOL   H10419746   3.017   0.251   7.714 -3.1645 -2.5849 -0.0538
   62MOL   H10519747   3.119   0.053   7.574 -2.2222 -0.9371  0.1145
   62MOL   H10619748   3.243   0.049   7.700  0.8886 -0.2685 -0.2775
   62MOL   H10719749   3.212   0.201   7.608 -1.4331 -0.0927 -0.3287
   62MOL   H10819750   3.195   0.154   0.048 -0.8645 -0.0223  0.0439
   62MOL   H10919751   2.979   0.280   0.303  0.8579 -2.0849  2.2357
   62MOL   H11019752   3.149   0.346   0.272  2.0368 -0.7794 -3.4540
   62MOL   H11119753   3.118   0.175   0.278  3.1064  1.5429  2.4892
   62MOL   H11219754   2.877   0.330   7.857 -1.3648  0.8390  0.2433
   62MOL   H11319755   2.835   0.379   0.131 -0.1414  0.0097  0.2746
   62MOL   C11419756   3.243   0.347   7.873  0.0843 -0.1682  0.4360
   62MOL   C11519757   3.193   0.444   7.769 -0.3427 -0.4136 -0.1244
   62MOL   C11619758   3.389   0.291   7.856 -0.5355 -0.5210  1.0973
   62MOL   C11719759   3.425   0.190   0.073  0.7564 -0.8000 -0.7876
   62MOL   C11819760   3.440   0.242   0.210 -0.1972 -0.4747 -0.8105
   62MOL   C11919761   3.468   0.063   0.044  0.0974 -0.5424  0.0702
   62MOL   H12019762   3.244   0.406   0.072 -0.8333  0.6879 -0.0991
   62MOL   H12119763   3.243   0.541   7.776  3.1773 -2.1750  0.2754
   62MOL   H12219764   3.085   0.455   7.772 -0.1963  1.1876 -0.2492
   62MOL   H12319765   3.207   0.396   7.672 -0.8532 -0.0097 -0.3982
   62MOL   H12419766   3.381   0.224   7.771  3.8815  0.2647 -0.0284
   62MOL   H12519767   3.370   0.313   0.254 -0.3570 -0.0432 -1.7462
   62MOL   H12619768   3.540   0.283   0.226 -0.2933 -0.6268  0.2332
   62MOL   H12719769   3.440   0.163   0.285  1.1739 -0.5325 -0.8552
   62MOL   H12819770   3.463   0.034   7.833 -0.0574 -0.2903  0.0067
   62MOL   H12919771   3.493   7.883   0.120 -0.7737  1.9351  2.8599
   62MOL   C13019772   3.510   0.397   7.836 -0.1125 -0.7952 -0.4776
   62MOL   C13119773   3.498   0.522   0.040  0.4058  0.0109 -0.1994
   62MOL   C13219774   3.535   0.445   7.692  0.7785  0.5700 -0.4175
   62MOL   C13319775   3.507   0.341   7.584 -0.0909 -1.1090 -0.4986
   62MOL   C13419776   3.577   0.213   7.588 -0.3435 -0.0167 -0.1484
   62MOL   C13519777   3.421   0.368   7.478  0.2660 -0.6028  0.4449
   62MOL   H13619778   3.604   0.349   7.861  1.0445  1.5891 -0.1968
   62MOL   H13719779   3.588   0.584   0.037  1.1517 -1.0983 -2.5822
   62MOL   H13819780   3.482   0.500   0.145  1.0859 -1.4537 -0.3960
   62MOL   H13919781   3.413   0.580   0.004  1.2115  0.3545 -1.6321
   62MOL   H14019782   3.451   0.515   7.694 -0.8761 -1.2475 -2.7959
   62MOL   H14119783   3.505   0.140   7.550  1.0515 -1.9677  0.8945
   62MOL   H14219784   3.606   0.196   7.691 -0.6608  0.6558  0.0552
   62MOL   H14319785   3.659   0.217   7.516 -0.9111 -0.6072 -0.8347
   62MOL   H14419786   3.371   0.462   7.467 -2.4244 -2.1066 -0.5894
   62MOL   H14519787   3.403   0.291   7.404 -2.1045  0.0828  0.2839
   62MOL   C14619788   3.664   0.522   7.650 -0.4959 -0.3582 -0.1385
   62MOL   C14719789   3.787   0.447   7.706 -0.0795 -0.2792 -0.5176
   62MOL   C14819790   3.667   0.682   7.669  0.0944 -0.8954  0.7754
   62MOL   C14919791   3.533   0.759   7.639  0.3665 -0.4046  0.0144
   62MOL   C15019792   3.504   0.877   7.739  0.0272  0.2356 -0.0864
   62MOL   C15119793   3.447   0.719   7.536  0.0955  0.3606  0.4816
   62MOL   H15219794   3.684   0.506   7.544 -0.9706  0.9560 -0.4360
   62MOL   H15319795   3.875   0.475   7.647  0.3577 -0.6637 -0.0539
   62MOL   H15419796   3.785   0.338   7.706  0.3951 -0.2883 -0.6321
   62MOL   H15519797   3.806   0.469   7.811  0.5405  2.5854 -1.1686
   62MOL   H15619798   3.669   0.698   7.777 -0.4831 -0.6087  0.7451
   62MOL   H15719799   3.577   0.955   7.719  0.4047 -0.0594  0.1262
   62MOL   H15819800   3.518   0.845   7.842 -1.7058  0.4888  0.2442
   62MOL   H15919801   3.402   0.913   7.727  0.6067  2.8555  2.3979
   62MOL   H16019802   3.474   0.635   7.473  0.0867  0.6863  0.0419
   62MOL   H16119803   3.357   0.764   7.497  1.3557  0.3859 -2.5428
   62MOL   C16219804   3.771   0.771   7.602  0.0687 -0.5513 -0.1640
   62MOL   C16319805   3.777   0.737   7.450  0.2202 -0.7675  0.2145
   62MOL   C16419806   3.913   0.776   7.672  0.4036  0.5910  0.7848
   62MOL   C16519807   3.912   0.855   7.809  0.7011 -0.7358  1.4430
   62MOL   C16619808   3.959   0.784   0.044  0.7116 -0.1936 -0.0048
   62MOL   C16719809   3.859   0.976   7.819 -0.4727 -0.7342 -0.8776
   62MOL   H16819810   3.734   0.873   7.592 -1.0782 -1.1430 -2.3807
   62MOL   H16919811   3.837   0.813   7.400 -1.6910  1.2081  0.8517
   62MOL   H17019812   3.681   0.738   7.398 -0.1078 -1.6202  0.7951
   62MOL   H17119813   3.824   0.642   7.425 -0.5999 -0.5851 -2.1052
   62MOL   H17219814   3.917   0.673   7.706 -3.8650  0.0597 -0.0490
   62MOL   H17319815   4.060   0.743   0.048 -0.0520 -2.2963 -1.7204
   62MOL   H17419816   3.908   0.689   0.056 -0.0210  0.3689  1.3985
   62MOL   H17519817   3.941   0.839   0.136 -0.5850 -1.7107  0.6639
   62MOL   H17619818   3.827   1.029   7.730  2.5351 -0.1162 -1.6489
   62MOL   H17719819   3.844   1.020   0.024 -0.5889 -1.2047 -0.6832
   62MOL   C17819820   4.048   0.814   7.601 -0.1243 -0.2241  0.3517
   62MOL   C17919821   4.047   0.960   7.557 -0.2343 -0.2699  0.0754
   62MOL   C18019822   4.111   0.717   7.496  0.1576  0.6782  0.2615
   62MOL   C18119823   4.119   0.572   7.542  0.2631  0.6279 -0.2432
   62MOL   C18219824   4.085   0.467   7.439 -0.1388 -0.0486  0.3931
   62MOL   C18319825   4.155   0.534   7.662  0.0179 -0.3479  0.7772
   62MOL   H18419826   4.122   0.817   7.681  1.0661  0.3279 -0.7614
   62MOL   H18519827   3.979   0.961   7.472 -0.8420 -0.3685  0.5552
   62MOL   H18619828   4.145   0.994   7.526 -1.5342  4.4434  0.7513
   62MOL   H18719829   4.005   1.039   7.620 -0.0459 -1.0330  1.1656
   62MOL   H18819830   4.037   0.724   7.416  1.2771  2.1722 -0.6824
   62MOL   H18919831   4.068   0.370   7.488  1.2812  0.0501  1.1196
   62MOL   H19019832   4.172   0.447   7.376 -0.5717  1.1589 -0.5952
   62MOL   H19119833   3.997   0.498   7.383 -0.4333  0.1166  0.9504
   62MOL   H19219834   4.172   0.613   7.733 -1.4801 -0.9151  1.7695
   62MOL   H19319835   4.177   0.434   7.698  1.0861 -0.4530 -0.1288
   62MOL   C19419836   4.246   0.761   7.431 -0.0034 -0.6001  0.1190
   62MOL   C19519837   4.361   0.807   7.528 -0.6225 -0.4919 -0.1784
   62MOL   C19619838   4.246   0.848   7.292 -0.0788 -0.2218 -1.1380
   62MOL   C19719839   4.125   0.823   7.203 -0.5660  0.3763  0.2639
   62MOL   C19819840   4.054   0.953   7.152  0.3359  0.3530  0.1016
   62MOL   C19919841   4.072   0.703   7.173 -0.1898  0.1930  0.0033
   62MOL   H20019842   4.288   0.665   7.402 -1.1534 -0.9633 -0.3565
   62MOL   H20119843   4.463   0.789   7.494 -1.3063 -2.0494 -1.4796
   62MOL   H20219844   4.348   0.752   7.621 -0.7762 -3.4921 -1.9222
   62MOL   H20319845   4.360   0.912   7.558 -1.1586 -0.8251  0.9875
   62MOL   H20419846   4.226   0.945   7.337 -0.9436 -1.6028  1.5672
   62MOL   H20519847   3.975   0.991   7.217  0.5236 -1.3680  1.3958
   62MOL   H20619848   4.014   0.938   7.052 -0.9315 -0.7842  0.7536
   62MOL   H20719849   4.127   1.033   7.138 -1.9308  2.1459 -1.6999
   62MOL   H20819850   4.123   0.618   7.217  0.6888  0.5987 -0.2118
   62MOL   H20919851   3.987   0.689   7.108 -0.2429  0.6799 -0.0326
   62MOL   C21019852   4.377   0.846   7.211 -0.3030 -0.1669 -0.0684
   62MOL   C21119853   4.432   0.704   7.194 -0.0039  0.4317 -0.1123
   62MOL   C21219854   4.487   0.950   7.242  0.2768 -0.2534 -1.0012
   62MOL   C21319855   4.431   1.100   7.243  0.2905 -0.0146  0.2939
   62MOL   C21419856   4.454   1.185   7.368  0.1078 -0.3790 -0.5412
   62MOL   C21519857   4.361   1.146   7.141 -0.0414 -0.4191  0.1371
   62MOL   H21619858   4.346   0.873   7.110 -0.6748 -1.2325 -0.2426
   62MOL   H21719859   4.360   0.625   7.179  0.9356 -0.2897 -0.9050
   62MOL   H21819860   4.484   0.677   7.286  1.0164 -0.7493 -1.0223
   62MOL   H21919861   4.498   0.697   7.107  0.8502  0.1517  0.5507
   62MOL   H22019862   4.502   0.931   7.348 -1.5497 -0.4390 -0.7536
   62MOL   H22119863   4.421   1.287   7.351  1.7716 -0.1298 -2.5362
   62MOL   H22219864   4.560   1.179   7.390 -0.0239  2.0848  0.9104
   62MOL   H22319865   4.388   1.156   7.450  0.4685  2.3003  0.7354
   62MOL   H22419866   4.346   1.094   7.048 -0.1433 -0.4415  0.1655
   62MOL   H22519867   4.310   1.240   7.153  0.7181  0.5248 -3.5652
   62MOL   C22619868   4.631   0.950   7.172 -0.0609  0.2130 -0.5249
   62MOL   C22719869   4.616   0.960   7.020  0.3951 -0.2798 -0.0935
   62MOL   C22819870   4.730   0.841   7.222  0.1475 -0.2010  0.0316
   62MOL   C22919871   4.761   0.843   7.377  0.3721  0.1101 -0.2998
   62MOL   C23019872   4.760   0.717   7.455 -0.2853  0.2492  0.1568
   62MOL   C23119873   4.793   0.960   7.439  0.7986 -0.2020 -0.9743
   62MOL   H23219874   4.689   1.036   7.204  0.6927 -1.1168  1.7903
   62MOL   H23319875   4.540   0.890   6.984  0.3067 -0.7669  0.9910
   62MOL   H23419876   4.709   0.947   6.965  0.8098  0.9881  0.3005
   62MOL   H23519877   4.586   1.057   6.981 -1.2454 -0.1668  1.3860
   62MOL   H23619878   4.680   0.744   7.220 -0.9353  0.3543 -0.2701
   62MOL   H23719879   4.760   0.721   7.564 -0.0765 -0.6334  0.1962
   62MOL   H23819880   4.835   0.645   7.421 -1.0246  0.1226 -1.2489
   62MOL   H23919881   4.671   0.668   7.416  1.1988 -1.2347 -1.4800
   62MOL   H24019882   4.790   1.057   7.393 -0.7573 -0.5011 -1.5452
   62MOL   H24119883   4.818   0.959   7.544 -1.6380  1.2861 -0.3489
   62MOL   C24219884   4.868   0.830   7.148 -0.5281 -0.3955 -0.4596
   62MOL   C24319885   4.921   0.977   7.118 -0.3263  0.3654 -0.2138
   62MOL   C24419886   4.879   0.733   7.026  0.8376 -0.0111  0.7823
   62MOL   C24519887   4.819   0.597   7.057  1.0575 -0.1391  0.1477
   62MOL   C24619888   4.737   0.528   6.948 -0.3253 -0.0022  0.4873
   62MOL   C24719889   4.845   0.528   7.167 -0.1015 -0.2241  0.2023
   62MOL   H24819890   4.934   0.792   7.226 -1.5831 -0.4194  0.4300
   62MOL   H24919891   4.898   1.045   7.200 -1.4044 -0.9950  0.6344
   62MOL   H25019892   4.886   1.025   7.026 -0.0254 -0.0071 -0.5239
   62MOL   H25119893   5.028   0.973   7.098 -0.0143  0.2103  1.4355
   62MOL   H25219894   4.798   0.761   6.959  0.5096  0.6321  1.4411
   62MOL   H25319895   4.683   0.438   6.977  0.4773 -1.5261 -2.5525
   62MOL   H25419896   4.798   0.496   6.863  1.2919  2.5851  0.6029
   62MOL   H25519897   4.669   0.601   6.902 -0.3983  0.5119  1.3978
   62MOL   H25619898   4.905   0.579   7.240 -0.7787  2.5926 -1.1471
   62MOL   H25719899   4.799   0.433   7.190 -0.3364 -0.2172 -0.2269
   62MOL   C25819900   5.009   0.730   6.943 -0.1037  0.1728  0.8104
   62MOL   C25919901   5.130   0.711   7.032  0.4390 -0.5523  0.2775
   62MOL   C26019902   5.031   0.842   6.833 -0.4400 -0.5325 -0.1670
   62MOL   C26119903   4.913   0.863   6.747  0.2873  0.0949 -0.4269
   62MOL   C26219904   4.861   0.752   6.655 -0.4026 -0.0661  0.1034
   62MOL   C26319905   4.837   0.976   6.749  0.9287 -0.1035 -0.2513
   62MOL   H26419906   4.991   0.639   6.887  1.5429 -0.2938  1.0217
   62MOL   H26519907   5.208   0.767   6.981  0.0420  1.1902  1.5421
   62MOL   H26619908   5.150   0.604   7.034 -0.6610 -0.7401  2.2119
   62MOL   H26719909   5.121   0.750   7.133  3.5714 -0.2772  0.4972
   62MOL   H26819910   5.041   0.934   6.890 -2.0325 -0.5626  0.1741
   62MOL   H26919911   4.866   0.665   6.722  1.3735 -0.2300 -0.2129
   62MOL   H27019912   4.923   0.753   6.566  1.6966  0.0722  1.5409
   62MOL   H27119913   4.759   0.769   6.621 -1.2300 -1.7585  1.6525
   62MOL   H27219914   4.852   1.061   6.814  3.3896  2.1469 -3.5356
   62MOL   H27319915   4.750   1.002   6.690  0.1027 -0.2420  0.9001
   62MOL   C27419916   5.156   0.832   6.734  0.1861  0.5686  0.5974
   62MOL   C27519917   5.173   0.686   6.683 -0.3342 -0.0122  0.3061
   62MOL   C27619918   5.302   0.904   6.768  0.1601  0.0363 -0.4548
   62MOL   C27719919   5.281   1.019   6.871 -0.2890  0.3082 -0.0026
   62MOL   C27819920   5.196   1.136   6.838 -0.0301 -0.2141 -0.9035
   62MOL   C27919921   5.345   1.005   6.990 -0.4529 -0.1852 -0.3538
   62MOL   H28019922   5.132   0.881   6.640 -0.6947  0.4402  0.7602
   62MOL   H28119923   5.079   0.631   6.680  0.3201 -1.1658  0.5596
   62MOL   H28219924   5.239   0.631   6.751 -1.6943 -0.0907  1.5839
   62MOL   H28319925   5.211   0.668   6.582 -5.6271 -2.0655 -1.5158
   62MOL   H28419926   5.360   0.824   6.815 -1.4091 -1.0246 -0.2658
   62MOL   H28519927   5.182   1.198   6.926  3.4194 -0.9540  0.2444
   62MOL   H28619928   5.096   1.113   6.801 -0.7631  0.5031  0.6086
   62MOL   H28719929   5.259   1.195   6.771  0.4252  0.8086  0.4178
   62MOL   H28819930   5.409   0.919   7.006 -0.3754 -0.0377  0.1317
   62MOL   H28919931   5.338   1.076   7.071  1.3894 -0.0981 -0.2443
   62MOL   C29019932   5.378   0.964   6.641 -0.3418  0.0904  0.2016
   62MOL   C29119933   5.290   1.037   6.536 -0.2029 -0.0444 -0.7152
   62MOL   C29219934   5.467   0.860   6.569 -0.9077 -0.3888  0.1313
   62MOL   C29319935   5.569   0.774   6.656 -0.1144  0.3051 -0.0460
   62MOL   C29419936   5.586   0.631   6.621  0.1156 -0.3307 -0.1929
   62MOL   C29519937   5.634   0.829   6.758  0.3768 -0.0028 -0.0970
   62MOL   H29619938   5.449   1.036   6.680  0.1527 -0.7656  0.9045
   62MOL   H29719939   5.207   1.090   6.584 -0.4843 -0.0549 -1.1866
   62MOL   H29819940   5.259   0.966   6.459  1.7589  1.0484 -2.5452
   62MOL   H29919941   5.336   1.125   6.492  1.1440  0.4787  1.6564
   62MOL   H30019942   5.395   0.788   6.529 -0.4868 -1.0872  0.6028
   62MOL   H30119943   5.572   0.603   6.516  0.5713  0.4364 -0.4609
   62MOL   H30219944   5.517   0.578   6.687 -0.7829 -0.2931 -1.0955
   62MOL   H30319945   5.685   0.594   6.651  0.5156 -0.1406 -1.2497
   62MOL   H30419946   5.624   0.931   6.793  0.7467 -0.2665  0.7783
   62MOL   H30519947   5.702   0.772   6.819 -1.0766 -1.2001  0.4423
   62MOL   C30619948   5.547   0.913   6.436 -0.2975 -0.3614 -0.2547
   62MOL   C30719949   5.581   0.804   6.325 -0.7220  0.8404 -0.7147
   62MOL   C30819950   5.668   0.998   6.467  0.4227  0.0212 -0.4832
   62MOL   C30919951   5.720   1.055   6.341 -0.0827 -0.1393 -0.1199
   62MOL   C31019952   5.639   1.170   6.278  0.3521 -0.0530 -0.1310
   62MOL   C31119953   5.833   1.022   6.292  0.0032 -1.0553 -0.4389
   62MOL   H31219954   5.485   0.986   6.385  0.7299  0.5636 -0.2094
   62MOL   H31319955   5.594   0.851   6.227 -1.2630 -0.5589 -1.4643
   62MOL   H31419956   5.499   0.732   6.320 -1.0571  1.0176  1.7099
   62MOL   H31519957   5.665   0.738   6.343 -1.8777 -0.6703 -0.7731
   62MOL   H31619958   5.637   1.081   6.532  0.7374 -0.9073  0.8688
   62MOL   H31719959   5.690   1.224   6.198 -3.1247  0.8001 -1.8846
   62MOL   H31819960   5.606   1.250   6.345 -0.1388  1.9694 -2.7054
   62MOL   H31919961   5.545   1.133   6.237 -0.5410  0.9615  0.9717
   62MOL   H32019962   5.886   0.945   6.345  1.6743  1.3421  1.4705
   62MOL   H32119963   5.881   1.067   6.206 -0.0661  0.5011  0.3243
   62MOL   H32219964   5.748   0.949   6.522  0.1299  1.4106  1.2606
   63MOL     C119965   6.402   5.770   0.690 -0.0588 -0.1294  0.3891
   63MOL     C219966   6.514   5.850   0.760  0.3238  0.4939  0.5253
   63MOL     C319967   6.267   5.745   0.760 -0.6248 -0.1467 -0.6578
   63MOL     C419968   6.299   5.685   0.897 -0.1487  0.4662 -0.1081
   63MOL     C519969   6.390   5.561   0.901 -0.1760  0.0183  0.1651
   63MOL     C619970   6.259   5.749   1.012 -0.3288  0.3208 -0.2321
   63MOL     H719971   6.385   5.831   0.601  1.3040 -0.4209 -0.0876
   63MOL     H819972   6.480   5.943   0.806  2.0640  1.9512 -1.0846
   63MOL     H919973   6.591   5.869   0.686  1.3779 -1.5645  1.0521
   63MOL    H1019974   6.559   5.795   0.843 -0.0387  0.5089  0.7352
   63MOL    H1119975   6.220   5.841   0.783 -0.7250 -0.7537  1.7662
   63MOL    H1219976   6.348   5.474   0.850 -0.7368  1.3600 -1.7475
   63MOL    H1319977   6.400   5.534   1.006  1.3040  2.4456  0.6702
   63MOL    H1419978   6.487   5.573   0.853 -0.4141 -0.9541 -0.5825
   63MOL    H1519979   6.205   5.842   1.001 -0.2942  0.5269  1.2774
   63MOL    H1619980   6.275   5.704   1.109 -0.7951 -1.3343 -0.9080
   63MOL    H1719981   6.434   5.676   0.643 -2.2556 -0.0120 -1.4226
   63MOL    C1819982   6.179   5.655   0.679  0.4775 -0.4316 -0.9928
   63MOL    C1919983   6.164   5.689   0.532 -0.0450  0.6251 -0.1457
   63MOL    C2019984   6.043   5.610   0.747 -0.3028  0.5091  0.8494
   63MOL    C2119985   6.022   5.456   0.735 -0.1712  0.0460  0.2429
   63MOL    C2219986   5.985   5.399   0.603 -0.4300 -0.0949 -0.3584
   63MOL    C2319987   6.049   5.374   0.840  0.1300 -0.5261 -0.2547
   63MOL    H2419988   6.242   5.567   0.689 -0.2906 -0.7800  1.1555
   63MOL    H2519989   6.253   5.665   0.474  0.0790  0.6010  0.0527
   63MOL    H2619990   6.155   5.794   0.507  3.1916  0.1495 -3.8500
   63MOL    H2719991   6.082   5.637   0.485 -0.0505 -0.5044  1.0711
   63MOL    H2819992   6.060   5.620   0.854  0.6876 -1.1196  0.8702
   63MOL    H2919993   6.075   5.372   0.547  1.3015  0.4414  2.0546
   63MOL    H3019994   5.934   5.476   0.546 -0.4472  0.6498  0.6341
   63MOL    H3119995   5.924   5.309   0.609  1.7186 -1.4970  1.3174
   63MOL    H3219996   6.088   5.411   0.933  0.6340 -2.3731  0.2899
   63MOL    H3319997   6.029   5.268   0.830 -1.9698 -0.1485 -0.1157
   63MOL    C3419998   5.907   5.704   0.716  0.6151 -0.6388 -0.1638
   63MOL    C3519999   5.941   5.853   0.765 -0.5342  0.2475  0.5645
   63MOL    C3620000   5.765   5.642   0.759  0.7487  0.6878  0.1535
   63MOL    C3720001   5.662   5.669   0.643  0.5284  0.5918  0.1908
   63MOL    C3820002   5.626   5.815   0.626 -0.0742  0.8851  0.4258
   63MOL    C3920003   5.628   5.575   0.556 -0.0292 -0.5295  0.7059
   63MOL    H4020004   5.906   5.712   0.607 -0.1007  1.1146 -0.0314
   63MOL    H4120005   5.969   5.849   0.870  0.3325 -1.9116  0.2874
   63MOL    H4220006   5.860   5.923   0.744  1.5957  2.1991 -1.4166
   63MOL    H4320007   6.023   5.903   0.713 -0.5764 -2.6399 -2.5106
   63MOL    H4420008   5.777   5.534   0.753 -2.1827  0.3858 -1.0600
   63MOL    H4520009   5.557   5.829   0.542  0.5160  2.2690  0.1523
   63MOL    H4620010   5.714   5.873   0.596  0.0990 -0.0417 -0.8993
   63MOL    H4720011   5.581   5.858   0.716  2.2787  0.3567  1.8997
   63MOL    H4820012   5.664   5.473   0.555  3.9943  0.8066  0.1896
   63MOL    H4920013   5.554   5.599   0.480  0.4786 -2.3184 -0.3895
   63MOL    C5020014   5.698   5.658   0.897  0.3815  0.0636 -0.7229
   63MOL    C5120015   5.807   5.624   1.006  0.3526  0.3872  0.0210
   63MOL    C5220016   5.550   5.605   0.922  0.2023  0.2491  0.2433
   63MOL    C5320017   5.481   5.695   1.025  0.3419  0.3236 -0.7137
   63MOL    C5420018   5.393   5.806   0.974  0.0474  0.1238 -0.1278
   63MOL    C5520019   5.496   5.679   1.161 -1.3844  0.0930 -0.3548
   63MOL    H5620020   5.677   5.764   0.906 -1.6903 -0.2466 -1.5609
   63MOL    H5720021   5.855   5.531   0.974  0.2860  1.5326 -3.6272
   63MOL    H5820022   5.761   5.613   1.105  1.0806  0.6852  0.3906
   63MOL    H5920023   5.871   5.712   1.006  0.9065 -0.0050  0.9504
   63MOL    H6020024   5.483   5.612   0.836  1.0453 -2.1999 -0.6548
   63MOL    H6120025   5.338   5.849   1.058  1.6235  1.3787  0.2993
   63MOL    H6220026   5.321   5.779   0.897 -1.6032  1.2479  0.9735
   63MOL    H6320027   5.460   5.882   0.933  1.1288 -0.5803  0.3261
   63MOL    H6420028   5.549   5.593   1.200 -0.4510  0.4741 -0.7631
   63MOL    H6520029   5.448   5.742   1.234  0.8920  2.2228 -0.6669
   63MOL    C6620030   5.548   5.450   0.959  0.5200  0.2015  0.4934
   63MOL    C6720031   5.642   5.366   0.876  0.1987  1.1376  0.2015
   63MOL    C6820032   5.400   5.383   0.975 -0.3680 -0.2804  0.1014
   63MOL    C6920033   5.396   5.294   1.104 -0.1082 -0.5997  0.0463
   63MOL    C7020034   5.492   5.175   1.111 -0.1510 -0.5629  1.0142
   63MOL    C7120035   5.328   5.343   1.210  1.1903  0.5103 -0.5259
   63MOL    H7220036   5.592   5.439   1.058  0.5592  1.7880  0.6709
   63MOL    H7320037   5.628   5.386   0.769 -0.6771  0.2464  0.1420
   63MOL    H7420038   5.618   5.260   0.890  1.5367  0.5687 -1.5513
   63MOL    H7520039   5.748   5.378   0.898 -0.2410 -0.1150  3.2630
   63MOL    H7620040   5.344   5.472   1.001 -0.1981 -0.9034  2.6617
   63MOL    H7720041   5.481   5.114   1.021  0.2255  1.2996 -0.3331
   63MOL    H7820042   5.471   5.128   1.206  0.8926 -0.4438  1.3166
   63MOL    H7920043   5.592   5.220   1.112 -0.2670 -0.3108  1.1838
   63MOL    H8020044   5.259   5.425   1.202  0.6753  0.3590  2.0451
   63MOL    H8120045   5.340   5.306   1.311  0.9941 -3.2280 -1.7854
   63MOL    C8220046   5.336   5.310   0.847 -0.9188 -0.2799 -0.2616
   63MOL    C8320047   5.330   5.405   0.725  0.6168 -0.3561 -0.1080
   63MOL    C8420048   5.212   5.215   0.871  0.4508 -0.2615 -0.3465
   63MOL    C8520049   5.226   5.078   0.798  0.2701 -0.1838  0.3503
   63MOL    C8620050   5.194   5.087   0.649  0.1832 -0.1364  0.5114
   63MOL    C8720051   5.263   4.968   0.863  0.4117 -0.6452 -0.4244
   63MOL    H8820052   5.412   5.241   0.810 -0.4447  0.1767 -0.1502
   63MOL    H8920053   5.291   5.349   0.640  0.5517  1.2048 -1.1316
   63MOL    H9020054   5.422   5.436   0.677  1.0539 -1.2390  0.1494
   63MOL    H9120055   5.265   5.490   0.745  0.8763  0.1975 -1.5560
   63MOL    H9220056   5.223   5.190   0.977  1.0704 -2.2416 -0.8668
   63MOL    H9320057   5.286   5.119   0.600 -0.8306 -0.1881 -1.4694
   63MOL    H9420058   5.113   5.155   0.623  0.0925 -0.7293 -0.8150
   63MOL    H9520059   5.168   4.989   0.607 -0.7966  0.1782  0.3679
   63MOL    H9620060   5.289   4.957   0.968  1.1376 -1.1367 -0.6511
   63MOL    H9720061   5.266   4.873   0.812 -0.9135 -1.1669  0.4239
   63MOL    C9820062   5.066   5.286   0.863  0.0038  0.1272 -0.6253
   63MOL    C9920063   5.048   5.407   0.958 -0.8629 -0.0252 -0.3799
   63MOL   C10020064   4.943   5.188   0.853  0.0404 -0.0876  0.0616
   63MOL   C10120065   4.859   5.242   0.737  0.1702 -0.0755 -0.4555
   63MOL   C10220066   4.817   5.388   0.724 -0.1346  0.6575  0.1392
   63MOL   C10320067   4.834   5.159   0.626  0.0422 -0.0005  0.3838
   63MOL   H10420068   5.073   5.322   0.760 -0.7149  2.4756  0.1064
   63MOL   H10520069   5.071   5.389   1.063 -2.1507  0.1454 -0.0591
   63MOL   H10620070   4.953   5.461   0.965 -0.1427  1.3224 -0.7537
   63MOL   H10720071   5.112   5.488   0.923 -0.9789  1.2112  2.1940
   63MOL   H10820072   4.984   5.093   0.817  0.1156  0.1659 -0.5134
   63MOL   H10920073   4.809   5.440   0.819 -0.8451 -1.0023  1.0137
   63MOL   H11020074   4.716   5.398   0.686  0.5024 -0.2215 -1.8428
   63MOL   H11120075   4.887   5.425   0.650  0.6578  0.5265  0.8094
   63MOL   H11220076   4.879   5.062   0.617  1.8750  1.0830 -3.1497
   63MOL   H11320077   4.773   5.190   0.543  0.5985 -0.8003 -0.3280
   63MOL   C11420078   4.870   5.154   0.986  0.1441  0.1581 -0.4345
   63MOL   C11520079   4.971   5.108   1.098  0.1747  0.1798  0.4504
   63MOL   C11620080   4.746   5.048   0.963 -0.4153  0.0203 -0.0610
   63MOL   C11720081   4.767   4.930   0.859 -0.1505 -0.2901  0.5243
   63MOL   C11820082   4.890   4.849   0.888  0.2027  0.1878 -0.2907
   63MOL   C11920083   4.690   4.899   0.755  0.3665  0.2330  0.0900
   63MOL   H12020084   4.820   5.245   1.018  2.2439  1.3319 -0.3520
   63MOL   H12120085   5.010   5.010   1.072 -3.8949 -0.9094 -1.8998
   63MOL   H12220086   4.909   5.103   1.188  0.7904  1.1879  0.9426
   63MOL   H12320087   5.051   5.181   1.110 -1.0318  1.6552 -0.2813
   63MOL   H12420088   4.747   4.984   1.051 -1.1273 -2.5308 -1.8376
   63MOL   H12520089   4.894   4.753   0.837 -0.9161 -0.5652  1.0266
   63MOL   H12620090   4.894   4.823   0.993  0.0119  1.7322  0.1143
   63MOL   H12720091   4.984   4.898   0.860  0.4735  0.4137  0.9916
   63MOL   H12820092   4.600   4.955   0.732 -0.4296 -0.6881  0.9013
   63MOL   H12920093   4.706   4.814   0.690 -0.4616  1.6483 -2.0182
   63MOL   C13020094   4.598   5.094   0.982 -0.3132 -0.6001 -0.4381
   63MOL   C13120095   4.561   5.202   0.885  0.1014 -0.3505  0.5658
   63MOL   C13220096   4.553   5.139   1.128 -0.4821 -0.1295  0.6913
   63MOL   C13320097   4.601   5.041   1.243 -0.1301 -0.3371 -0.2430
   63MOL   C13420098   4.639   5.105   1.378  0.5714 -0.0114 -0.4347
   63MOL   C13520099   4.597   4.903   1.223  0.0736  0.6112  0.4639
   63MOL   H13620100   4.529   5.011   0.965 -2.5390  1.0994  0.0165
   63MOL   H13720101   4.600   5.298   0.918 -1.8293  1.6128 -2.5570
   63MOL   H13820102   4.457   5.234   0.878  0.0428 -0.5257  0.6391
   63MOL   H13920103   4.592   5.192   0.781  0.5409  2.0821  0.4447
   63MOL   H14020104   4.617   5.228   1.132 -1.0953  0.3343  0.2525
   63MOL   H14120105   4.741   5.144   1.378  1.0971 -1.2943 -2.6628
   63MOL   H14220106   4.633   5.028   1.454  0.9631  0.0238 -0.3649
   63MOL   H14320107   4.580   5.190   1.414 -0.9046 -0.3376 -1.9963
   63MOL   H14420108   4.563   4.851   1.135  3.6136  0.0179 -0.6293
   63MOL   H14520109   4.634   4.839   1.302  0.2255 -2.2143 -1.8297
   63MOL   C14620110   4.407   5.183   1.156  0.0453  1.0635 -0.0860
   63MOL   C14720111   4.300   5.073   1.102 -0.1546 -0.9290  0.1416
   63MOL   C14820112   4.371   5.335   1.129 -0.5534 -0.5070  0.8121
   63MOL   C14920113   4.476   5.429   1.194  0.2332  0.4019  0.3036
   63MOL   C15020114   4.474   5.455   1.344  0.3713  0.0328  0.1343
   63MOL   C15120115   4.580   5.484   1.130 -0.4747 -0.2861 -0.1319
   63MOL   H15220116   4.395   5.179   1.265  2.3206 -1.1790  0.1236
   63MOL   H15320117   4.218   5.056   1.172  1.6714 -1.0471  2.3138
   63MOL   H15420118   4.344   4.973   1.093  0.4198 -0.5600 -1.2467
   63MOL   H15520119   4.280   5.097   0.998  2.1736  3.7047  0.6471
   63MOL   H15620120   4.371   5.366   1.025  0.2304  1.6348  1.4219
   63MOL   H15720121   4.433   5.382   1.415  2.7566  0.3016  1.8562
   63MOL   H15820122   4.419   5.546   1.365 -2.2057 -1.5976  0.6178
   63MOL   H15920123   4.578   5.467   1.375  0.5665  3.3230 -1.6162
   63MOL   H16020124   4.593   5.471   1.023 -0.6727 -0.3136 -0.1518
   63MOL   H16120125   4.651   5.547   1.182  1.0281 -1.7565 -0.3579
   63MOL   C16220126   4.225   5.391   1.174 -0.2041  0.0739 -0.6145
   63MOL   C16320127   4.158   5.303   1.278  0.3832  0.9016 -0.6157
   63MOL   C16420128   4.126   5.442   1.057 -0.7074  0.0817  0.0186
   63MOL   C16520129   4.102   5.328   0.952  0.1926 -0.3068 -0.1329
   63MOL   C16620130   3.976   5.249   0.976  0.0577 -0.0356  0.0677
   63MOL   C16720131   4.182   5.299   0.846  0.1262 -0.5432  0.5988
   63MOL   H16820132   4.248   5.474   1.241  0.8017  0.2274 -1.1337
   63MOL   H16920133   4.074   5.357   1.321 -1.1315 -0.5291 -1.7356
   63MOL   H17020134   4.215   5.282   1.369 -0.9680  0.4454  0.1353
   63MOL   H17120135   4.108   5.217   1.233 -0.9886  1.0053  0.6765
   63MOL   H17220136   4.030   5.466   1.103 -0.9633 -0.2587 -0.3300
   63MOL   H17320137   3.908   5.269   0.894  1.1862  0.9344 -0.6444
   63MOL   H17420138   3.934   5.284   1.071  4.6974  1.5206  1.7205
   63MOL   H17520139   3.982   5.141   0.985  0.4322 -0.0439 -0.2578
   63MOL   H17620140   4.280   5.341   0.829 -0.1433 -0.4129 -0.7538
   63MOL   H17720141   4.154   5.224   0.773 -2.5223  0.8343  0.1367
   63MOL   C17820142   4.171   5.587   1.001  0.3454  0.0993  0.2960
   63MOL   C17920143   4.206   5.693   1.102 -0.4785 -0.4864  0.0790
   63MOL   C18020144   4.062   5.628   0.891 -0.2186  0.0618 -0.4810
   63MOL   C18120145   4.134   5.677   0.764  0.4129 -0.2865 -0.1495
   63MOL   C18220146   4.193   5.822   0.768 -0.4293  0.2120 -0.6279
   63MOL   C18320147   4.151   5.597   0.657  0.8295 -0.1428  0.0626
   63MOL   H18420148   4.260   5.571   0.940  0.3928  2.1986 -0.2390
   63MOL   H18520149   4.238   5.787   1.057  0.5354 -0.6611  0.4205
   63MOL   H18620150   4.288   5.652   1.160  0.4180 -0.0834 -0.9022
   63MOL   H18720151   4.124   5.716   1.170 -0.7546  0.4672 -0.5722
   63MOL   H18820152   4.011   5.537   0.858 -0.7676 -0.2589  1.2160
   63MOL   H18920153   4.276   5.826   0.839 -0.1112  0.5226 -1.0158
   63MOL   H19020154   4.118   5.901   0.763  0.6779  1.4240  1.4664
   63MOL   H19120155   4.252   5.840   0.678 -1.7931 -0.7374 -1.7215
   63MOL   H19220156   4.115   5.496   0.649 -0.6564  0.2453  1.4064
   63MOL   H19320157   4.189   5.652   0.572 -0.2102  1.5302  0.6342
   63MOL   C19420158   3.946   5.721   0.932 -0.2827 -0.3436 -0.9269
   63MOL   C19520159   3.860   5.663   1.049  0.3992 -0.2691 -0.0231
   63MOL   C19620160   3.844   5.783   0.829  0.1301 -0.1930 -0.1609
   63MOL   C19720161   3.797   5.924   0.873 -0.1947  0.2185  0.1851
   63MOL   C19820162   3.893   6.030   0.837  0.2383 -0.0462  0.1403
   63MOL   C19920163   3.676   5.949   0.933 -0.2255 -0.3292 -0.0677
   63MOL   H20020164   4.004   5.806   0.967  1.0758 -1.8009  0.4167
   63MOL   H20120165   3.777   5.724   1.086  0.8238  1.4071 -1.7847
   63MOL   H20220166   3.921   5.648   1.138  0.9560  2.2416  0.0645
   63MOL   H20320167   3.810   5.569   1.025  0.0406 -0.0548 -0.1332
   63MOL   H20420168   3.910   5.794   0.743  0.2875  1.5893  0.1644
   63MOL   H20520169   3.839   6.125   0.833  1.5592  0.7433  0.5805
   63MOL   H20620170   3.933   6.003   0.739 -0.0126  1.0695 -0.2808
   63MOL   H20720171   3.979   6.047   0.902 -0.5725 -0.3801  1.3053
   63MOL   H20820172   3.610   5.870   0.966  0.3041 -0.7943 -0.0909
   63MOL   H20920173   3.628   6.042   0.957  1.2694  0.2421  0.7629
   63MOL   C21020174   3.729   5.696   0.767 -0.0490  0.3613  0.0318
   63MOL   C21120175   3.775   5.558   0.741  0.9793 -0.1326  0.3075
   63MOL   C21220176   3.643   5.759   0.651 -0.4480 -0.0600 -0.1257
   63MOL   C21320177   3.485   5.734   0.666 -0.3134  0.7452 -0.0375
   63MOL   C21420178   3.437   5.592   0.627 -0.1094 -0.1798 -0.3085
   63MOL   C21520179   3.405   5.831   0.718  0.2228  0.0659 -0.5946
   63MOL   H21620180   3.652   5.689   0.844 -1.1772  1.9282 -0.9258
   63MOL   H21720181   3.699   5.493   0.696  0.5553 -0.0273  0.8622
   63MOL   H21820182   3.803   5.509   0.834  0.1661 -0.3075  0.4678
   63MOL   H21920183   3.863   5.548   0.679  0.4068  0.9587 -0.7108
   63MOL   H22020184   3.646   5.863   0.681 -0.6345  1.0136 -3.6007
   63MOL   H22120185   3.329   5.576   0.632 -0.3016  0.0323 -3.0563
   63MOL   H22220186   3.473   5.518   0.699 -1.2199  1.0565  1.5368
   63MOL   H22320187   3.470   5.552   0.531 -2.4324 -2.2855 -0.2902
   63MOL   H22420188   3.433   5.931   0.748 -3.1517  1.3243 -1.4436
   63MOL   H22520189   3.301   5.804   0.727  0.8612 -1.7691  2.3533
   63MOL   C22620190   3.696   5.756   0.506 -0.8741 -0.1309 -0.0733
   63MOL   C22720191   3.841   5.796   0.496 -0.2613 -0.4403  0.2917
   63MOL   C22820192   3.606   5.816   0.386  0.5965 -0.3124 -0.2230
   63MOL   C22920193   3.632   5.738   0.258  0.2981 -0.3504  0.3669
   63MOL   C23020194   3.575   5.597   0.246  0.4927 -0.6760  0.0224
   63MOL   C23120195   3.722   5.784   0.165  0.8516 -0.2513 -0.0959
   63MOL   H23220196   3.688   5.648   0.495  2.0050 -0.8238  3.7369
   63MOL   H23320197   3.900   5.712   0.533 -1.2113 -1.3130 -0.1519
   63MOL   H23420198   3.867   5.893   0.539  0.8570 -0.8347  0.5333
   63MOL   H23520199   3.884   5.804   0.396  1.9247  0.4970  1.2687
   63MOL   H23620200   3.502   5.791   0.406  0.1599  1.6182  0.0210
   63MOL   H23720201   3.609   5.531   0.326 -0.2347 -0.1665  0.7602
   63MOL   H23820202   3.602   5.560   0.147 -1.2294  0.0122 -0.7290
   63MOL   H23920203   3.467   5.609   0.252  0.4279 -0.7227 -0.9471
   63MOL   H24020204   3.757   5.886   0.173  0.0868  0.0653 -0.7216
   63MOL   H24120205   3.759   5.721   0.085 -0.0238  0.9195 -1.4554
   63MOL   C24220206   3.600   5.971   0.369  0.0168 -0.0293 -0.2108
   63MOL   C24320207   3.593   6.041   0.502 -0.2509 -0.0872  0.2828
   63MOL   C24420208   3.492   6.019   0.260 -0.2412 -0.4238 -0.1805
   63MOL   C24520209   3.523   6.157   0.205  0.4539  0.2212  0.2091
   63MOL   C24620210   3.461   6.271   0.294 -0.3857 -0.2805  0.3708
   63MOL   C24720211   3.589   6.184   0.090 -0.3029 -0.4443  0.0907
   63MOL   H24820212   3.694   6.004   0.324 -0.0473  0.2604 -0.1323
   63MOL   H24920213   3.688   6.043   0.554 -0.7704 -1.5666  1.3167
   63MOL   H25020214   3.533   5.983   0.572 -0.3621 -2.2633 -1.5516
   63MOL   H25120215   3.554   6.143   0.504 -0.8801 -0.2966 -0.7284
   63MOL   H25220216   3.527   5.964   0.172  3.1908  0.0722  0.8025
   63MOL   H25320217   3.519   6.300   0.382 -1.0021  1.9217  0.0871
   63MOL   H25420218   3.369   6.256   0.351 -0.3963  1.2575  0.7771
   63MOL   H25520219   3.449   6.358   0.230 -0.5540  0.2643  1.1302
   63MOL   H25620220   3.629   6.103   0.030 -0.3243 -1.8832  1.9810
   63MOL   H25720221   3.595   6.284   0.050  1.0226 -0.0840  1.1351
   63MOL   C25820222   3.336   5.988   0.273 -0.1100 -0.1296 -0.0414
   63MOL   C25920223   3.296   5.973   0.425  0.3397  0.5747 -0.6997
   63MOL   C26020224   3.274   5.889   0.169  0.2232  0.5376 -0.3223
   63MOL   C26120225   3.304   5.920   0.025 -0.7287  0.3661 -0.1572
   63MOL   C26220226   3.269   6.060   7.864  0.7830 -0.4755  0.1534
   63MOL   C26320227   3.363   5.829   7.838  0.0058  0.1654 -0.4531
   63MOL   H26420228   3.287   6.081   0.243  0.7776  0.1536 -0.6183
   63MOL   H26520229   3.331   6.049   0.495 -1.5268 -0.8056  1.8040
   63MOL   H26620230   3.332   5.881   0.469 -1.8729  0.3980  0.8139
   63MOL   H26720231   3.189   5.992   0.431  0.4936  0.8811  1.6263
   63MOL   H26820232   3.331   5.800   0.196 -1.2780  0.4357  2.7633
   63MOL   H26920233   3.162   6.060   7.843  0.7920 -1.4112  0.1003
   63MOL   H27020234   3.301   6.079   7.762 -0.7379 -0.8686 -0.4129
   63MOL   H27120235   3.298   6.147   0.031  2.2525 -0.2333 -0.8975
   63MOL   H27220236   3.384   5.728   7.871 -0.8026  0.2805  0.4464
   63MOL   H27320237   3.390   5.858   7.738  0.6870  0.2449 -0.2475
   63MOL   C27420238   3.123   5.855   0.181  0.1272  0.1245  1.0617
   63MOL   C27520239   3.041   5.983   0.195  0.5816  0.1072 -0.0729
   63MOL   C27620240   3.088   5.741   0.277  1.3154 -0.1874 -0.4949
   63MOL   C27720241   3.176   5.617   0.250 -0.2011 -0.1927 -0.1280
   63MOL   C27820242   3.208   5.534   0.365 -0.0005 -0.0168  0.0927
   63MOL   C27920243   3.212   5.576   0.127  0.9060  0.6435  0.0680
   63MOL   H28020244   3.100   5.800   0.090  0.9976 -0.4869  1.1996
   63MOL   H28120245   2.944   5.981   0.146 -0.0095  0.6089  1.0462
   63MOL   H28220246   3.079   6.076   0.154 -0.0327  0.4950  0.2356
   63MOL   H28320247   3.031   5.996   0.303 -0.9938 -2.9999  0.2227
   63MOL   H28420248   3.125   5.779   0.372  1.0518  0.5940 -0.6968
   63MOL   H28520249   3.262   5.595   0.437  0.0004  0.0893  0.0024
   63MOL   H28620250   3.268   5.446   0.342  0.6169  0.3999  0.0981
   63MOL   H28720251   3.113   5.503   0.409 -0.6397  1.4428 -0.1978
   63MOL   H28820252   3.172   5.620   0.037  0.6681 -0.1564 -0.2277
   63MOL   H28920253   3.275   5.489   0.115  2.3708  1.6415  0.3794
   63MOL   C29020254   2.939   5.691   0.274 -0.1871 -0.0197 -0.4701
   63MOL   C29120255   2.885   5.660   0.134 -0.4147 -0.2476  0.0615
   63MOL   C29220256   2.847   5.771   0.368 -0.1510  0.4900  0.0316
   63MOL   C29320257   2.897   5.768   0.511 -0.5603  0.3376 -1.1235
   63MOL   C29420258   2.910   5.904   0.578  0.0993 -0.1581 -0.2501
   63MOL   C29520259   2.956   5.663   0.579  0.6592  0.2425  0.4208
   63MOL   H29620260   2.932   5.592   0.318  1.2772  0.2520  0.3982
   63MOL   H29720261   2.785   5.617   0.130 -0.9007  0.9306 -0.7100
   63MOL   H29820262   2.950   5.597   0.073  0.0757  0.7903 -0.5197
   63MOL   H29920263   2.879   5.752   0.075 -2.3030 -0.3413  0.0756
   63MOL   H30020264   2.850   5.872   0.327 -0.0537  1.0176  1.3175
   63MOL   H30120265   3.007   5.947   0.552  0.9053 -0.3044  2.3729
   63MOL   H30220266   2.895   5.905   0.686 -0.6036  2.5114 -0.3186
   63MOL   H30320267   2.842   5.967   0.521  0.0932  0.2717  0.2223
   63MOL   H30420268   2.960   5.562   0.541 -0.4893  1.4076 -2.9725
   63MOL   H30520269   2.988   5.687   0.680 -1.8914 -0.1507  1.3402
   63MOL   C30620270   2.693   5.726   0.365 -0.1702  0.5613 -0.2846
   63MOL   C30720271   2.665   5.573   0.385  0.0203  0.3825  0.0988
   63MOL   C30820272   2.606   5.787   0.253  0.2749 -0.5344 -0.0264
   63MOL   C30920273   2.470   5.717   0.227  0.2410 -1.0650  0.7479
   63MOL   C31020274   2.364   5.782   0.312  0.3125 -0.4406 -0.0571
   63MOL   C31120275   2.454   5.614   0.146  0.7522  0.1282 -0.3534
   63MOL   H31220276   2.652   5.764   0.459  0.9047 -1.5114  1.0507
   63MOL   H31320277   2.723   5.522   0.463  0.0753 -1.6366 -1.2144
   63MOL   H31420278   2.684   5.524   0.289 -1.1665 -1.9642  1.0119
   63MOL   H31520279   2.563   5.549   0.412 -1.1257 -0.0369 -4.2500
   63MOL   H31620280   2.600   5.893   0.278 -1.3111 -0.8267  0.8821
   63MOL   H31720281   2.356   5.890   0.308 -2.2181 -0.5528  0.8789
   63MOL   H31820282   2.373   5.748   0.415 -0.7721 -1.5896 -0.3296
   63MOL   H31920283   2.266   5.744   0.282 -0.1023  0.1434  0.5402
   63MOL   H32020284   2.533   5.569   0.088 -0.5121 -1.2322 -1.0491
   63MOL   H32120285   2.362   5.559   0.132 -0.6521  1.7746  2.1024
   63MOL   H32220286   2.659   5.774   0.158  1.7190  0.4961  0.6248
   64MOL     C120287   4.774   2.294   7.748 -0.5975  0.0165 -0.0242
   64MOL     C220288   4.894   2.287   7.841 -0.0638  0.0259  0.5043
   64MOL     C320289   4.760   2.440   7.701 -0.6034  0.2025 -0.3502
   64MOL     C420290   4.727   2.540   7.808 -0.2281 -0.1411  0.2188
   64MOL     C520291   4.777   2.684   7.785 -0.6527  0.6400 -0.3095
   64MOL     C620292   4.656   2.506   0.018  0.1705 -0.1352 -0.0175
   64MOL     H720293   4.800   2.221   7.672  2.1045  3.0154 -2.1269
   64MOL     H820294   4.888   2.364   0.026 -0.5050  2.0527 -1.5134
   64MOL     H920295   4.986   2.315   7.790 -0.2186  3.4170  1.9176
   64MOL    H1020296   4.914   2.190   7.888  0.5468  0.7712  1.8311
   64MOL    H1120297   4.858   2.477   7.671 -2.0870  3.6092 -1.2780
   64MOL    H1220298   4.778   2.717   7.681  1.1914  0.0296 -0.5050
   64MOL    H1320299   4.873   2.703   7.833 -0.0213 -2.0836 -0.4099
   64MOL    H1420300   4.698   2.748   7.826 -0.6476 -0.0370  0.7646
   64MOL    H1520301   4.627   2.402   0.026  0.7215 -0.2121  1.1196
   64MOL    H1620302   4.623   2.572   0.098  1.6163  0.8349 -0.2104
   64MOL    H1720303   4.684   2.250   7.789  1.7148 -2.1288  2.9630
   64MOL    C1820304   4.666   2.457   7.571  0.4601 -0.6225 -0.3095
   64MOL    C1920305   4.516   2.423   7.606  0.2094  0.6183  0.3855
   64MOL    C2020306   4.724   2.381   7.440  0.1720  0.3025  0.0289
   64MOL    C2120307   4.879   2.380   7.428  0.2337 -0.3094 -0.4033
   64MOL    C2220308   4.945   2.518   7.421  0.1563 -0.0237 -0.1049
   64MOL    C2320309   4.950   2.269   7.440 -0.3656  0.6253 -0.3543
   64MOL    H2420310   4.672   2.564   7.554 -0.1700 -0.4232  0.7186
   64MOL    H2520311   4.455   2.507   7.573 -3.8236 -2.8904 -1.7316
   64MOL    H2620312   4.511   2.415   7.715 -1.3481 -0.3266  0.2747
   64MOL    H2720313   4.490   2.327   7.560  3.0168  0.8063 -1.7075
   64MOL    H2820314   4.690   2.281   7.469  0.1171  0.6004  1.0101
   64MOL    H2920315   4.931   2.559   7.321  0.0974 -0.5290 -0.3028
   64MOL    H3020316   5.050   2.519   7.450  0.0013  2.1128  0.4820
   64MOL    H3120317   4.897   2.591   7.487  0.2087 -0.7920  0.7916
   64MOL    H3220318   4.896   2.177   7.452  0.6745 -0.0132 -0.5558
   64MOL    H3320319   5.058   2.267   7.449 -0.5722  0.7422  3.1265
   64MOL    C3420320   4.650   2.421   7.300  0.1499 -0.2539  0.2344
   64MOL    C3520321   4.613   2.573   7.304 -0.1745  0.4573  0.1103
   64MOL    C3620322   4.524   2.332   7.260 -0.0628 -0.2094  0.5251
   64MOL    C3720323   4.554   2.180   7.261 -0.1697 -0.0340 -0.0651
   64MOL    C3820324   4.446   2.094   7.310  1.1116  0.5497  0.3771
   64MOL    C3920325   4.676   2.130   7.241 -0.0454  0.1708 -0.0241
   64MOL    H4020326   4.719   2.407   7.217  1.0612 -0.1819  0.9689
   64MOL    H4120327   4.600   2.619   7.206  0.2008  0.7164  0.1792
   64MOL    H4220328   4.694   2.627   7.353  1.1548  0.3635 -1.9394
   64MOL    H4320329   4.522   2.579   7.364  1.9334 -0.0358  3.4879
   64MOL    H4420330   4.461   2.344   7.349 -0.6683 -3.1582  0.5459
   64MOL    H4520331   4.437   2.092   7.419 -1.8449 -0.3269  0.1599
   64MOL    H4620332   4.460   1.991   7.276  0.0041 -0.3839  2.6554
   64MOL    H4720333   4.354   2.140   7.276  1.4021 -0.0646 -1.2691
   64MOL    H4820334   4.760   2.193   7.214 -1.9759  2.0997 -1.6800
   64MOL    H4920335   4.694   2.025   7.256 -0.4401  0.2534  1.0575
   64MOL    C5020336   4.444   2.365   7.129  0.1783 -0.2580  0.2495
   64MOL    C5120337   4.305   2.399   7.176 -0.2106 -0.5313  0.2285
   64MOL    C5220338   4.466   2.282   6.992 -0.7941 -0.1244 -0.5052
   64MOL    C5320339   4.611   2.280   6.944  0.0952 -0.5445 -0.0804
   64MOL    C5420340   4.647   2.147   6.877  0.3764  0.5034 -0.3678
   64MOL    C5520341   4.687   2.388   6.954  0.4519  0.0433  0.0741
   64MOL    H5620342   4.482   2.466   7.112  0.9181 -0.3162  1.5314
   64MOL    H5720343   4.244   2.322   7.223 -2.6083  2.3905  2.0795
   64MOL    H5820344   4.258   2.453   7.093  1.0963  1.2891  0.6468
   64MOL    H5920345   4.306   2.480   7.248  0.7798  0.0886 -0.4706
   64MOL    H6020346   4.449   2.177   7.016  1.7801 -0.6421 -0.8678
   64MOL    H6120347   4.602   2.139   6.779 -0.8985  1.2871  0.1442
   64MOL    H6220348   4.613   2.063   6.939 -0.1330 -1.0422 -2.6802
   64MOL    H6320349   4.756   2.145   6.869  0.4113  0.9886 -0.0628
   64MOL    H6420350   4.655   2.482   6.997  3.6359  1.5493 -0.6945
   64MOL    H6520351   4.788   2.385   6.915  0.4824  1.2316  0.0350
   64MOL    C6620352   4.367   2.322   6.869  0.0144 -0.0960  0.5064
   64MOL    C6720353   4.391   2.471   6.820  0.0642 -0.0340 -0.5026
   64MOL    C6820354   4.217   2.270   6.890 -0.2533  0.1169  1.0971
   64MOL    C6920355   4.216   2.118   6.920  0.0821 -0.2468 -0.0900
   64MOL    C7020356   4.117   2.070   7.031  0.4431  0.1299  0.4107
   64MOL    C7120357   4.299   2.031   6.861 -0.1104 -0.2751  0.5878
   64MOL    H7220358   4.401   2.270   6.779 -2.1703 -0.9252  0.1421
   64MOL    H7320359   4.339   2.496   6.727 -1.4664 -1.9081 -0.1700
   64MOL    H7420360   4.494   2.502   6.800 -0.0076  0.9823  0.6515
   64MOL    H7520361   4.357   2.548   6.889 -1.0347 -0.4712 -0.5463
   64MOL    H7620362   4.181   2.317   6.982  0.4154 -0.6129  1.7517
   64MOL    H7720363   4.027   2.026   6.987 -0.4566  1.2907  1.0546
   64MOL    H7820364   4.075   2.149   7.094 -0.4971 -1.0328  1.2496
   64MOL    H7920365   4.164   1.996   7.095  0.6484 -0.8737 -0.8877
   64MOL    H8020366   4.377   2.059   6.792  1.8956 -0.7117  2.6113
   64MOL    H8120367   4.289   1.925   6.873 -1.5809 -0.1071  0.8629
   64MOL    C8220368   4.114   2.309   6.783  0.0312  0.1118 -0.5091
   64MOL    C8320369   4.168   2.276   6.640  0.9510  0.0853  0.0678
   64MOL    C8420370   4.054   2.453   6.788  0.1866 -0.0590  0.1934
   64MOL    C8520371   3.990   2.485   6.923 -0.5960  0.0956 -0.1768
   64MOL    C8620372   4.036   2.621   6.976  0.2396  0.0279 -0.2659
   64MOL    C8720373   3.913   2.403   6.997  0.1765 -0.0901 -0.8278
   64MOL    H8820374   4.038   2.232   6.795  0.2776 -0.2714 -1.3742
   64MOL    H8920375   4.220   2.181   6.649  0.8674 -0.1163 -1.3963
   64MOL    H9020376   4.243   2.341   6.593  0.9596  0.0146 -0.0172
   64MOL    H9120377   4.088   2.267   6.566  1.5194  1.1679 -0.6963
   64MOL    H9220378   4.127   2.532   6.770 -0.4824  0.4651 -0.2646
   64MOL    H9320379   4.017   2.701   6.905  2.5871 -0.2585 -1.2868
   64MOL    H9420380   4.142   2.595   6.985 -0.0535 -2.1805 -2.6404
   64MOL    H9520381   3.991   2.637   7.074 -0.2073 -0.4443 -0.3932
   64MOL    H9620382   3.886   2.305   6.962 -1.1258 -0.5906  1.5418
   64MOL    H9720383   3.884   2.431   7.097  0.7710 -0.5680 -0.5235
   64MOL    C9820384   3.941   2.490   6.676  0.2238  0.1939 -0.2429
   64MOL    C9920385   3.841   2.373   6.660 -0.1962 -0.3941  0.3392
   64MOL   C10020386   4.004   2.551   6.548  0.3812 -0.3741 -0.5302
   64MOL   C10120387   4.075   2.686   6.564 -0.1514  0.8172  0.3439
   64MOL   C10220388   4.218   2.703   6.512 -0.0077  0.2598  0.0030
   64MOL   C10320389   4.009   2.793   6.616  0.2363  0.6738  0.3315
   64MOL   H10420390   3.868   2.563   6.712 -0.4727  0.0445 -1.3620
   64MOL   H10520391   3.875   2.288   6.600  3.4305  1.5839 -0.5329
   64MOL   H10620392   3.751   2.413   6.613 -1.0212  0.4003  2.5461
   64MOL   H10720393   3.815   2.330   6.757  2.3451 -1.5057  0.5692
   64MOL   H10820394   4.090   2.486   6.531  0.1214 -0.9371  0.2888
   64MOL   H10920395   4.221   2.710   6.404 -0.6741  0.6965  0.0105
   64MOL   H11020396   4.292   2.630   6.545 -1.9394 -2.6293 -1.8296
   64MOL   H11120397   4.257   2.801   6.539  2.1310 -0.8212  0.9655
   64MOL   H11220398   3.906   2.774   6.643  0.9245 -2.6292  0.8630
   64MOL   H11320399   4.053   2.891   6.627 -1.1239  1.9014 -4.0598
   64MOL   C11420400   3.926   2.555   6.410  0.2289  0.4056 -0.1298
   64MOL   C11520401   3.780   2.624   6.420  0.0314 -0.0452 -0.1400
   64MOL   C11620402   3.936   2.413   6.334  0.0725 -0.6565 -0.0760
   64MOL   C11720403   4.083   2.380   6.294 -0.6646  0.0845  0.1873
   64MOL   C11820404   4.115   2.232   6.293  0.4863 -0.1848  0.2914
   64MOL   C11920405   4.174   2.464   6.244 -0.1833  0.3376  0.1282
   64MOL   H12020406   3.977   2.615   6.335  1.2620 -1.0045 -0.5720
   64MOL   H12120407   3.744   2.641   6.319 -0.6982 -0.8983 -0.0196
   64MOL   H12220408   3.794   2.724   6.462  1.0105  0.6669 -2.1079
   64MOL   H12320409   3.710   2.565   6.478  0.7208 -1.2428 -0.5075
   64MOL   H12420410   3.901   2.338   6.405  0.5257 -1.5191 -0.7640
   64MOL   H12520411   4.219   2.213   6.265  0.0604 -1.5252 -0.3715
   64MOL   H12620412   4.067   2.181   6.210  3.0292 -0.6054 -0.9809
   64MOL   H12720413   4.079   2.178   6.380  0.6555  0.5094  0.7950
   64MOL   H12820414   4.161   2.571   6.233  0.5676  0.2778 -1.5230
   64MOL   H12920415   4.263   2.415   6.208  1.6179  4.2626 -1.1175
   64MOL   C13020416   3.842   2.387   6.209 -0.3863 -0.6293 -0.1013
   64MOL   C13120417   3.855   2.495   6.105  0.3117 -0.5820 -0.3598
   64MOL   C13220418   3.689   2.355   6.232 -0.0314 -1.0676 -0.4112
   64MOL   C13320419   3.660   2.255   6.346  0.8013  0.7664  0.4126
   64MOL   C13420420   3.541   2.285   6.432  0.0803  0.1969  0.4609
   64MOL   C13520421   3.739   2.149   6.375 -0.3281  0.6033  0.1131
   64MOL   H13620422   3.874   2.291   6.167 -1.5954 -1.3039  0.4828
   64MOL   H13720423   3.826   2.453   6.008 -1.1854 -1.5210  0.4659
   64MOL   H13820424   3.957   2.531   6.097  0.2181 -0.4660 -1.0589
   64MOL   H13920425   3.791   2.581   6.119  2.2331  1.2676 -2.5335
   64MOL   H14020426   3.644   2.444   6.275  2.2297 -1.0201  1.9401
   64MOL   H14120427   3.513   2.389   6.450  1.2751  0.7030 -0.5391
   64MOL   H14220428   3.561   2.236   6.528 -0.0012 -1.8881 -0.5479
   64MOL   H14320429   3.448   2.241   6.397  0.1510 -0.5598  1.2004
   64MOL   H14420430   3.824   2.123   6.314 -0.5990 -0.1707  0.0529
   64MOL   H14520431   3.718   2.075   6.451 -0.4288 -0.2744 -0.7521
   64MOL   C14620432   3.608   2.323   6.099  1.0509  0.3674  0.3271
   64MOL   C14720433   3.458   2.360   6.125  0.2297  0.3510  0.1926
   64MOL   C14820434   3.630   2.173   6.044  0.2775 -0.3608  0.2583
   64MOL   C14920435   3.778   2.151   5.983  0.3258 -0.1195 -0.1403
   64MOL   C15020436   3.846   2.021   6.025  0.4231  0.6139  0.2963
   64MOL   C15120437   3.832   2.220   5.881  0.0541  0.7862  0.6449
   64MOL   H15220438   3.633   2.390   6.016  0.2606 -1.0270 -1.0430
   64MOL   H15320439   3.401   2.278   6.170  0.9299  0.6752  1.6844
   64MOL   H15420440   3.404   2.371   6.031  1.8126 -1.7729 -0.9927
   64MOL   H15520441   3.443   2.437   6.201 -1.6105  2.0404 -1.7959
   64MOL   H15620442   3.625   2.107   6.131 -1.8755  0.2118  0.6043
   64MOL   H15720443   3.816   1.986   6.124  0.2712  0.3521  0.1576
   64MOL   H15820444   3.954   2.022   6.012  0.0707  0.5955 -3.0616
   64MOL   H15920445   3.813   1.942   5.958  0.9034 -0.8002  1.6767
   64MOL   H16020446   3.797   2.313   5.838 -1.5543 -0.0598  0.0837
   64MOL   H16120447   3.925   2.193   5.834  0.6845 -0.1817  2.4002
   64MOL   C16220448   3.534   2.101   5.945  0.7262  0.1126  0.0047
   64MOL   C16320449   3.497   2.189   5.826 -0.0853  0.4829 -0.7639
   64MOL   C16420450   3.405   2.040   6.007 -0.2087  0.2421 -0.2862
   64MOL   C16520451   3.437   1.964   6.136 -0.8028  0.4682 -0.1422
   64MOL   C16620452   3.547   1.861   6.141 -0.1289  0.3466 -0.0752
   64MOL   C16720453   3.365   1.981   6.250 -0.5675 -0.1947  0.1246
   64MOL   H16820454   3.588   2.015   5.907 -0.5905 -0.5722 -0.3265
   64MOL   H16920455   3.420   2.265   5.837 -1.0117 -0.6155  0.4549
   64MOL   H17020456   3.486   2.124   5.739  0.9301 -1.4183  0.4887
   64MOL   H17120457   3.591   2.240   5.803 -0.9528  3.1658  1.3805
   64MOL   H17220458   3.337   2.122   6.033 -2.5782 -2.3618  2.0336
   64MOL   H17320459   3.641   1.878   6.087  0.6422  0.0280  1.1576
   64MOL   H17420460   3.499   1.773   6.098 -0.6231  1.5073 -1.9648
   64MOL   H17520461   3.572   1.835   6.244  2.1707 -0.0895 -0.7113
   64MOL   H17620462   3.279   2.047   6.250 -0.2103  0.2786 -1.0572
   64MOL   H17720463   3.385   1.928   6.342  0.3559 -2.5677 -1.3860
   64MOL   C17820464   3.307   1.947   5.921 -0.6317 -0.2115  0.6345
   64MOL   C17920465   3.399   1.862   5.825 -0.8067  0.7244 -0.1997
   64MOL   C18020466   3.194   2.025   5.845  0.7031 -0.4609 -0.8084
   64MOL   C18120467   3.105   2.122   5.934 -0.9251 -0.7532  0.1380
   64MOL   C18220468   3.083   2.264   5.889  0.2691 -0.3091  0.3949
   64MOL   C18320469   3.071   2.078   6.056  0.2155  0.8357 -0.0470
   64MOL   H18420470   3.255   1.884   5.994  0.4709 -1.6202  0.2309
   64MOL   H18520471   3.434   1.928   5.745 -0.4540 -0.6873 -1.2205
   64MOL   H18620472   3.336   1.782   5.787  0.4739  0.1661 -1.2165
   64MOL   H18720473   3.487   1.823   5.876 -1.4627  0.2660  0.5966
   64MOL   H18820474   3.254   2.103   5.797 -0.1261 -1.1624 -3.0695
   64MOL   H18920475   3.170   2.325   5.911  0.0483 -1.0504  3.5927
   64MOL   H19020476   2.996   2.314   5.931  1.4659  0.7243  1.6682
   64MOL   H19120477   3.069   2.258   5.781 -0.5837  3.0285  0.2843
   64MOL   H19220478   3.095   1.977   6.087  1.4465  1.1248 -0.0300
   64MOL   H19320479   3.024   2.148   6.124  2.0523  1.4369  0.6148
   64MOL   C19420480   3.107   1.950   5.730 -0.4649  0.3546  0.3777
   64MOL   C19520481   3.170   1.985   5.592 -0.3069  0.2875 -0.8166
   64MOL   C19620482   2.947   1.958   5.723 -0.4538  0.2452  0.1751
   64MOL   C19720483   2.890   1.900   5.848  0.4651 -0.2976 -0.6079
   64MOL   C19820484   2.763   1.972   5.893  0.4489 -0.1350  0.5727
   64MOL   C19920485   2.933   1.789   5.912  0.5561 -0.3119 -0.1579
   64MOL   H20020486   3.125   1.843   5.742 -1.8874 -0.0204 -0.7422
   64MOL   H20120487   3.149   2.091   5.575 -0.1561  0.6000  0.8935
   64MOL   H20220488   3.135   1.929   5.505 -1.6614  0.4296 -0.3763
   64MOL   H20320489   3.278   1.971   5.599 -0.1014  2.0014 -0.1635
   64MOL   H20420490   2.914   2.062   5.720 -0.1690  0.3188 -0.6085
   64MOL   H20520491   2.774   2.081   5.895 -2.9165  0.2712 -1.0069
   64MOL   H20620492   2.726   1.928   5.985  0.0807 -1.0676 -0.0210
   64MOL   H20720493   2.685   1.956   5.820  1.6715  0.9909 -1.0059
   64MOL   H20820494   3.025   1.739   5.885  0.3913 -0.5855 -0.2127
   64MOL   H20920495   2.880   1.757   6.001 -0.4356 -0.5652 -0.8364
   64MOL   C21020496   2.876   1.884   5.598 -0.6979  0.2728  0.1460
   64MOL   C21120497   2.924   1.744   5.579  0.0475  0.2589  0.0936
   64MOL   C21220498   2.862   1.971   5.475 -0.1458 -0.7835  0.0872
   64MOL   C21320499   2.797   2.111   5.507  0.2814  0.5719  0.2361
   64MOL   C21420500   2.869   2.235   5.457 -0.0975 -0.3976  0.5127
   64MOL   C21520501   2.686   2.126   5.584  0.0230 -0.1050  0.7938
   64MOL   H21620502   2.772   1.882   5.628 -0.5843  2.5067  0.7974
   64MOL   H21720503   2.838   1.682   5.556  0.2319 -0.3780  1.1106
   64MOL   H21820504   2.970   1.703   5.668  3.9103  2.3550 -0.8119
   64MOL   H21920505   2.987   1.743   5.490 -1.3803  2.4138 -0.9865
   64MOL   H22020506   2.960   2.001   5.438 -0.5747  1.1173  0.4735
   64MOL   H22120507   2.798   2.315   5.436 -0.1860 -1.2231 -2.4791
   64MOL   H22220508   2.920   2.216   5.363  0.5146  1.2293  0.4982
   64MOL   H22320509   2.948   2.266   5.526  1.5330  2.3235 -2.4483
   64MOL   H22420510   2.626   2.050   5.631 -2.2706  3.0050  3.1647
   64MOL   H22520511   2.645   2.223   5.609 -1.6531 -0.4862 -0.4326
   64MOL   C22620512   2.793   1.907   5.345 -0.4059  0.0886  0.2294
   64MOL   C22720513   2.654   1.857   5.388 -0.0900  0.8159 -0.0766
   64MOL   C22820514   2.863   1.800   5.257  0.1462 -0.4399 -0.4299
   64MOL   C22920515   3.001   1.847   5.227 -0.6261  0.1205  0.1918
   64MOL   C23020516   3.115   1.741   5.212  0.0795 -0.3164  0.2170
   64MOL   C23120517   3.038   1.973   5.198  0.0694  0.7553  0.4393
   64MOL   H23220518   2.768   1.989   5.278 -0.8913 -0.3146 -0.0909
   64MOL   H23320519   2.596   1.930   5.444 -0.9322  1.4077 -1.6780
   64MOL   H23420520   2.658   1.761   5.439 -1.5207  0.0206 -1.4189
   64MOL   H23520521   2.592   1.860   5.299  0.6360  0.5655 -0.5984
   64MOL   H23620522   2.883   1.711   5.317  0.7879 -0.5296 -0.7821
   64MOL   H23720523   3.112   1.678   5.301  1.8653 -0.3785  0.2495
   64MOL   H23820524   3.212   1.790   5.203 -0.3052  0.3849 -0.2078
   64MOL   H23920525   3.095   1.670   5.132  0.8396 -1.1959  0.8014
   64MOL   H24020526   2.957   2.043   5.180 -1.1731 -1.2535 -2.2181
   64MOL   H24120527   3.139   2.005   5.180 -0.1669  0.8386 -0.8043
   64MOL   C24220528   2.790   1.742   5.135  0.3166 -0.4179 -0.6809
   64MOL   C24320529   2.729   1.859   5.056  0.2246 -0.4535  0.0700
   64MOL   C24420530   2.689   1.620   5.158  0.3111  0.1724  0.0286
   64MOL   C24520531   2.762   1.504   5.225 -0.7580 -0.3138 -0.2341
   64MOL   C24620532   2.685   1.448   5.342  0.7345  0.2423 -0.4171
   64MOL   C24720533   2.883   1.457   5.192  0.6914 -0.8592 -0.0644
   64MOL   H24820534   2.868   1.688   5.080 -0.0712 -1.8700  0.1785
   64MOL   H24920535   2.632   1.892   5.093  0.3622 -0.1025  0.1229
   64MOL   H25020536   2.718   1.826   4.953  2.0941  0.6952 -0.5235
   64MOL   H25120537   2.776   1.957   5.044 -0.4369  0.0357  1.3076
   64MOL   H25220538   2.622   1.646   5.240 -1.3651  0.2443 -1.3297
   64MOL   H25320539   2.579   1.473   5.340  0.1046 -2.1214  0.8888
   64MOL   H25420540   2.733   1.494   5.429  2.0368  1.6031 -1.8351
   64MOL   H25520541   2.689   1.340   5.355  2.4794  0.4814  1.2894
   64MOL   H25620542   2.936   1.507   5.113 -0.3749  2.4024  1.1900
   64MOL   H25720543   2.931   1.368   5.232 -0.4932 -0.9082  1.3030
   64MOL   C25820544   2.606   1.571   5.032  0.6086 -0.4214  1.1257
   64MOL   C25920545   2.696   1.528   4.910 -0.1761  0.2652 -0.0064
   64MOL   C26020546   2.469   1.634   4.989 -0.5239  0.4095 -0.4119
   64MOL   C26120547   2.382   1.675   5.108  0.0127 -0.0749 -0.1808
   64MOL   C26220548   2.346   1.820   5.119  0.0836 -0.0791 -0.5025
   64MOL   C26320549   2.353   1.594   5.213 -0.1900 -0.2746 -0.7816
   64MOL   H26420550   2.559   1.480   5.069  2.8737 -2.3161 -0.5068
   64MOL   H26520551   2.782   1.469   4.941  0.1019  0.6760  0.0103
   64MOL   H26620552   2.735   1.604   4.842  0.7575  0.5313  0.8209
   64MOL   H26720553   2.630   1.461   4.855  0.6394 -1.4159  1.0302
   64MOL   H26820554   2.509   1.725   4.945  0.3754 -0.2058 -0.8932
   64MOL   H26920555   2.418   1.898   5.096  0.8470 -0.2123  1.3668
   64MOL   H27020556   2.306   1.843   5.218  0.8741 -1.0554  0.0590
   64MOL   H27120557   2.265   1.841   5.049  2.1402  1.0672 -2.5880
   64MOL   H27220558   2.380   1.490   5.215 -0.0887 -0.2238  1.8249
   64MOL   H27320559   2.301   1.625   5.302 -0.3232 -2.7057  0.0152
   64MOL   C27420560   2.384   1.559   4.874 -0.2216  0.0058  0.1346
   64MOL   C27520561   2.366   1.405   4.894  0.1508  0.1309  0.0646
   64MOL   C27620562   2.421   1.604   4.728  0.4301 -0.2484  0.2066
   64MOL   C27720563   2.442   1.750   4.700 -0.2350 -0.4524 -0.1287
   64MOL   C27820564   2.330   1.851   4.714 -0.2432  0.3631 -0.2737
   64MOL   C27920565   2.565   1.792   4.670 -0.6613 -0.2936 -0.6353
   64MOL   H28020566   2.281   1.593   4.886  0.3038  1.4731  0.5967
   64MOL   H28120567   2.346   1.392   5.001  1.5023  3.0355  0.7337
   64MOL   H28220568   2.457   1.346   4.884  0.1356  0.5133 -2.5908
   64MOL   H28320569   2.290   1.352   4.836  1.2509 -1.2477 -0.1445
   64MOL   H28420570   2.527   1.578   4.726  0.8229  1.3819 -2.0606
   64MOL   H28520571   2.368   1.952   4.695  0.9368 -0.1909 -0.8852
   64MOL   H28620572   2.286   1.830   4.812 -1.3800 -1.8699 -1.2311
   64MOL   H28720573   2.247   1.827   4.648 -0.4279  0.3710 -0.0447
   64MOL   H28820574   2.653   1.730   4.669 -1.1701 -1.1416  2.3439
   64MOL   H28920575   2.577   1.897   4.649  1.0800 -0.1582  0.9279
   64MOL   C29020576   2.348   1.540   4.600  0.3480  0.0600 -0.0941
   64MOL   C29120577   2.194   1.546   4.621  0.3509  0.6671  0.3746
   64MOL   C29220578   2.399   1.397   4.559  0.1219  0.5683 -0.8149
   64MOL   C29320579   2.547   1.392   4.539 -0.1135 -0.8002 -0.4356
   64MOL   C29420580   2.604   1.495   4.445 -0.6270  0.0917  0.7729
   64MOL   C29520581   2.627   1.308   4.607  0.3334 -0.4293 -0.0051
   64MOL   H29620582   2.368   1.605   4.515  1.5169 -0.1805 -0.0107
   64MOL   H29720583   2.149   1.467   4.682 -1.0857 -0.2121 -1.7554
   64MOL   H29820584   2.153   1.559   4.521  2.4609 -0.5265 -0.6751
   64MOL   H29920585   2.161   1.635   4.674  0.3631  0.7992  0.1592
   64MOL   H30020586   2.381   1.339   4.650  1.1907 -1.5441 -1.9127
   64MOL   H30120587   2.560   1.510   4.346 -2.4038 -0.1726  1.5019
   64MOL   H30220588   2.706   1.461   4.425 -0.6541  1.7039 -2.4272
   64MOL   H30320589   2.609   1.593   4.493 -0.9144 -0.2198  1.4439
   64MOL   H30420590   2.585   1.245   4.684  0.0544 -1.3485 -0.8985
   64MOL   H30520591   2.734   1.307   4.591  0.1657  1.2139 -1.2982
   64MOL   C30620592   2.317   1.316   4.458  0.4134 -0.5316 -0.1437
   64MOL   C30720593   2.365   1.165   4.442  0.8011 -0.7722 -0.4121
   64MOL   C30820594   2.318   1.386   4.322 -0.1042  0.0988  0.0330
   64MOL   C30920595   2.217   1.322   4.231  0.2846  0.2070 -0.0622
   64MOL   C31020596   2.066   1.342   4.257  0.3673 -0.8381 -0.6294
   64MOL   C31120597   2.246   1.250   4.118  0.4082  0.0847  0.3106
   64MOL   H31220598   2.218   1.324   4.501  1.6343 -2.0172  3.0898
   64MOL   H31320599   2.450   1.150   4.376  0.3158 -1.5350 -0.8670
   64MOL   H31420600   2.288   1.103   4.396 -0.9740  1.0869 -0.0590
   64MOL   H31520601   2.391   1.122   4.538  0.5037  1.1638  0.5780
   64MOL   H31620602   2.307   1.495   4.321 -0.7321  0.0340 -0.2242
   64MOL   H31720603   2.068   1.451   4.264  2.4845 -0.9772  1.1158
   64MOL   H31820604   2.035   1.310   4.356  1.1833  2.0214  0.5974
   64MOL   H31920605   1.996   1.314   4.178 -0.6930 -0.8494  0.3095
   64MOL   H32020606   2.352   1.245   4.096  0.0187 -0.2534 -1.5776
   64MOL   H32120607   2.172   1.205   4.054  0.9184 -0.7341  0.2928
   64MOL   H32220608   2.418   1.371   4.281  0.5807  0.2984  1.5905
   65MOL     C120609   4.600   0.509   0.833  0.0654  0.7898 -0.4750
   65MOL     C220610   4.487   0.452   0.917 -0.3343  0.6838 -0.6305
   65MOL     C320611   4.729   0.538   0.918  0.4337 -0.3619  0.5114
   65MOL     C420612   4.699   0.654   1.017  0.3099  1.4104  0.1151
   65MOL     C520613   4.694   0.796   0.965 -0.4105  0.2570  0.4328
   65MOL     C620614   4.690   0.623   1.153  0.1758 -0.7846  0.5357
   65MOL     H720615   4.631   0.441   0.754 -1.1207 -3.2788  2.3884
   65MOL     H820616   4.406   0.417   0.853 -0.0791  0.9031 -1.0823
   65MOL     H920617   4.444   0.526   0.984 -1.7651  0.1937 -0.9991
   65MOL    H1020618   4.520   0.369   0.978  0.0268  2.4167  1.5843
   65MOL    H1120619   4.738   0.460   0.993  1.6960  0.5632  1.3448
   65MOL    H1220620   4.789   0.819   0.917 -0.5261  0.4540  0.2953
   65MOL    H1320621   4.683   0.862   1.050  2.7550 -0.4974  1.4696
   65MOL    H1420622   4.621   0.813   0.885  1.8612  1.4785 -1.4436
   65MOL    H1520623   4.702   0.523   1.191  3.2609 -0.6472  0.0594
   65MOL    H1620624   4.680   0.703   1.226  1.7070 -2.4186  2.6188
   65MOL    H1720625   4.565   0.603   0.790 -1.5301  0.6870  0.5357
   65MOL    C1820626   4.858   0.560   0.833  0.3047  0.1198  0.2243
   65MOL    C1920627   4.835   0.631   0.701 -0.3191  0.0811 -0.2087
   65MOL    C2020628   4.944   0.426   0.805 -0.6969  0.2995 -0.5046
   65MOL    C2120629   4.858   0.297   0.776  0.4754 -0.5515 -0.2022
   65MOL    C2220630   4.864   0.253   0.636  0.6957  0.2792  0.2729
   65MOL    C2320631   4.793   0.223   0.867 -0.1753  0.2539  0.5159
   65MOL    H2420632   4.921   0.637   0.879  3.8304 -1.7858 -1.2614
   65MOL    H2520633   4.922   0.672   0.650 -0.2047 -0.6893 -0.6392
   65MOL    H2620634   4.769   0.718   0.711 -0.8770 -0.3458 -0.1761
   65MOL    H2720635   4.779   0.557   0.643 -0.8802  1.6884 -1.7725
   65MOL    H2820636   5.002   0.444   0.714  0.1729  1.2984  0.2378
   65MOL    H2920637   4.849   0.340   0.572  0.5081  1.0350  1.3329
   65MOL    H3020638   4.790   0.182   0.597  0.0205  0.7502  0.6802
   65MOL    H3120639   4.963   0.218   0.606  0.7342  1.5875 -1.2127
   65MOL    H3220640   4.785   0.233   0.974 -0.7265 -0.0404  0.5056
   65MOL    H3320641   4.754   0.131   0.825  1.3302  0.0757 -0.5699
   65MOL    C3420642   5.061   0.404   0.913  1.0240 -0.2491  0.3488
   65MOL    C3520643   5.003   0.413   1.059 -0.3249  0.1597 -0.0589
   65MOL    C3620644   5.189   0.495   0.891  0.7910 -0.0030 -0.3933
   65MOL    C3720645   5.251   0.470   0.752  0.2109 -0.3047  0.5234
   65MOL    C3820646   5.292   0.329   0.712 -0.7395 -0.2509 -0.0312
   65MOL    C3920647   5.266   0.570   0.663 -0.8965 -0.0104  0.5964
   65MOL    H4020648   5.077   0.296   0.906 -1.1869 -0.5188 -1.3286
   65MOL    H4120649   4.959   0.512   1.070  0.1802  0.4188 -0.3428
   65MOL    H4220650   5.068   0.404   1.146 -0.9433 -1.5361  0.2399
   65MOL    H4320651   4.928   0.336   1.075 -0.4637  0.4077  0.4912
   65MOL    H4420652   5.146   0.595   0.879 -2.6803 -1.5229 -1.0357
   65MOL    H4520653   5.396   0.312   0.742  0.7975  3.9707 -2.6355
   65MOL    H4620654   5.288   0.315   0.604  1.1994 -1.5060  0.0285
   65MOL    H4720655   5.235   0.257   0.771 -1.7373  1.9648  1.7873
   65MOL    H4820656   5.237   0.673   0.679 -1.3892 -0.0397 -0.0845
   65MOL    H4920657   5.315   0.546   0.569  1.2495  0.1386  1.6396
   65MOL    C5020658   5.295   0.499   1.008  0.0673  0.0900  0.2469
   65MOL    C5120659   5.318   0.358   1.069  0.1319 -0.3852 -0.5810
   65MOL    C5220660   5.276   0.620   1.112 -0.3646 -0.6846  0.3362
   65MOL    C5320661   5.226   0.744   1.040  0.1205  0.0258  0.1021
   65MOL    C5420662   5.091   0.790   1.082 -0.3978  0.0078 -0.2407
   65MOL    C5520663   5.296   0.810   0.946  0.6284  0.2265  0.2246
   65MOL    H5620664   5.387   0.518   0.953  0.2680 -1.1161  0.1361
   65MOL    H5720665   5.424   0.340   1.084  0.0230 -0.1581  0.4877
   65MOL    H5820666   5.293   0.284   0.994 -0.6357  1.9062 -2.6595
   65MOL    H5920667   5.262   0.348   1.162  0.1286  1.1808 -0.3938
   65MOL    H6020668   5.197   0.598   1.184  0.6411 -0.8694  1.3998
   65MOL    H6120669   5.085   0.854   1.169  3.4120  1.2612 -0.8210
   65MOL    H6220670   5.024   0.705   1.097 -1.5848  1.3014  1.9630
   65MOL    H6320671   5.043   0.844   1.000 -3.7608  1.8777  2.8358
   65MOL    H6420672   5.389   0.773   0.905  0.6770 -2.0955  2.2586
   65MOL    H6520673   5.272   0.911   0.919 -0.0321  0.1134  0.3729
   65MOL    C6620674   5.394   0.657   1.201  0.1844 -0.2087  0.7404
   65MOL    C6720675   5.522   0.666   1.128 -0.2351  0.0575  0.4805
   65MOL    C6820676   5.397   0.586   1.346 -0.6189  0.0793 -0.2038
   65MOL    C6920677   5.274   0.602   1.429  0.3199  0.2155  0.4784
   65MOL    C7020678   5.215   0.481   1.503  0.0887  0.0856  0.5336
   65MOL    C7120679   5.209   0.719   1.444 -0.2743  0.0652  0.2717
   65MOL    H7220680   5.373   0.760   1.228 -0.0985  0.8034 -3.0250
   65MOL    H7320681   5.525   0.698   1.024  0.9017 -0.6024  0.2969
   65MOL    H7420682   5.558   0.563   1.124 -2.0994 -0.5427 -2.4535
   65MOL    H7520683   5.599   0.725   1.178 -0.3563  1.1127 -0.5559
   65MOL    H7620684   5.397   0.482   1.313  0.3255  0.8573 -2.8049
   65MOL    H7720685   5.274   0.430   1.578  1.0993 -0.4229 -0.5818
   65MOL    H7820686   5.182   0.407   1.430 -0.3908 -0.6704  1.5069
   65MOL    H7920687   5.120   0.509   1.548  0.2413 -0.4860  1.2095
   65MOL    H8020688   5.249   0.813   1.410 -2.5937  0.7974 -0.5366
   65MOL    H8120689   5.119   0.732   1.503 -0.1987  1.3522  0.1178
   65MOL    C8220690   5.523   0.609   1.440 -0.1848  0.3203 -0.6049
   65MOL    C8320691   5.560   0.756   1.470  0.0427 -0.4046 -0.0651
   65MOL    C8420692   5.651   0.531   1.414 -0.4067 -0.8828 -0.1229
   65MOL    C8520693   5.624   0.390   1.365  0.0714 -0.6425 -0.3811
   65MOL    C8620694   5.544   0.301   1.461  0.3495 -0.5744 -0.3746
   65MOL    C8720695   5.660   0.346   1.247 -0.6353  0.3057 -0.2784
   65MOL    H8820696   5.489   0.570   1.535 -1.5940  1.0999 -0.7787
   65MOL    H8920697   5.473   0.821   1.477 -1.0038 -1.9086  1.4337
   65MOL    H9020698   5.617   0.805   1.391  0.5258 -1.2837 -0.2742
   65MOL    H9120699   5.617   0.760   1.563  1.8996  1.0074 -1.2493
   65MOL    H9220700   5.693   0.577   1.325 -2.8979 -0.0659 -0.9040
   65MOL    H9320701   5.456   0.349   1.503  0.3488 -1.1886  0.3412
   65MOL    H9420702   5.602   0.262   1.545  1.9126 -1.6925 -1.9243
   65MOL    H9520703   5.496   0.231   1.393  0.4704  0.6462 -1.7338
   65MOL    H9620704   5.709   0.410   1.175  0.7907 -1.5092 -0.9603
   65MOL    H9720705   5.639   0.244   1.221  0.6775 -0.0807  0.1579
   65MOL    C9820706   5.771   0.527   1.522  0.2163  0.5169  1.0563
   65MOL    C9920707   5.729   0.516   1.674  0.3082  0.0554  0.3345
   65MOL   C10020708   5.877   0.646   1.497 -0.0423  0.4961  0.1127
   65MOL   C10120709   5.926   0.645   1.351 -0.3044  0.2227 -0.6273
   65MOL   C10220710   5.935   0.774   1.278 -0.5093  0.6383  0.6269
   65MOL   C10320711   5.953   0.537   1.275  0.6593 -0.2209  0.2873
   65MOL   H10420712   5.820   0.432   1.500  1.5938  1.2693  0.7892
   65MOL   H10520713   5.802   0.473   1.742  2.5258 -0.0627 -2.0226
   65MOL   H10620714   5.639   0.458   1.691 -0.3046  1.3876  1.7477
   65MOL   H10720715   5.712   0.619   1.705  1.0104  0.7117 -1.3708
   65MOL   H10820716   5.832   0.745   1.506  1.8173  1.4813 -1.2045
   65MOL   H10920717   6.012   0.845   1.311  1.2211  1.2691 -4.3175
   65MOL   H11020718   5.838   0.821   1.286 -1.4086 -1.2527  1.1573
   65MOL   H11120719   5.953   0.741   1.175  2.2501  1.0310  0.9360
   65MOL   H11220720   5.948   0.438   1.317 -0.0613  0.8546  2.8628
   65MOL   H11320721   5.981   0.542   1.171 -1.5353  0.0536 -0.3269
   65MOL   C11420722   6.001   0.647   1.595 -0.9239  0.3530  0.3730
   65MOL   C11520723   6.047   0.500   1.614 -0.0394 -0.5341  0.0093
   65MOL   C11620724   5.993   0.731   1.724 -0.1322  0.0044 -0.3258
   65MOL   C11720725   5.901   0.857   1.719  0.0135  0.1144 -0.2508
   65MOL   C11820726   5.941   0.959   1.619  0.2372 -0.6793  0.7424
   65MOL   C11920727   5.791   0.882   1.795 -0.2224  0.0707  1.1254
   65MOL   H12020728   6.066   0.695   1.523 -1.1756  0.0796 -0.0413
   65MOL   H12120729   6.056   0.441   1.522  0.4899 -1.9042  0.9300
   65MOL   H12220730   5.998   0.451   1.697  0.8427 -1.0556  0.2342
   65MOL   H12320731   6.153   0.490   1.637 -0.1408 -0.3652  0.5295
   65MOL   H12420732   5.944   0.661   1.793 -0.9492 -0.7318 -1.6239
   65MOL   H12520733   6.035   0.998   1.657  1.1722 -1.8551 -0.3256
   65MOL   H12620734   5.874   1.045   1.616 -0.6953 -1.4119 -3.1563
   65MOL   H12720735   5.951   0.928   1.514  0.6726  2.0442 -0.0602
   65MOL   H12820736   5.758   0.810   1.869 -0.2435 -1.8310 -0.6793
   65MOL   H12920737   5.727   0.969   1.797 -1.2711 -0.6146 -0.7645
   65MOL   C13020738   6.136   0.753   1.789  0.3089 -0.4065 -0.1283
   65MOL   C13120739   6.245   0.776   1.679  0.2417 -0.5752  0.0150
   65MOL   C13220740   6.180   0.655   1.906  0.3005 -0.1693  0.4817
   65MOL   C13320741   6.069   0.647   2.010 -0.2077  0.0184  0.3101
   65MOL   C13420742   6.011   0.777   2.071  0.4436  0.0171 -0.5856
   65MOL   C13520743   6.004   0.535   2.027  0.6929 -0.3328  0.1060
   65MOL   H13620744   6.133   0.857   1.821 -1.4701  0.1918 -2.1073
   65MOL   H13720745   6.261   0.697   1.605 -0.2673 -0.3187 -0.3787
   65MOL   H13820746   6.342   0.813   1.710 -0.8300  2.0173  0.4568
   65MOL   H13920747   6.211   0.858   1.615 -0.2341 -1.3821 -0.7940
   65MOL   H14020748   6.192   0.555   1.865 -2.0252 -1.0883  1.9629
   65MOL   H14120749   5.921   0.763   2.132  0.5335 -1.2739 -0.7254
   65MOL   H14220750   5.995   0.855   1.996 -1.7545 -0.4408 -0.6459
   65MOL   H14320751   6.088   0.820   2.134  0.7351  0.3449 -1.1632
   65MOL   H14420752   6.047   0.445   1.985  0.3833  1.0318 -3.3036
   65MOL   H14520753   5.914   0.522   2.084  0.1506  0.1105 -0.6320
   65MOL   C14620754   6.320   0.690   1.975  0.3697  0.0611 -0.2979
   65MOL   C14720755   6.351   0.842   1.984 -0.2461  0.8339 -0.3812
   65MOL   C14820756   6.439   0.606   1.931 -0.2660  0.1283  0.6694
   65MOL   C14920757   6.410   0.466   1.884  0.1002  0.4431  0.1315
   65MOL   C15020758   6.434   0.439   1.739 -0.6351 -0.2013 -0.2987
   65MOL   C15120759   6.351   0.373   1.959 -0.1285  0.7276  0.3179
   65MOL   H15220760   6.291   0.640   2.068  0.5086 -1.1211 -0.8824
   65MOL   H15320761   6.383   0.885   1.889 -1.8305  0.6912 -1.0041
   65MOL   H15420762   6.431   0.855   2.057 -2.6170 -0.7949  2.6300
   65MOL   H15520763   6.272   0.904   2.026  0.1938  0.5588  0.8777
   65MOL   H15620764   6.463   0.653   1.835  0.2715 -0.2407  0.6217
   65MOL   H15720765   6.400   0.518   1.672 -0.4769 -0.2645 -0.4549
   65MOL   H15820766   6.392   0.341   1.716  0.8361 -0.9198  0.0452
   65MOL   H15920767   6.541   0.449   1.720 -0.6513  2.9786  0.9847
   65MOL   H16020768   6.345   0.377   2.066  3.4950 -0.2527  0.6222
   65MOL   H16120769   6.324   0.280   1.910 -0.0989  0.4761  0.7772
   65MOL   C16220770   6.566   0.603   2.027  0.3771  0.2579 -0.7053
   65MOL   C16320771   6.540   0.600   2.176 -0.1830 -0.2656 -0.1777
   65MOL   C16420772   6.678   0.706   1.991 -0.0821 -0.1126 -0.9533
   65MOL   C16520773   6.692   0.746   1.842  0.0204  0.6391  0.1859
   65MOL   C16620774   6.675   0.893   1.801  0.0458 -0.1117  0.2538
   65MOL   C16720775   6.714   0.661   1.740  0.3926 -0.1320  0.2860
   65MOL   H16820776   6.613   0.506   2.011  0.6128  0.5155 -1.5970
   65MOL   H16920777   6.631   0.569   2.227 -0.4180 -2.0532 -0.7978
   65MOL   H17020778   6.456   0.533   2.196 -1.6802  1.6806  0.2695
   65MOL   H17120779   6.502   0.698   2.206  0.0608  0.7913 -3.1664
   65MOL   H17220780   6.644   0.801   2.033 -0.1811 -0.4076 -0.3618
   65MOL   H17320781   6.619   0.902   1.709  2.7595  0.8720 -1.3758
   65MOL   H17420782   6.764   0.948   1.771  1.1897  0.1091  3.7644
   65MOL   H17520783   6.629   0.951   1.881 -0.7591 -1.3042  0.6759
   65MOL   H17620784   6.728   0.557   1.766 -2.7367 -0.6609  0.0477
   65MOL   H17720785   6.723   0.697   1.639  0.4654 -0.0037  0.3376
   65MOL   C17820786   6.825   0.672   2.051 -0.5362  0.2677 -0.8323
   65MOL   C17920787   6.862   0.524   2.048  0.1405  0.1869 -0.7750
   65MOL   C18020788   6.867   0.742   2.182 -0.5931  0.0169 -0.6747
   65MOL   C18120789   6.828   0.892   2.189  0.5811  0.5537  0.2473
   65MOL   C18220790   6.905   0.984   2.099  0.4892 -0.4865 -0.2870
   65MOL   C18320791   6.739   0.942   2.280  0.0593 -0.3170  0.0034
   65MOL   H18420792   6.895   0.708   1.977  2.5981 -1.7615  1.0190
   65MOL   H18520793   6.846   0.497   1.944 -0.4833  2.6271 -1.3656
   65MOL   H18620794   6.793   0.470   2.112  1.5287  0.1657  0.7437
   65MOL   H18720795   6.966   0.498   2.069 -0.2693  0.2693  1.4048
   65MOL   H18820796   6.797   0.707   2.257  1.3022 -1.5385  0.4054
   65MOL   H18920797   6.908   0.940   1.999  0.7992 -2.5735  0.6254
   65MOL   H19020798   7.005   1.001   2.137 -0.2712  2.5307  0.4959
   65MOL   H19120799   6.853   1.080   2.107  1.5020 -0.1248  2.6163
   65MOL   H19220800   6.702   0.884   2.363  0.4671  1.4397  1.4388
   65MOL   H19320801   6.716   1.047   2.287  0.1593 -0.1138 -2.3948
   65MOL   C19420802   7.016   0.725   2.235 -0.4797 -0.0950 -0.1957
   65MOL   C19520803   7.127   0.740   2.130 -0.3153 -0.7557  0.3456
   65MOL   C19620804   7.045   0.603   2.326  0.0991 -0.0475 -0.0555
   65MOL   C19720805   6.936   0.585   2.433 -0.7677 -0.6755  0.4036
   65MOL   C19820806   6.842   0.459   2.425  0.3106 -0.7923 -0.2425
   65MOL   C19920807   6.913   0.683   2.520 -0.1079 -0.0004 -0.1823
   65MOL   H20020808   7.030   0.811   2.300  0.0376  1.2985 -2.0842
   65MOL   H20120809   7.224   0.761   2.177 -0.3907  2.3034 -0.7169
   65MOL   H20220810   7.114   0.834   2.076  2.0910  0.0155  1.0165
   65MOL   H20320811   7.135   0.660   2.058 -0.6194  0.5814 -1.2028
   65MOL   H20420812   7.033   0.510   2.271 -1.9934 -0.3024  0.7832
   65MOL   H20520813   6.768   0.485   2.350 -1.3368 -2.5036  0.7621
   65MOL   H20620814   6.771   0.443   2.506 -0.6857  0.1574 -0.9192
   65MOL   H20720815   6.899   0.370   2.397  0.7949 -0.2930 -0.8620
   65MOL   H20820816   6.978   0.770   2.519  0.9133 -0.7587 -0.5791
   65MOL   H20920817   6.826   0.676   2.583 -0.5556  1.6982 -0.5805
   65MOL   C21020818   7.192   0.594   2.392  0.2109  0.3731 -0.0274
   65MOL   C21120819   7.249   0.728   2.453 -0.5486  0.2348  0.2655
   65MOL   C21220820   7.296   0.522   2.302 -0.0827 -0.5389 -0.3814
   65MOL   C21320821   7.243   0.382   2.263 -0.3137 -0.4017  0.1048
   65MOL   C21420822   7.231   0.282   2.372  0.6530 -0.2595  0.5835
   65MOL   C21520823   7.206   0.357   2.135 -0.9503 -0.1041  0.3836
   65MOL   H21620824   7.177   0.530   2.479 -0.3828 -0.5101 -0.7669
   65MOL   H21720825   7.298   0.704   2.548 -1.6456 -0.0977  0.7546
   65MOL   H21820826   7.179   0.811   2.470 -0.6432  0.1002  0.5414
   65MOL   H21920827   7.327   0.770   2.390  0.2147 -1.1012  0.3186
   65MOL   H22020828   7.295   0.573   2.206 -0.5866 -0.4872 -0.3493
   65MOL   H22120829   7.166   0.200   2.343  2.1132 -0.4444 -2.3906
   65MOL   H22220830   7.180   0.326   2.457  3.2496 -1.3023  2.7702
   65MOL   H22320831   7.332   0.250   2.398  0.7003 -1.4602 -0.9966
   65MOL   H22420832   7.212   0.426   2.052  1.0169 -0.1042  0.5065
   65MOL   H22520833   7.167   0.257   2.119  0.1659 -0.3900 -0.6068
   65MOL   C22620834   7.452   0.521   2.343  0.3620  0.1657 -0.2513
   65MOL   C22720835   7.479   0.487   2.490 -0.7552  0.0551  0.1197
   65MOL   C22820836   7.546   0.632   2.291 -0.6476 -0.2053  0.4713
   65MOL   C22920837   7.516   0.687   2.147 -0.2894  1.1306  0.3745
   65MOL   C23020838   7.509   0.584   2.033 -0.3807 -0.2353 -0.1841
   65MOL   C23120839   7.485   0.813   2.123 -0.4084 -0.1535  0.7673
   65MOL   H23220840   7.483   0.439   2.279 -1.8471  0.6308 -1.9708
   65MOL   H23320841   7.404   0.434   2.548 -1.8558  0.4003 -0.9577
   65MOL   H23420842   7.502   0.583   2.537  2.5768  1.1018 -3.3323
   65MOL   H23520843   7.569   0.426   2.503 -1.0725  0.2853  4.0238
   65MOL   H23620844   7.539   0.713   2.363 -1.8805 -0.0962  0.2313
   65MOL   H23720845   7.436   0.613   1.957  1.7050  4.6817 -0.5096
   65MOL   H23820846   7.474   0.486   2.065 -0.1710 -0.1669  0.2494
   65MOL   H23920847   7.608   0.564   1.992 -0.1590 -0.6203  0.5326
   65MOL   H24020848   7.470   0.892   2.195 -3.1452  0.2005 -0.1042
   65MOL   H24120849   7.473   0.832   2.017 -0.8226 -0.5994  0.7313
   65MOL   C24220850   7.705   0.599   2.308 -0.0005  0.1990  1.0290
   65MOL   C24320851   7.740   0.451   2.271 -0.5129 -0.2980 -0.3464
   65MOL   C24420852   7.781   0.666   2.433  0.5992  0.4829 -0.3325
   65MOL   C24520853   7.755   0.823   2.442  0.2150 -0.5834 -0.1532
   65MOL   C24620854   7.701   0.867   2.577  0.4473 -0.0067  0.0047
   65MOL   C24720855   7.771   0.909   2.336  0.1918 -0.2610  0.2574
   65MOL   H24820856   7.754   0.646   2.222  1.5619 -0.8920  1.3152
   65MOL   H24920857   7.693   0.402   2.185  1.5363 -0.2151 -1.5415
   65MOL   H25020858   7.717   0.386   2.355  0.3702  0.5476  0.5467
   65MOL   H25120859   7.848   0.444   2.256 -0.0574  1.9025  1.7531
   65MOL   H25220860   7.726   0.628   2.519 -2.2735  2.0222 -1.4006
   65MOL   H25320861   7.680   0.973   2.560 -0.4061 -0.1697  0.0264
   65MOL   H25420862   7.774   0.850   2.655 -1.6644 -1.1376  1.7768
   65MOL   H25520863   7.608   0.813   2.595 -0.2433  0.8624 -0.8998
   65MOL   H25620864   7.810   0.883   2.239 -1.4307 -2.3720  0.1176
   65MOL   H25720865   7.732   1.009   2.353  0.5555 -0.3987  1.9433
   65MOL   C25820866   0.038   0.631   2.458 -0.1457  0.1177  0.5927
   65MOL   C25920867   0.119   0.639   2.323  0.4557 -0.1253  0.3678
   65MOL   C26020868   0.055   0.497   2.542  0.2923 -0.1045 -0.8016
   65MOL   C26120869   0.002   0.512   2.687  0.1608  0.1102 -0.4386
   65MOL   C26220870   7.808   0.405   2.748 -0.3391 -0.9450  0.5163
   65MOL   C26320871   7.889   0.631   2.755  0.0607 -0.9308  0.7424
   65MOL   H26420872   0.084   0.712   2.515  2.1237  0.4122 -1.5526
   65MOL   H26520873   0.219   0.681   2.335  0.2376  1.1088 -1.8240
   65MOL   H26620874   0.069   0.710   2.257  0.2956  0.2748  0.9193
   65MOL   H26720875   0.130   0.545   2.268 -1.6917  1.4310 -2.8398
   65MOL   H26820876   7.883   0.421   2.497 -0.8452  1.1403 -1.2939
   65MOL   H26920877   7.868   0.314   2.742  1.3116  0.2167 -1.2014
   65MOL   H27020878   7.724   0.388   2.681  0.1058 -3.5724  0.5915
   65MOL   H27120879   7.768   0.432   2.846  1.6906 -1.1792  1.4489
   65MOL   H27220880   0.046   0.717   2.714 -1.4327 -0.7383 -0.7154
   65MOL   H27320881   7.846   0.651   2.852 -2.4810  1.2807 -0.7847
   65MOL   C27420882   0.196   0.430   2.550  0.2316  0.4061 -0.6526
   65MOL   C27520883   0.297   0.536   2.592  0.1500 -0.4484  0.2884
   65MOL   C27620884   0.241   0.329   2.436 -0.7112  0.5714  0.5410
   65MOL   C27720885   0.140   0.220   2.400  0.3739  0.4547 -0.3644
   65MOL   C27820886   0.119   0.179   2.253 -0.7652  0.1827 -0.0080
   65MOL   C27920887   0.062   0.162   2.494  0.1900 -0.1344 -1.0151
   65MOL   H28020888   0.195   0.358   2.631 -1.9789 -1.4383 -2.2509
   65MOL   H28120889   0.249   0.602   2.665  1.4048  0.3541  0.3978
   65MOL   H28220890   0.333   0.598   2.510  0.3263 -1.6557 -0.5470
   65MOL   H28320891   0.379   0.497   2.652 -0.1169 -0.4340  0.6647
   65MOL   H28420892   0.235   0.388   2.345 -1.4576 -3.3148 -2.0367
   65MOL   H28520893   0.056   0.093   2.232  0.6416 -0.2038 -2.9249
   65MOL   H28620894   0.222   0.168   2.218 -0.9421  2.5351 -1.3457
   65MOL   H28720895   0.075   0.264   2.201 -0.3108  0.4163 -0.0203
   65MOL   H28820896   0.060   0.196   2.597 -0.2927 -2.1361 -0.3517
   65MOL   H28920897   7.891   0.077   2.479 -0.4364  0.1650 -0.0911
   65MOL   C29020898   0.394   0.273   2.447  0.8505  0.1984 -0.6878
   65MOL   C29120899   0.426   0.208   2.585  0.1500 -0.3497  0.2375
   65MOL   C29220900   0.512   0.372   2.412 -0.0442 -0.3808 -0.2961
   65MOL   C29320901   0.488   0.433   2.271  0.4009 -0.0398  0.2680
   65MOL   C29420902   0.493   0.342   2.158  0.6347  0.2438 -0.4850
   65MOL   C29520903   0.485   0.567   2.248  0.1970 -0.1837 -0.3389
   65MOL   H29620904   0.391   0.187   2.380 -1.2985 -0.8114  0.6694
   65MOL   H29720905   0.424   0.281   2.665  0.6262 -1.2812  1.1026
   65MOL   H29820906   0.518   0.151   2.596  0.6815  0.7117  1.3168
   65MOL   H29920907   0.348   0.137   2.613 -0.1970  0.7475  2.1133
   65MOL   H30020908   0.502   0.457   2.480 -0.7338  1.6752 -2.8637
   65MOL   H30120909   0.416   0.265   2.159  1.2649 -0.3731  1.6398
   65MOL   H30220910   0.590   0.293   2.165 -0.2902 -1.7723 -1.5449
   65MOL   H30320911   0.498   0.395   2.062  0.5498 -0.8701 -1.1134
   65MOL   H30420912   0.480   0.640   2.327  0.5245  2.4446 -2.6870
   65MOL   H30520913   0.479   0.606   2.148 -2.9206 -1.5220 -0.7168
   65MOL   C30620914   0.653   0.327   2.444 -0.2029  0.6130  0.2553
   65MOL   C30720915   0.762   0.432   2.418 -0.0859 -0.3144 -0.0895
   65MOL   C30820916   0.707   0.189   2.376  0.1640 -1.2174 -0.5860
   65MOL   C30920917   0.820   0.120   2.437 -0.0915 -0.6351  0.7148
   65MOL   C31020918   0.885   0.021   2.340 -0.1731  0.9819  0.0757
   65MOL   C31120919   0.854   0.127   2.565  0.0558 -0.0057  0.4637
   65MOL   H31220920   0.650   0.308   2.552 -0.9602  0.9294  0.2892
   65MOL   H31320921   0.763   0.468   2.316  1.1889 -0.4740 -0.1415
   65MOL   H31420922   0.860   0.393   2.448  0.1533  0.7427  0.5212
   65MOL   H31520923   0.752   0.527   2.471 -1.0305 -0.2687 -0.3464
   65MOL   H31620924   0.627   0.115   2.368 -1.7484  0.2866  3.1226
   65MOL   H31720925   0.887   0.062   2.239  0.0065  2.3776  0.6320
   65MOL   H31820926   0.826   7.822   2.343  2.2716 -0.6378 -0.1992
   65MOL   H31920927   0.986   7.887   2.371 -0.8018 -1.7979 -0.1235
   65MOL   H32020928   0.812   0.201   2.632 -0.2955 -0.6801  0.9947
   65MOL   H32120929   0.932   0.073   2.616  0.8845 -0.1444 -0.9314
   65MOL   H32220930   0.729   0.219   2.274 -1.7930 -2.2857 -1.3631
   66MOL     C120931   6.375   7.045   7.351  0.4015  0.2788 -1.0049
   66MOL     C220932   6.520   7.037   7.401  0.3273  0.3100  0.2064
   66MOL     C320933   6.362   7.105   7.204 -0.7984 -0.7129 -0.7015
   66MOL     C420934   6.397   7.255   7.195 -0.3454  0.5061 -0.2560
   66MOL     C520935   6.421   7.316   7.061  0.2594 -0.2656  0.7312
   66MOL     C620936   6.425   7.336   7.303 -0.3742 -0.6650 -1.0185
   66MOL     H720937   6.326   6.948   7.354 -0.3739  0.6969  0.5764
   66MOL     H820938   6.570   7.133   7.414  1.1133 -0.1041  0.2221
   66MOL     H920939   6.586   6.988   7.329 -0.6678 -0.0712 -0.4563
   66MOL    H1020940   6.524   6.983   7.496 -1.8545  0.9834  0.7159
   66MOL    H1120941   6.428   7.044   7.142 -1.2427  1.0576 -2.9758
   66MOL    H1220942   6.480   7.255   6.991 -1.5981 -1.3145  0.0358
   66MOL    H1320943   6.479   7.406   7.082 -2.0698  0.8646  2.4205
   66MOL    H1420944   6.328   7.360   7.025 -0.9391 -2.5833  0.9183
   66MOL    H1520945   6.419   7.307   7.407  1.1512  0.7603 -0.5183
   66MOL    H1620946   6.452   7.440   7.296  0.7133 -0.7792  0.9914
   66MOL    H1720947   6.313   7.101   7.422  2.8028  2.2930 -0.3920
   66MOL    C1820948   6.233   7.066   7.123 -1.2094  0.0646  0.5162
   66MOL    C1920949   6.104   7.084   7.208 -0.3147  0.3380  0.2132
   66MOL    C2020950   6.242   6.930   7.048  0.2387 -0.2280 -0.2894
   66MOL    C2120951   6.273   6.798   7.120  0.5500 -0.1226  1.3379
   66MOL    C2220952   6.420   6.755   7.134 -0.6248  0.0669  0.1761
   66MOL    C2320953   6.175   6.723   7.173 -0.3661  0.3574  0.3004
   66MOL    H2420954   6.229   7.144   7.047 -1.3009  0.7673  1.2291
   66MOL    H2520955   6.018   7.110   7.147 -0.4592 -0.5114  0.0492
   66MOL    H2620956   6.116   7.152   7.292  0.1325  0.2674  0.2106
   66MOL    H2720957   6.087   7.002   7.277  2.5846 -1.0232 -0.6059
   66MOL    H2820958   6.135   6.912   7.034  0.0945  0.1405  0.3250
   66MOL    H2920959   6.484   6.817   7.197 -0.1713 -0.7313  0.5189
   66MOL    H3020960   6.474   6.739   7.041 -1.4787  0.2811 -0.3577
   66MOL    H3120961   6.428   6.653   7.172  0.7097 -0.0672 -0.4394
   66MOL    H3220962   6.069   6.742   7.166 -0.4056 -0.6984 -2.4655
   66MOL    H3320963   6.208   6.633   7.223  1.6305  1.4600  1.0480
   66MOL    C3420964   6.281   6.941   6.892  0.0387  0.1053 -0.4879
   66MOL    C3520965   6.421   6.995   6.865 -0.2424 -0.5283 -0.1576
   66MOL    C3620966   6.171   7.001   6.803  0.3620  0.2827  0.0090
   66MOL    C3720967   6.020   6.961   6.833  0.6163  0.0686  0.8782
   66MOL    C3820968   5.986   6.816   6.832  0.1748  0.1450 -0.1242
   66MOL    C3920969   5.927   7.055   6.862 -0.3809  0.5211  0.2793
   66MOL    H4020970   6.289   6.834   6.870 -1.3033  0.3468 -2.2789
   66MOL    H4120971   6.483   6.982   6.954 -3.3094 -1.6906  1.8885
   66MOL    H4220972   6.415   7.102   6.842 -0.2940 -0.2910  0.9472
   66MOL    H4320973   6.479   6.946   6.787  0.2164  0.7313 -0.6333
   66MOL    H4420974   6.169   7.105   6.835  0.4702 -0.2858  1.9157
   66MOL    H4520975   5.975   6.771   6.734 -1.7939  1.2605 -0.4370
   66MOL    H4620976   5.894   6.804   6.890  0.3100 -2.8825 -0.4755
   66MOL    H4720977   6.069   6.763   6.879 -0.5197 -0.9407 -0.1011
   66MOL    H4820978   5.948   7.161   6.863 -1.1989  0.7079 -1.1401
   66MOL    H4920979   5.823   7.031   6.880 -0.4105  0.4606  0.0197
   66MOL    C5020980   6.191   6.993   6.655 -0.5615 -0.2105 -0.4850
   66MOL    C5120981   6.239   6.857   6.605 -0.1683 -0.4530 -0.1219
   66MOL    C5220982   6.272   7.119   6.592 -0.1941 -0.2208  0.0861
   66MOL    C5320983   6.221   7.256   6.643 -0.3593  0.9217 -0.2718
   66MOL    C5420984   6.082   7.302   6.601  0.1751 -0.0901 -0.1516
   66MOL    C5520985   6.301   7.332   6.727 -0.9494  0.4915 -1.4310
   66MOL    H5620986   6.091   7.012   6.616  0.3720  1.2983 -2.2119
   66MOL    H5720987   6.226   6.852   6.497 -2.3412 -0.4472  0.1161
   66MOL    H5820988   6.180   6.779   6.653 -0.1356  0.0230  0.7165
   66MOL    H5920989   6.344   6.841   6.628 -0.3255 -0.2077  0.7859
   66MOL    H6020990   6.368   7.103   6.641  0.8851  0.6470 -1.6882
   66MOL    H6120991   6.056   7.300   6.496  0.1829 -1.2674 -0.1415
   66MOL    H6220992   6.077   7.407   6.629 -0.6248  0.0256 -0.7179
   66MOL    H6320993   6.001   7.262   6.662 -0.1109  0.4586 -0.1652
   66MOL    H6420994   6.399   7.301   6.760 -1.4587  1.5552  1.1851
   66MOL    H6520995   6.286   7.429   6.772 -0.7390 -0.9541  1.9638
   66MOL    C6620996   6.305   7.113   6.434  0.5374 -0.0542 -0.2766
   66MOL    C6720997   6.184   7.075   6.347 -0.1467  0.3843  0.4993
   66MOL    C6820998   6.439   7.040   6.403  0.3212 -0.2641  0.2279
   66MOL    C6920999   6.554   7.100   6.484 -0.1115  0.5864  0.1045
   66MOL    C7021000   6.645   6.998   6.543  0.2029 -0.0131  0.1894
   66MOL    C7121001   6.579   7.231   6.501  0.0858  0.0728 -0.0255
   66MOL    H7221002   6.319   7.216   6.404 -0.9098  0.3090  0.2968
   66MOL    H7321003   6.207   7.093   6.242 -0.3378 -2.3305 -0.0451
   66MOL    H7421004   6.099   7.124   6.395 -0.6725  0.4358 -0.4664
   66MOL    H7521005   6.153   6.972   6.363  0.5718  0.3877  1.9269
   66MOL    H7621006   6.432   6.939   6.444  0.4997  0.6312  2.5697
   66MOL    H7721007   6.703   6.947   6.467 -0.2973 -2.2183  1.2468
   66MOL    H7821008   6.592   6.917   6.593 -1.8170  1.1716  0.0412
   66MOL    H7921009   6.730   7.033   6.601  0.8974 -2.0265  0.4194
   66MOL    H8021010   6.521   7.316   6.469  1.9442  0.4138 -2.6651
   66MOL    H8121011   6.667   7.262   6.556 -2.4760  1.2129  3.6378
   66MOL    C8221012   6.472   7.032   6.253 -0.4617 -0.2124  0.6103
   66MOL    C8321013   6.473   7.169   6.183  0.3561 -0.3502  0.0304
   66MOL    C8421014   6.423   6.913   6.168  0.3706  0.0226 -0.3750
   66MOL    C8521015   6.406   6.783   6.244 -0.0887  0.0791  0.7056
   66MOL    C8621016   6.531   6.720   6.310 -0.5977  0.2567 -0.1133
   66MOL    C8721017   6.286   6.726   6.265  0.0460  0.0456 -0.2347
   66MOL    H8821018   6.579   7.015   6.263 -0.6392 -0.5674  2.0442
   66MOL    H8921019   6.372   7.210   6.177  0.8639  0.8161 -0.7649
   66MOL    H9021020   6.526   7.178   6.088 -0.6075 -0.5037 -0.5357
   66MOL    H9121021   6.526   7.244   6.242  2.6910  0.0867 -2.5047
   66MOL    H9221022   6.321   6.947   6.150 -0.9264 -3.9088 -0.9492
   66MOL    H9321023   6.590   6.673   6.230  1.0144  0.2275  1.0521
   66MOL    H9421024   6.512   6.656   6.396 -0.6585  2.7751  1.7908
   66MOL    H9521025   6.600   6.798   6.340  1.7327 -1.8049  0.0817
   66MOL    H9621026   6.197   6.755   6.211  0.9514  0.7046 -1.3979
   66MOL    H9721027   6.280   6.640   6.330  0.3174  0.1505 -0.0688
   66MOL    C9821028   6.462   6.882   6.017  0.0152  0.0210  0.3145
   66MOL    C9921029   6.618   6.871   6.004 -0.5913 -0.0305  0.3594
   66MOL   C10021030   6.405   6.976   5.898  0.2439  0.0732  0.2291
   66MOL   C10121031   6.253   7.007   5.910 -0.6051  0.2693  0.1143
   66MOL   C10221032   6.206   7.154   5.901  0.1572  0.3282  0.1992
   66MOL   C10321033   6.165   6.914   5.937  0.0765  0.4132 -0.2543
   66MOL   H10421034   6.419   6.784   5.993  3.0037 -0.7473 -2.1926
   66MOL   H10521035   6.681   6.959   5.990  0.6241 -0.4860  2.5961
   66MOL   H10621036   6.641   6.794   5.931  0.4549  1.1984 -0.6367
   66MOL   H10721037   6.663   6.834   6.097  0.6035 -0.1306 -0.2542
   66MOL   H10821038   6.456   7.073   5.904 -1.0946  0.7683  0.5678
   66MOL   H10921039   6.203   7.182   5.795 -2.6387 -1.7800 -0.3338
   66MOL   H11021040   6.269   7.227   5.953 -0.4836 -0.8678  2.6844
   66MOL   H11121041   6.106   7.163   5.944 -0.6677  1.6286 -1.8909
   66MOL   H11221042   6.202   6.814   5.957 -1.3792 -0.2383 -0.7573
   66MOL   H11321043   6.060   6.933   5.952 -0.0783 -0.6297  0.0479
   66MOL   C11421044   6.444   6.937   5.747  0.2246 -0.1321 -0.6864
   66MOL   C11521045   6.399   6.790   5.719 -0.1321  0.3683  0.5064
   66MOL   C11621046   6.593   6.966   5.696 -0.3577  0.1777 -0.0851
   66MOL   C11721047   6.637   7.106   5.729 -0.4609 -0.1713 -0.1257
   66MOL   C11821048   6.549   7.216   5.671  0.8475  0.0419  0.0551
   66MOL   C11921049   6.741   7.140   5.807 -0.0254  0.0198  0.2034
   66MOL   H12021050   6.375   6.995   5.686  0.1749  1.1757  0.5867
   66MOL   H12121051   6.297   6.769   5.749 -0.2705 -0.2123 -0.3888
   66MOL   H12221052   6.455   6.708   5.764 -0.0034  0.3455  0.3027
   66MOL   H12321053   6.387   6.771   5.613  2.6286 -0.1540  0.2540
   66MOL   H12421054   6.657   6.897   5.752 -1.6927 -0.3044  0.8614
   66MOL   H12521055   6.453   7.220   5.723 -0.2233  1.2757 -1.9619
   66MOL   H12621056   6.533   7.194   5.566  0.6622  3.2127 -0.6314
   66MOL   H12721057   6.593   7.314   5.691  0.7977 -0.0330  0.5483
   66MOL   H12821058   6.809   7.059   5.830  0.0675 -0.5216 -1.8704
   66MOL   H12921059   6.771   7.240   5.834 -1.6235  0.3320  0.8748
   66MOL   C13021060   6.637   6.934   5.545 -0.3345 -0.1648 -0.2657
   66MOL   C13121061   6.545   6.855   5.446 -0.2381  0.1370  0.2320
   66MOL   C13221062   6.782   6.884   5.524 -0.2028  0.6762 -0.0549
   66MOL   C13321063   6.847   6.964   5.414 -0.7181 -0.5580 -0.4025
   66MOL   C13421064   6.942   7.075   5.463  0.3407 -0.3088 -0.8963
   66MOL   C13521065   6.831   6.935   5.285  0.0301 -0.6482 -0.1470
   66MOL   H13621066   6.619   7.026   5.489 -1.4641  0.2547  0.7721
   66MOL   H13721067   6.440   6.883   5.459  0.9297  4.5090  0.8436
   66MOL   H13821068   6.540   6.750   5.476  1.0148  0.1657  0.5648
   66MOL   H13921069   6.574   6.855   5.341 -0.0873  1.4021  0.2605
   66MOL   H14021070   6.830   6.923   5.613 -0.3443 -1.0029  0.7757
   66MOL   H14121071   6.991   7.104   5.369  0.1731  2.1737 -0.2571
   66MOL   H14221072   7.012   7.041   5.539  2.0367 -0.3003 -2.4198
   66MOL   H14321073   6.887   7.162   5.499  1.2199 -0.1635  0.1194
   66MOL   H14421074   6.775   6.847   5.259  3.1572 -3.5293  2.2275
   66MOL   H14521075   6.878   6.992   5.207  0.8672 -0.5349  0.4274
   66MOL   C14621076   6.811   6.728   5.523 -0.2266  0.3066 -0.7155
   66MOL   C14721077   6.735   6.642   5.631  0.1171 -1.0050 -0.4108
   66MOL   C14821078   6.961   6.689   5.521  0.2741 -0.2169 -0.6813
   66MOL   C14921079   6.986   6.564   5.436  0.2394  0.1440  0.3707
   66MOL   C15021080   6.965   6.425   5.492 -0.5027 -0.1898  0.2173
   66MOL   C15121081   7.023   6.577   5.304  0.4896  0.5978  0.4128
   66MOL   H15221082   6.769   6.690   5.430 -0.0662 -1.7709  0.0236
   66MOL   H15321083   6.730   6.538   5.600  0.2474 -0.2724 -2.9808
   66MOL   H15421084   6.630   6.669   5.639  0.9254  2.4272 -0.7534
   66MOL   H15521085   6.776   6.651   5.732 -1.6769  1.3434  0.1511
   66MOL   H15621086   7.019   6.766   5.470  0.5465  0.2572  0.3435
   66MOL   H15721087   7.064   6.383   5.510 -0.7584 -0.5155  0.8600
   66MOL   H15821088   6.894   6.370   5.431  0.5182 -1.7462  0.3979
   66MOL   H15921089   6.913   6.435   5.587  0.3644  0.6691  0.6068
   66MOL   H16021090   7.026   6.672   5.252 -1.3485  0.6014  0.2973
   66MOL   H16121091   7.039   6.494   5.237 -2.1378  0.8330 -0.5506
   66MOL   C16221092   7.032   6.684   5.662  0.1380  0.1526 -1.0862
   66MOL   C16321093   7.000   6.794   5.771  0.2277 -0.2319  0.2169
   66MOL   C16421094   7.183   6.644   5.668  0.4402  0.4290 -0.0433
   66MOL   C16521095   7.227   6.577   5.802 -0.3081 -0.4067 -0.2395
   66MOL   C16621096   7.213   6.427   5.812 -0.3859  0.7158 -0.6434
   66MOL   C16721097   7.279   6.645   5.904 -0.8438  0.7597  0.1750
   66MOL   H16821098   6.988   6.594   5.705  2.0122 -1.7579 -3.0872
   66MOL   H16921099   7.066   6.800   5.857  0.0277 -0.2823  0.3738
   66MOL   H17021100   6.902   6.783   5.818 -0.2340  0.6662 -0.5023
   66MOL   H17121101   6.995   6.894   5.727 -0.6426  0.0524  0.9506
   66MOL   H17221102   7.185   6.554   5.607  0.1911  0.6696 -0.4106
   66MOL   H17321103   7.116   6.391   5.779 -0.6857 -1.0769  2.0589
   66MOL   H17421104   7.239   6.388   5.911  1.5527 -0.8503 -1.7296
   66MOL   H17521105   7.272   6.382   5.732 -0.7933 -0.3625 -0.3446
   66MOL   H17621106   7.273   6.753   5.899 -0.7414  0.9023  2.3517
   66MOL   H17721107   7.326   6.599   5.990  1.0182  0.0975 -1.1772
   66MOL   C17821108   7.303   6.729   5.607 -0.2490  0.3328 -0.0560
   66MOL   C17921109   7.274   6.884   5.617 -0.4330 -0.3526  0.1223
   66MOL   C18021110   7.352   6.673   5.466 -0.0839  0.0630  0.9081
   66MOL   C18121111   7.398   6.528   5.476 -0.6250 -0.5477  0.3424
   66MOL   C18221112   7.517   6.497   5.565 -0.3981  0.0630  0.2443
   66MOL   C18321113   7.340   6.430   5.405 -0.3857 -0.4271 -0.2312
   66MOL   H18421114   7.391   6.723   5.672  0.1831  0.6498 -0.6045
   66MOL   H18521115   7.205   6.904   5.535 -0.4255 -1.4900 -0.1743
   66MOL   H18621116   7.367   6.939   5.603  1.1609 -2.8911  0.3943
   66MOL   H18721117   7.233   6.899   5.717 -1.9883  0.6006 -0.6481
   66MOL   H18821118   7.261   6.680   5.406 -0.9290  1.2354  2.2903
   66MOL   H18921119   7.483   6.522   5.665 -2.5102 -0.2578 -0.3656
   66MOL   H19021120   7.612   6.545   5.544 -1.5822  1.9880 -0.9621
   66MOL   H19121121   7.539   6.391   5.557  0.3379  0.2212  0.1950
   66MOL   H19221122   7.260   6.438   5.333 -0.4578  0.0069 -0.1062
   66MOL   H19321123   7.365   6.326   5.417 -0.5291 -0.3445  0.7793
   66MOL   C19421124   7.454   6.760   5.380  0.4976 -0.7801  0.1459
   66MOL   C19521125   7.567   6.826   5.464  0.3279  0.4142 -0.1620
   66MOL   C19621126   7.390   6.856   5.267  0.4499  0.2650  0.1752
   66MOL   C19721127   7.293   6.786   5.168  0.4223  0.0398  0.0804
   66MOL   C19821128   7.328   6.653   5.105 -0.9927 -0.2292  0.0133
   66MOL   C19921129   7.170   6.838   5.139 -0.4478  0.0366  0.2489
   66MOL   H20021130   7.501   6.683   5.320 -1.9246 -2.5098  0.4050
   66MOL   H20121131   7.667   6.832   5.422  1.5937 -1.6141  2.3998
   66MOL   H20221132   7.568   6.763   5.553  2.0020 -2.4324 -2.1309
   66MOL   H20321133   7.529   6.926   5.484  1.0693  0.4123  1.3343
   66MOL   H20421134   7.324   6.923   5.322 -1.7980 -1.8990  0.2393
   66MOL   H20521135   7.251   6.624   5.034  0.3336 -0.6476 -1.2862
   66MOL   H20621136   7.356   6.580   5.180  2.1955  1.9813  1.0593
   66MOL   H20721137   7.416   6.668   5.042 -0.7307 -3.3896 -0.4398
   66MOL   H20821138   7.130   6.923   5.191 -1.2871  0.2123 -0.6742
   66MOL   H20921139   7.111   6.794   5.060  0.4326 -0.1158 -0.3296
   66MOL   C21021140   7.484   6.946   5.184 -0.2697 -0.1532 -0.0796
   66MOL   C21121141   7.609   6.872   5.128  0.1252 -0.2578  0.1444
   66MOL   C21221142   7.537   7.083   5.249 -0.2287  0.1319 -0.4295
   66MOL   C21321143   7.424   7.166   5.320 -0.7403  0.1047  0.5288
   66MOL   C21421144   7.296   7.202   5.248  0.2610  0.0435  0.1392
   66MOL   C21521145   7.438   7.195   5.451  0.2592  0.7306 -0.4578
   66MOL   H21621146   7.426   6.965   5.093 -0.0742 -0.2886 -0.2346
   66MOL   H21721147   7.652   6.920   5.041  0.6029 -1.4636 -0.3052
   66MOL   H21821148   7.592   6.764   5.119  1.6970 -0.4646 -0.5861
   66MOL   H21921149   7.695   6.871   5.196 -1.2564  1.1450  1.9701
   66MOL   H22021150   7.614   7.068   5.324  0.0989  0.1454 -0.7587
   66MOL   H22121151   7.257   7.116   5.193 -1.2543 -0.3067  1.6891
   66MOL   H22221152   7.308   7.287   5.181  0.4667 -0.5194 -0.5496
   66MOL   H22321153   7.225   7.225   5.328  0.3287 -0.4081  0.3296
   66MOL   H22421154   7.522   7.167   5.513 -0.7751 -1.5031 -0.0408
   66MOL   H22521155   7.355   7.244   5.500  0.1052 -2.3540  2.5580
   66MOL   C22621156   7.613   7.187   5.154  0.4521 -0.1456 -0.1850
   66MOL   C22721157   7.538   7.187   5.016  0.0371 -0.1206 -0.2904
   66MOL   C22821158   7.767   7.171   5.160 -0.1620 -0.1609 -0.2821
   66MOL   C22921159   7.833   7.166   5.300  0.2796  0.1943 -0.6499
   66MOL   C23021160   0.052   7.061   5.318  0.3516 -0.1279  0.0381
   66MOL   C23121161   7.798   7.241   5.404  0.8130 -0.0075  0.4262
   66MOL   H23221162   7.577   7.279   5.201 -1.1993 -0.4166 -0.8829
   66MOL   H23321163   7.429   7.193   5.025  0.0701  0.9141 -0.5259
   66MOL   H23421164   7.570   7.105   4.952 -0.0757 -0.7453  0.4571
   66MOL   H23521165   7.559   7.277   4.957  3.1781  0.1000  1.0638
   66MOL   H23621166   7.774   7.069   5.125  2.7729 -0.6188  1.4733
   66MOL   H23721167   0.041   6.980   5.247 -0.7855 -0.0023  0.0587
   66MOL   H23821168   0.057   7.018   5.418 -1.4543 -0.6582 -0.0860
   66MOL   H23921169   0.147   7.106   5.290 -0.5410  1.1181 -1.1314
   66MOL   H24021170   7.726   7.321   5.396  1.3503  0.3659 -0.7519
   66MOL   H24121171   7.843   7.220   5.500  0.6839 -0.5248  0.3758
   66MOL   C24221172   7.856   7.258   5.061  0.6248 -0.3881  0.3776
   66MOL   C24321173   7.816   7.403   5.083  0.1227  0.9962  0.7053
   66MOL   C24421174   7.851   7.208   4.915 -0.3199 -0.0679 -0.2889
   66MOL   C24521175   0.011   7.060   4.891 -0.8944 -0.3843 -0.4229
   66MOL   C24621176   0.139   7.017   4.960 -0.0286  0.0184 -0.3065
   66MOL   C24721177   7.828   6.966   4.830  0.1137 -0.1156  0.2244
   66MOL   H24821178   0.066   7.253   5.098  0.7878 -0.2452 -0.0432
   66MOL   H24921179   7.882   7.488   5.068  0.7330  0.5305  0.7541
   66MOL   H25021180   7.787   7.430   5.184 -0.5438  0.2398  0.7180
   66MOL   H25121181   7.725   7.419   5.025  0.5186 -2.0804 -0.8392
   66MOL   H25221182   7.746   7.215   4.888 -0.8656  0.0860  1.7923
   66MOL   H25321183   0.120   6.933   5.028 -0.7215 -0.1522 -0.7012
   66MOL   H25421184   0.185   7.094   5.022  0.8378  0.2592 -1.2471
   66MOL   H25521185   0.206   6.992   4.878 -2.3762 -0.6120 -2.0930
   66MOL   H25621186   7.733   6.988   4.783  0.8094  2.4889 -0.0181
   66MOL   H25721187   7.858   6.863   4.817  0.8070  0.4404 -3.0935
   66MOL   C25821188   0.026   7.299   4.810  0.9079  0.4790 -0.1778
   66MOL   C25921189   0.174   7.332   4.846  0.4339  0.3159  0.5351
   66MOL   C26021190   7.832   7.422   4.764 -0.5740 -0.2607  0.3051
   66MOL   C26121191   7.704   7.383   4.695 -0.1934  0.7345  0.8578
   66MOL   C26221192   7.595   7.481   4.700 -0.5514  0.0241  0.2965
   66MOL   C26321193   7.686   7.266   4.621 -0.1679 -0.3343  0.5375
   66MOL   H26421194   0.034   7.230   4.726 -0.6963  0.4008 -0.2648
   66MOL   H26521195   0.170   7.410   4.921  3.1572 -0.9939  2.1005
   66MOL   H26621196   0.236   7.360   4.761  1.0208 -1.8054  0.2377
   66MOL   H26721197   0.220   7.247   4.897 -0.1684  1.3114  2.7766
   66MOL   H26821198   7.809   7.483   4.852 -1.4298 -1.0205  0.6100
   66MOL   H26921199   7.627   7.566   4.640 -1.5877 -0.1751 -0.5436
   66MOL   H27021200   7.580   7.507   4.805  0.6503  0.0246  0.4714
   66MOL   H27121201   7.503   7.441   4.658 -1.8161 -0.2231  3.1428
   66MOL   H27221202   7.761   7.191   4.597 -0.5059 -0.1156 -1.2500
   66MOL   H27321203   7.593   7.235   4.577 -0.8981  2.2555  0.2035
   66MOL   C27421204   0.015   7.523   4.665 -0.2994  0.5718 -0.7662
   66MOL   C27521205   0.067   7.448   4.536  0.3929 -0.4588 -1.1336
   66MOL   C27621206   0.104   7.633   4.729  0.2513  0.6927 -0.9404
   66MOL   C27721207   0.042   7.713   4.836  0.3841 -0.9254 -0.7604
   66MOL   C27821208   7.805   7.774   4.815 -0.1977  0.9072 -0.4039
   66MOL   C27921209   0.096   7.735   4.956 -0.0467 -0.3076 -0.1952
   66MOL   H28021210   7.835   7.584   4.611 -3.0596 -0.8887  1.2002
   66MOL   H28121211   7.880   7.389   4.489 -0.1344 -0.3693 -0.3715
   66MOL   H28221212   0.161   7.395   4.549  2.9052  3.6991 -1.2601
   66MOL   H28321213   0.090   7.524   4.462  1.6328  1.0550  0.7723
   66MOL   H28421214   0.187   7.584   4.780 -0.3635  1.1523  0.5307
   66MOL   H28521215   7.755   7.763   4.911  1.5948 -0.8712  0.3641
   66MOL   H28621216   7.749   7.743   4.727 -0.7007  0.3553  0.1017
   66MOL   H28721217   7.819   7.882   4.811 -0.1177  0.8244 -3.1385
   66MOL   H28821218   0.188   7.685   4.984  0.2913  0.9381  0.9595
   66MOL   H28921219   0.059   7.792   5.040  2.1264 -0.9616  1.2846
   66MOL   C29021220   0.179   7.736   4.627 -0.0988 -0.4929  0.5475
   66MOL   C29121221   0.073   7.798   4.532 -0.0067 -0.2208  0.0403
   66MOL   C29221222   0.306   7.683   4.551  0.0093 -0.3590 -0.5376
   66MOL   C29321223   0.407   7.605   4.642  0.0815  0.7251 -0.7399
   66MOL   C29421224   0.451   7.672   4.772 -0.3453  0.8382 -0.0583
   66MOL   C29521225   0.441   7.482   4.609  0.2282  0.7154 -0.1248
   66MOL   H29621226   0.222   7.811   4.694  0.1061  0.2648 -0.4289
   66MOL   H29721227   0.102   0.008   4.509  0.9832 -0.3188  0.7779
   66MOL   H29821228   7.865   7.806   4.574  0.1495  1.0814  0.1798
   66MOL   H29921229   0.058   7.742   4.440 -3.2344  0.4096  0.1201
   66MOL   H30021230   0.279   7.620   4.466  0.4321  0.6457 -1.4250
   66MOL   H30121231   0.411   7.773   4.784 -1.0043  0.6844 -0.9135
   66MOL   H30221232   0.560   7.678   4.778 -0.5076  2.2493  2.8534
   66MOL   H30321233   0.435   7.606   4.857  2.0710  1.4694  0.9468
   66MOL   H30421234   0.410   7.440   4.514 -0.6366  1.7081 -0.2948
   66MOL   H30521235   0.494   7.419   4.679 -2.8978 -1.2389  0.6158
   66MOL   C30621236   0.377   7.789   4.456  0.2907 -0.0674  0.5665
   66MOL   C30721237   0.394   0.036   4.528 -0.2495 -0.0522  0.0616
   66MOL   C30821238   0.337   7.805   4.302 -0.2605 -0.3842 -0.7665
   66MOL   C30921239   0.357   7.675   4.218 -0.6739  0.1782  0.5721
   66MOL   C31021240   0.483   7.598   4.240  0.3687 -0.5328 -0.1358
   66MOL   C31121241   0.272   7.644   4.121 -0.4705  0.2559  0.2837
   66MOL   H31221242   0.479   7.749   4.452  0.6745  0.9240  0.2886
   66MOL   H31321243   0.300   0.085   4.555  0.1876  0.9863 -0.2723
   66MOL   H31421244   0.455   0.111   4.478 -0.3908  1.0782  1.5471
   66MOL   H31521245   0.447   0.019   4.621 -2.2582 -0.9247  1.0893
   66MOL   H31621246   0.244   7.861   4.287  0.0661  0.8315  1.5110
   66MOL   H31721247   0.567   7.659   4.206 -0.5820 -0.1908 -1.9034
   66MOL   H31821248   0.488   7.508   4.179  1.4730 -0.7276  0.2351
   66MOL   H31921249   0.506   7.558   4.339 -2.8537  0.3080  0.9941
   66MOL   H32021250   0.184   7.698   4.089  0.1858  0.7869 -0.6588
   66MOL   H32121251   0.291   7.551   4.068 -0.6082 -0.7144  1.8974
   66MOL   H32221252   0.405   7.874   4.252 -1.2208 -1.0234 -3.0534
   67MOL     C121253   1.286   3.746   4.903  0.2565  0.1314 -0.4140
   67MOL     C221254   1.162   3.663   4.946  0.2780 -0.1757  0.9066
   67MOL     C321255   1.259   3.810   4.760 -0.0692  0.1966 -0.3435
   67MOL     C421256   1.221   3.704   4.649 -0.3095 -0.5736  0.4572
   67MOL     C521257   1.331   3.620   4.596  0.7899  0.9708 -0.2672
   67MOL     C621258   1.099   3.687   4.594 -1.0714  0.2465  0.1541
   67MOL     H721259   1.298   3.829   4.973  0.8533 -0.1567 -0.1737
   67MOL     H821260   1.079   3.728   4.975  0.4817  0.0392  1.0048
   67MOL     H921261   1.195   3.597   5.026  0.6030 -0.5311  0.4806
   67MOL    H1021262   1.125   3.598   4.867 -1.7112 -0.5021  2.0476
   67MOL    H1121263   1.177   3.880   4.776 -0.9413 -1.2534  1.7647
   67MOL    H1221264   1.280   3.545   4.535  1.0539  0.7804 -0.2572
   67MOL    H1321265   1.385   3.573   4.679  2.7614 -1.1836 -2.6745
   67MOL    H1421266   1.404   3.665   4.529  0.0460  1.6631 -0.6104
   67MOL    H1521267   1.018   3.753   4.623 -2.6612 -0.6295 -2.1303
   67MOL    H1621268   1.073   3.611   4.522  0.5331 -0.3692  0.2170
   67MOL    H1721269   1.378   3.689   4.907  0.9492  1.2214 -0.5394
   67MOL    C1821270   1.371   3.913   4.721  0.1232  0.1661 -0.3606
   67MOL    C1921271   1.516   3.885   4.770  0.2923 -0.0066  0.1367
   67MOL    C2021272   1.338   4.069   4.727  0.1218 -0.4594  0.2187
   67MOL    C2121273   1.329   4.113   4.876  0.0391 -0.3782 -0.5853
   67MOL    C2221274   1.458   4.177   4.928 -0.2743  0.2537  0.0987
   67MOL    C2321275   1.225   4.090   4.960  0.0437  0.2131 -0.4535
   67MOL    H2421276   1.375   3.893   4.614 -2.8190  0.3758 -0.5343
   67MOL    H2521277   1.507   3.867   4.877  1.3540 -0.0586  0.2263
   67MOL    H2621278   1.582   3.970   4.750 -0.5800  0.1896 -2.0121
   67MOL    H2721279   1.551   3.794   4.722  1.0247  1.9084 -3.1142
   67MOL    H2821280   1.423   4.130   4.695  0.4509 -0.3174  1.3311
   67MOL    H2921281   1.468   4.276   4.885 -0.8136  0.1600 -0.2360
   67MOL    H3021282   1.548   4.116   4.925 -0.2569  0.3826 -3.6689
   67MOL    H3121283   1.459   4.199   5.035  2.9380  1.1235 -0.0667
   67MOL    H3221284   1.139   4.034   4.926  0.1766 -1.6325  2.0549
   67MOL    H3321285   1.217   4.108   5.067 -0.2339 -2.9426  0.1131
   67MOL    C3421286   1.219   4.113   4.639 -0.6260  0.2603 -0.8714
   67MOL    C3521287   1.210   4.043   4.502 -0.5903 -0.3663 -0.2964
   67MOL    C3621288   1.205   4.265   4.639 -0.6078  0.2324 -0.0349
   67MOL    C3721289   1.054   4.302   4.661  0.0403  0.6890 -0.0369
   67MOL    C3821290   0.949   4.279   4.552  0.5716 -0.1205  0.3149
   67MOL    C3921291   1.008   4.347   4.782  0.2321 -0.5068  0.5308
   67MOL    H4021292   1.130   4.079   4.693 -0.1609 -0.4870 -0.5827
   67MOL    H4121293   1.175   3.940   4.502 -0.3236 -0.4668 -1.6313
   67MOL    H4221294   1.290   4.064   4.430 -2.1277 -1.9105 -2.4955
   67MOL    H4321295   1.123   4.091   4.457 -0.8650  2.0810  2.6722
   67MOL    H4421296   1.248   4.310   4.728  1.6286  0.4185 -1.1746
   67MOL    H4521297   0.931   4.172   4.540 -1.5091  0.1560  0.6508
   67MOL    H4621298   0.991   4.313   4.458 -0.9990  1.9408  0.3302
   67MOL    H4721299   0.850   4.323   4.568  0.3039 -0.5251 -0.1913
   67MOL    H4821300   1.072   4.365   4.867  0.5368  0.2506  0.1470
   67MOL    H4921301   0.905   4.376   4.798  0.0121 -1.2290  0.4601
   67MOL    C5021302   1.266   4.342   4.516  0.3083  0.0154  0.9865
   67MOL    C5121303   1.421   4.336   4.514  0.3686 -0.4491 -0.1493
   67MOL    C5221304   1.207   4.486   4.481 -0.4437 -0.5458 -1.0325
   67MOL    C5321305   1.225   4.515   4.327 -0.8328  0.9074 -0.3768
   67MOL    C5421306   1.347   4.600   4.284 -0.2389 -0.1151  0.1466
   67MOL    C5521307   1.126   4.484   4.241 -0.7969  0.2073  0.4499
   67MOL    H5621308   1.245   4.285   4.426  1.5542 -2.2495  2.1052
   67MOL    H5721309   1.469   4.346   4.611  2.4070  1.2327 -1.3087
   67MOL    H5821310   1.464   4.409   4.445  1.8311 -0.9123  0.2646
   67MOL    H5921311   1.441   4.239   4.470 -0.6076 -1.2010  1.0032
   67MOL    H6021312   1.100   4.467   4.480 -0.2431 -1.7167 -2.0717
   67MOL    H6121313   1.354   4.697   4.334 -1.1059 -0.2913  0.6165
   67MOL    H6221314   1.339   4.616   4.177 -2.1953  1.2593  0.4632
   67MOL    H6321315   1.448   4.561   4.287  0.2530  1.1237  0.1914
   67MOL    H6421316   1.038   4.429   4.270 -1.6664  0.7030 -1.2019
   67MOL    H6521317   1.132   4.513   4.137 -1.3629  0.9310  0.6160
   67MOL    C6621318   1.258   4.612   4.575  0.4921  0.3072  0.1349
   67MOL    C6721319   1.271   4.569   4.717 -0.4218  0.1892 -0.0458
   67MOL    C6821320   1.163   4.736   4.581 -0.2293 -0.3489 -0.5479
   67MOL    C6921321   1.034   4.728   4.498 -0.1890  0.1454  0.0047
   67MOL    C7021322   0.910   4.672   4.556  0.2014 -0.5742  0.3401
   67MOL    C7121323   1.029   4.757   4.368  0.2263  0.5570 -0.4088
   67MOL    H7221324   1.359   4.637   4.544  0.9142 -0.5320  0.8046
   67MOL    H7321325   1.288   4.662   4.771  0.7425  0.9198 -1.6286
   67MOL    H7421326   1.360   4.506   4.723  0.5440  1.3841 -1.7239
   67MOL    H7521327   1.183   4.514   4.751  0.1764 -1.8431 -1.6609
   67MOL    H7621328   1.112   4.738   4.677  0.6776 -1.8203 -0.0197
   67MOL    H7721329   0.815   4.687   4.504 -0.3292 -1.4950  1.0290
   67MOL    H7821330   0.895   4.717   4.655  0.8322  0.6187 -0.0910
   67MOL    H7921331   0.926   4.566   4.570 -1.3439 -1.1127 -1.7377
   67MOL    H8021332   1.111   4.793   4.306  1.0546 -0.5324  0.0522
   67MOL    H8121333   0.936   4.753   4.314 -0.5283 -0.8648  0.9748
   67MOL    C8221334   1.231   4.880   4.555  0.2502  0.5694  0.1673
   67MOL    C8321335   1.372   4.904   4.627  0.6603  0.7600 -0.9246
   67MOL    C8421336   1.133   5.002   4.586 -0.1751 -0.1965  0.8329
   67MOL    C8521337   1.159   5.120   4.483  0.9702 -0.4527  0.6977
   67MOL    C8621338   1.282   5.204   4.496 -0.3887  0.0114  0.4853
   67MOL    C8721339   1.080   5.144   4.376  0.3522 -0.7888 -0.3022
   67MOL    H8821340   1.253   4.887   4.448 -0.7269  0.9626 -0.0110
   67MOL    H8921341   1.355   4.909   4.735  0.1656  0.7434 -1.0040
   67MOL    H9021342   1.420   4.999   4.602 -0.0599  1.6735  1.0623
   67MOL    H9121343   1.455   4.833   4.619  0.6711  0.8542 -1.6307
   67MOL    H9221344   1.033   4.967   4.559 -0.0636  0.0154  0.1435
   67MOL    H9321345   1.260   5.298   4.446 -0.4667 -0.5827 -0.6144
   67MOL    H9421346   1.371   5.160   4.450  0.6104  0.7799  1.6550
   67MOL    H9521347   1.312   5.212   4.600 -2.6588  0.0811  1.1472
   67MOL    H9621348   0.986   5.092   4.360  0.4665 -0.0341 -4.0541
   67MOL    H9721349   1.101   5.224   4.306  0.9146 -1.1980 -0.6106
   67MOL    C9821350   1.118   5.058   4.742 -0.0588 -0.2502  0.4937
   67MOL    C9921351   1.101   4.947   4.853 -0.7106  0.1524 -0.2777
   67MOL   C10021352   1.014   5.178   4.771  0.1777  0.5445 -0.0876
   67MOL   C10121353   1.059   5.268   4.878 -0.6763  0.5108 -0.3633
   67MOL   C10221354   1.150   5.372   4.842  0.9834  0.3570 -0.2311
   67MOL   C10321355   1.043   5.231   5.009 -0.2508  0.6957  0.0116
   67MOL   H10421356   1.214   5.108   4.756 -0.4132  0.3427  0.8236
   67MOL   H10521357   1.167   4.863   4.835  2.0979  2.0267  0.9301
   67MOL   H10621358   1.005   4.898   4.834 -1.6868  2.1912 -0.8419
   67MOL   H10721359   1.111   4.972   4.959 -0.6221 -2.3148  0.3159
   67MOL   H10821360   1.014   5.243   4.683 -0.0030 -2.0976 -2.1072
   67MOL   H10921361   1.198   5.419   4.928 -0.4094 -1.9361  1.8870
   67MOL   H11021362   1.083   5.444   4.796 -0.5319 -0.4982  0.5797
   67MOL   H11121363   1.223   5.337   4.769 -0.1914 -0.0388 -1.2231
   67MOL   H11221364   0.991   5.139   5.032  0.8419  0.8658  3.4664
   67MOL   H11321365   1.077   5.284   5.097 -1.1400  0.0188  0.7714
   67MOL   C11421366   0.864   5.129   4.789 -0.1577 -0.8645  0.8444
   67MOL   C11521367   0.811   5.033   4.684 -0.1119 -0.5764 -0.1863
   67MOL   C11621368   0.762   5.241   4.824 -0.6102 -0.0198  0.2794
   67MOL   C11721369   0.657   5.197   4.924 -0.3798  0.3334  0.9410
   67MOL   C11821370   0.703   5.217   5.065  0.5353  0.3712  0.8761
   67MOL   C11921371   0.532   5.163   4.897  0.4920 -0.0092 -0.4925
   67MOL   H12021372   0.863   5.064   4.877 -1.5794  0.2318  1.6490
   67MOL   H12121373   0.707   5.006   4.699 -0.2118  0.4167  1.0176
   67MOL   H12221374   0.855   4.936   4.708  1.1861  0.0662  0.0991
   67MOL   H12321375   0.837   5.074   4.586 -1.0009  1.6031  0.4495
   67MOL   H12421376   0.818   5.321   4.873  0.4942 -1.6683  1.7712
   67MOL   H12521377   0.754   5.124   5.089  0.5565  1.1476  4.0353
   67MOL   H12621378   0.621   5.223   5.136  1.9748  0.5732  2.5582
   67MOL   H12721379   0.768   5.303   5.077 -2.7199  3.1005 -0.3610
   67MOL   H12821380   0.508   5.155   4.792  1.0301  0.6552 -0.6653
   67MOL   H12921381   0.464   5.149   4.979  0.9130  1.6183  0.1548
   67MOL   C13021382   0.698   5.314   4.698 -0.1556  0.0922  0.7461
   67MOL   C13121383   0.802   5.375   4.599  0.4723 -0.4478  0.8202
   67MOL   C13221384   0.585   5.431   4.723 -0.3518  0.2644  0.5290
   67MOL   C13321385   0.498   5.446   4.599  0.3794  0.3016  0.0451
   67MOL   C13421386   0.389   5.339   4.589  0.1379 -0.2389 -0.2223
   67MOL   C13521387   0.520   5.533   4.504  0.2573 -0.4964  0.1264
   67MOL   H13621388   0.643   5.241   4.638  1.8442  0.0897 -1.1206
   67MOL   H13721389   0.836   5.292   4.537  1.4139  0.7867 -0.3406
   67MOL   H13821390   0.889   5.428   4.638  0.7453 -0.4679  0.2460
   67MOL   H13921391   0.753   5.434   4.522  1.5987  0.8790  1.0836
   67MOL   H14021392   0.515   5.405   4.803  1.5721  0.6671  2.3930
   67MOL   H14121393   0.346   5.308   4.684  0.2052 -1.7929 -0.6807
   67MOL   H14221394   0.439   5.252   4.545 -1.0166 -1.1290  0.2076
   67MOL   H14321395   0.309   5.370   4.521  0.2361 -0.2304 -0.3348
   67MOL   H14421396   0.601   5.603   4.516  0.9359 -1.0886 -0.9630
   67MOL   H14521397   0.453   5.535   4.420 -0.8533  1.5121  1.0249
   67MOL   C14621398   0.628   5.573   4.777  0.4681 -0.3697 -0.3323
   67MOL   C14721399   0.728   5.570   4.895 -0.0608  0.5841  0.1893
   67MOL   C14821400   0.508   5.673   4.803 -1.0286  0.1867 -0.6066
   67MOL   C14921401   0.557   5.815   4.769  0.0563  0.1393  0.9150
   67MOL   C15021402   0.547   5.859   4.626 -0.5266  0.1692 -0.1714
   67MOL   C15121403   0.607   5.893   4.871  0.6874 -0.2530  0.9383
   67MOL   H15221404   0.682   5.621   4.696  0.3095  0.1678 -0.1240
   67MOL   H15321405   0.828   5.543   4.861 -0.6702 -1.4070 -0.0877
   67MOL   H15421406   0.707   5.493   4.970  0.5302  1.2479  1.0421
   67MOL   H15521407   0.742   5.655   4.962 -1.2353  1.9068 -1.1949
   67MOL   H15621408   0.439   5.668   4.718 -2.5200  1.2976  0.5173
   67MOL   H15721409   0.451   5.837   4.578 -1.1657  2.8081 -0.1804
   67MOL   H15821410   0.627   5.810   4.571 -0.1812 -0.0686  0.5413
   67MOL   H15921411   0.559   5.967   4.621  1.2375 -0.0283 -0.4089
   67MOL   H16021412   0.608   5.854   4.971 -1.6431  0.8328  1.4194
   67MOL   H16121413   0.641   5.995   4.862  1.4213 -0.4480  1.4869
   67MOL   C16221414   0.414   5.650   4.938 -0.1051 -0.3291 -1.1933
   67MOL   C16321415   0.386   5.507   4.990  0.4344  0.2561  0.0861
   67MOL   C16421416   0.290   5.741   4.937  0.1409  0.3355  0.2702
   67MOL   C16521417   0.256   5.799   5.077  0.2078 -0.2570  0.0598
   67MOL   C16621418   0.166   5.717   5.172 -0.6965  0.0059 -0.8638
   67MOL   C16721419   0.307   5.917   5.109  0.0592  0.3607  0.5266
   67MOL   H16821420   0.470   5.680   5.026 -1.3950  1.7782 -1.0588
   67MOL   H16921421   0.344   5.505   5.091  1.4964 -3.7272  0.5521
   67MOL   H17021422   0.477   5.448   5.001 -0.0637 -0.7096 -0.9412
   67MOL   H17121423   0.322   5.451   4.922  0.0704  3.0379 -1.9293
   67MOL   H17221424   0.336   5.833   4.902  0.8865 -0.3063 -0.4490
   67MOL   H17321425   0.157   5.609   5.155 -4.0695  0.0842  0.0405
   67MOL   H17421426   0.062   5.746   5.177 -1.2859 -1.7405 -2.2159
   67MOL   H17521427   0.204   5.718   5.274 -2.9821 -0.3315  0.0257
   67MOL   H17621428   0.368   5.968   5.035  0.3330  1.5566  1.5499
   67MOL   H17721429   0.293   5.968   5.203  1.0907  0.8408  0.4322
   67MOL   C17821430   0.165   5.703   4.849 -0.0484  0.4491 -0.3226
   67MOL   C17921431   0.183   5.620   4.721  0.3343  0.0311  0.3745
   67MOL   C18021432   0.054   5.810   4.842  0.2301  0.2472 -0.5841
   67MOL   C18121433   7.804   5.744   4.845 -0.1724 -0.1187  0.1901
   67MOL   C18221434   7.738   5.718   4.986 -0.4914  0.3762 -0.0637
   67MOL   C18321435   7.739   5.707   4.736 -0.2581  0.2588 -0.2051
   67MOL   H18421436   0.123   5.626   4.914  0.0588  0.7972  0.1613
   67MOL   H18521437   0.094   5.565   4.690  0.9645 -0.9799  0.3265
   67MOL   H18621438   0.266   5.550   4.736  0.3134 -0.2688 -0.8331
   67MOL   H18721439   0.214   5.679   4.635 -0.6163  0.0602  0.0438
   67MOL   H18821440   0.047   5.850   4.943 -1.9490 -2.2997  0.3390
   67MOL   H18921441   7.802   5.657   5.049 -0.4076  1.3923  0.8452
   67MOL   H19021442   7.646   5.660   4.985  0.6702 -1.5263  0.6733
   67MOL   H19121443   7.722   5.814   5.035 -2.8451  0.7051 -1.3733
   67MOL   H19221444   7.776   5.719   4.635  1.1189  1.4853  0.4204
   67MOL   H19321445   7.639   5.668   4.750  0.1829 -0.2841  1.4874
   67MOL   C19421446   0.068   5.910   4.725  0.2206 -0.3163 -0.1223
   67MOL   C19521447   0.192   5.997   4.733  0.2449 -0.9187 -0.2841
   67MOL   C19621448   7.844   6.002   4.687 -0.0534 -0.0842  0.2354
   67MOL   C19721449   7.846   6.038   4.539 -0.2993  0.6204 -0.7315
   67MOL   C19821450   7.781   5.939   4.445  0.2592 -0.0924  0.7937
   67MOL   C19921451   0.022   6.139   4.482 -0.0004  0.7084  0.2652
   67MOL   H20021452   0.081   5.840   4.643 -1.8067  0.9457 -1.5372
   67MOL   H20121453   0.277   5.928   4.734  1.9748  1.1568  1.7269
   67MOL   H20221454   0.186   6.048   4.829 -2.9733  0.2071 -1.0466
   67MOL   H20321455   0.211   6.063   4.649  2.5187 -0.8998  0.1995
   67MOL   H20421456   7.749   5.948   4.697  0.3158 -0.7430  0.2000
   67MOL   H20521457   7.675   5.952   4.463 -0.2108  0.1221 -1.9361
   67MOL   H20621458   7.814   5.838   4.468 -1.0593 -0.9310 -0.8803
   67MOL   H20721459   7.797   5.951   4.337 -1.6216 -0.2758  0.4895
   67MOL   H20821460   0.073   6.218   4.536  3.5602 -0.6646 -0.9733
   67MOL   H20921461   0.023   6.153   4.375 -0.5171  0.2684  0.1988
   67MOL   C21021462   7.815   6.134   4.772 -1.0119 -0.4341  0.0962
   67MOL   C21121463   7.818   6.097   4.926 -0.2188  0.2861 -0.0417
   67MOL   C21221464   7.696   6.224   4.728  0.2225 -0.2140  0.4245
   67MOL   C21321465   7.731   6.372   4.735 -0.3688  0.2550  0.4010
   67MOL   C21421466   7.761   6.433   4.867 -0.1741 -0.0222 -0.3439
   67MOL   C21521467   7.735   6.444   4.620  0.5291  0.5913  0.5445
   67MOL   H21621468   0.011   6.198   4.759 -1.3527  0.1898  0.8057
   67MOL   H21721469   7.787   6.186   4.981 -0.4060 -0.6132  1.3407
   67MOL   H21821470   0.024   6.078   4.968 -0.7513 -1.2493  0.5422
   67MOL   H21921471   7.757   6.012   4.957  1.2017 -0.6766  0.1448
   67MOL   H22021472   7.684   6.196   4.623  1.6211 -0.4690  0.3164
   67MOL   H22121473   7.855   6.388   4.899  1.4726  1.8333 -2.3707
   67MOL   H22221474   7.679   6.415   4.936 -0.6490 -1.2183 -1.2151
   67MOL   H22321475   7.769   6.541   4.849 -0.6867  0.2594  1.0281
   67MOL   H22421476   7.709   6.406   4.523  1.4962  2.5726 -0.5231
   67MOL   H22521477   7.765   6.548   4.624 -0.2357  0.8266  0.2586
   67MOL   C22621478   7.553   6.186   4.779 -0.2217 -0.4606 -0.3255
   67MOL   C22721479   7.517   6.033   4.777  0.2854  0.4352 -0.2933
   67MOL   C22821480   7.441   6.267   4.708  0.1106  0.0179 -0.5067
   67MOL   C22921481   7.343   6.308   4.815  0.2023 -0.4325 -0.5085
   67MOL   C23021482   7.273   6.209   4.904  0.0785 -0.2073  0.0373
   67MOL   C23121483   7.316   6.433   4.837  0.2920 -0.0310 -0.5489
   67MOL   H23221484   7.559   6.224   4.881  1.5803  0.3373 -0.7025
   67MOL   H23321485   7.413   6.016   4.804  0.7675 -0.2924  1.1509
   67MOL   H23421486   7.579   5.968   4.839 -0.0029 -0.2625 -0.7178
   67MOL   H23521487   7.544   5.996   4.678  0.6851  1.4226 -0.5515
   67MOL   H23621488   7.493   6.356   4.673 -0.6799  1.6955  2.4231
   67MOL   H23721489   7.199   6.249   4.973  0.1593  0.9589 -0.5522
   67MOL   H23821490   7.343   6.147   4.962  1.3301  1.5378  0.4329
   67MOL   H23921491   7.216   6.133   4.850  1.4533 -2.5557  1.7495
   67MOL   H24021492   7.360   6.508   4.773 -1.0507  1.2326 -0.0149
   67MOL   H24121493   7.246   6.463   4.914  1.0426 -2.0671  0.9869
   67MOL   C24221494   7.373   6.201   4.576  0.5283 -0.0161 -0.5369
   67MOL   C24321495   7.472   6.168   4.454  0.4731 -0.9084 -0.5054
   67MOL   C24421496   7.258   6.284   4.510  0.3997  0.0075 -0.1049
   67MOL   C24521497   7.137   6.204   4.469 -0.0235  0.9248  0.0598
   67MOL   C24621498   7.144   6.119   4.344 -0.1471  0.1290 -0.5166
   67MOL   C24721499   7.020   6.215   4.538  0.1127  0.2310 -0.2912
   67MOL   H24821500   7.319   6.114   4.612  0.9262 -0.2377 -0.4634
   67MOL   H24921501   7.535   6.084   4.484 -1.2520 -1.4033  1.8477
   67MOL   H25021502   7.547   6.243   4.428  1.4828 -1.5067  0.6059
   67MOL   H25121503   7.428   6.131   4.362 -1.1148 -2.9397  1.0116
   67MOL   H25221504   7.221   6.352   4.586 -0.2573 -1.2834  0.7587
   67MOL   H25321505   7.175   6.165   4.250  0.1033  0.0713 -0.4622
   67MOL   H25421506   7.043   6.079   4.335 -0.6245  0.9273  1.0596
   67MOL   H25521507   7.216   6.039   4.360 -0.0675 -0.0532 -1.7382
   67MOL   H25621508   7.012   6.272   4.629  2.2208 -1.1366  0.7699
   67MOL   H25721509   6.929   6.171   4.500  0.2551  1.1488 -1.7593
   67MOL   C25821510   7.284   6.404   4.399  0.4668 -0.5157  0.3220
   67MOL   C25921511   7.394   6.502   4.437 -0.0343  0.1657 -0.5681
   67MOL   C26021512   7.160   6.488   4.342  0.6074 -0.2643 -0.3775
   67MOL   C26121513   7.137   6.476   4.189  0.3235 -0.5328 -0.4076
   67MOL   C26221514   6.987   6.485   4.147 -0.6217  0.4854 -0.0369
   67MOL   C26321515   7.227   6.449   4.101 -0.3404 -0.2121  0.4360
   67MOL   H26421516   7.320   6.343   4.317  0.5909 -0.0133  0.0034
   67MOL   H26521517   7.400   6.515   4.545  2.1953  0.7884 -0.7321
   67MOL   H26621518   7.400   6.599   4.388 -0.8358  0.4999 -0.0077
   67MOL   H26721519   7.488   6.449   4.418  0.4324 -1.0588  4.4896
   67MOL   H26821520   7.077   6.423   4.371 -0.6290  1.1275 -0.7601
   67MOL   H26921521   6.916   6.485   4.229 -0.5011 -2.5059  0.1173
   67MOL   H27021522   6.953   6.408   4.077 -0.7190 -0.6841  1.2647
   67MOL   H27121523   6.971   6.577   4.090 -1.4728  0.1588 -0.3364
   67MOL   H27221524   7.333   6.437   4.121 -0.4855 -1.8074  0.2532
   67MOL   H27321525   7.190   6.443   4.000  0.4034  0.6258  0.1009
   67MOL   C27421526   7.132   6.638   4.394 -0.4872  0.7218 -0.0279
   67MOL   C27521527   7.210   6.752   4.319  0.0144 -0.0149  1.0437
   67MOL   C27621528   7.113   6.656   4.550 -0.3768 -0.3707 -0.1455
   67MOL   C27721529   6.996   6.567   4.592  0.0510 -0.0070 -0.5004
   67MOL   C27821530   7.007   6.517   4.735  0.0182  0.7023  0.7727
   67MOL   C27921531   6.886   6.531   4.522 -0.0020  0.5242 -0.3405
   67MOL   H28021532   7.035   6.662   4.352  1.1190  1.9958 -3.1675
   67MOL   H28121533   7.144   6.834   4.293  1.0704  0.8642  1.1109
   67MOL   H28221534   7.251   6.712   4.226 -0.6834  0.7218  0.4124
   67MOL   H28321535   7.291   6.803   4.370  0.0921 -0.4999  1.4098
   67MOL   H28421536   7.201   6.623   4.606 -0.7293 -0.0322  0.6123
   67MOL   H28521537   6.914   6.487   4.782  0.4869  0.2375  1.4123
   67MOL   H28621538   7.051   6.585   4.808  1.6766  0.8564 -0.3203
   67MOL   H28721539   7.076   6.433   4.740  1.2079  1.5647 -0.6765
   67MOL   H28821540   6.861   6.564   4.422  0.0797  0.3825 -0.4073
   67MOL   H28921541   6.816   6.473   4.580  0.7478  0.0026  0.0478
   67MOL   C29021542   7.091   6.797   4.610  0.0293  0.0683 -0.3271
   67MOL   C29121543   6.968   6.867   4.542 -0.5030 -0.0584 -0.7454
   67MOL   C29221544   7.214   6.901   4.621  0.1160  0.0291 -0.0259
   67MOL   C29321545   7.340   6.842   4.650 -0.9557 -0.5438 -0.2812
   67MOL   C29421546   7.345   6.785   4.786 -0.4421  0.6178  0.1114
   67MOL   C29521547   7.452   6.844   4.574  0.2631 -0.0094  0.0805
   67MOL   H29621548   7.068   6.794   4.717  0.6929 -0.6858 -0.1967
   67MOL   H29721549   6.874   6.820   4.570 -0.6052  0.6899  0.2200
   67MOL   H29821550   6.986   6.859   4.435  0.4460  4.0275 -0.9996
   67MOL   H29921551   6.958   6.970   4.578  0.2990 -0.7056  1.4637
   67MOL   H30021552   7.221   6.930   4.516  0.9245 -0.2700 -0.0547
   67MOL   H30121553   7.434   6.727   4.808 -0.6779  0.3219  0.2871
   67MOL   H30221554   7.257   6.725   4.808 -1.4165  1.7562 -0.5854
   67MOL   H30321555   7.353   6.874   4.849 -1.2139  1.2309 -0.6395
   67MOL   H30421556   7.440   6.888   4.476  0.5540 -0.2205 -0.0515
   67MOL   H30521557   7.549   6.808   4.607  0.3773 -0.6736 -0.9482
   67MOL   C30621558   7.196   7.042   4.682  0.7716  1.0499  0.3619
   67MOL   C30721559   7.319   7.138   4.670 -0.5886  0.3203  0.0315
   67MOL   C30821560   7.139   7.046   4.825  0.3000 -0.0329  0.3644
   67MOL   C30921561   7.069   7.180   4.843 -0.1268  0.6007 -0.2501
   67MOL   C31021562   6.924   7.194   4.794  0.1716 -0.0945 -0.0839
   67MOL   C31121563   7.128   7.284   4.905  0.1557  0.5899 -0.2711
   67MOL   H31221564   7.120   7.089   4.620 -0.2568 -0.6124  0.3460
   67MOL   H31321565   7.307   7.245   4.688 -1.3386 -0.0362  1.7377
   67MOL   H31421566   7.365   7.123   4.573 -1.2533  1.8572 -0.5317
   67MOL   H31521567   7.393   7.116   4.747  0.4864  0.0571 -1.0569
   67MOL   H31621568   7.064   6.969   4.838 -0.4852  1.2156  3.7813
   67MOL   H31721569   6.876   7.109   4.842 -3.0031  0.9660 -1.2340
   67MOL   H31821570   6.925   7.185   4.685  1.2362  1.0712 -0.1841
   67MOL   H31921571   6.878   7.287   4.829 -0.4869 -0.8575  1.0859
   67MOL   H32021572   7.231   7.272   4.935  0.7748  0.0718 -2.4896
   67MOL   H32121573   7.082   7.381   4.915  0.2722  0.5437  0.8383
   67MOL   H32221574   7.226   7.043   4.892  1.0486 -2.3054 -0.6534
   68MOL     C121575   0.704   3.887   3.501  0.2232 -0.1914  0.0276
   68MOL     C221576   0.776   4.009   3.559  0.2697  0.3515  0.0471
   68MOL     C321577   0.552   3.879   3.512 -0.8264 -0.1906 -0.3773
   68MOL     C421578   0.500   3.851   3.652  0.3745  0.1028 -0.0152
   68MOL     C521579   0.354   3.894   3.676 -0.7395  0.3962  0.5083
   68MOL     C621580   0.574   3.787   3.742  0.6645 -0.0316  0.5855
   68MOL     H721581   0.721   3.890   3.394  0.5201  1.7357  0.1083
   68MOL     H821582   0.720   4.101   3.545  0.4737  0.4183 -0.3260
   68MOL     H921583   0.874   4.031   3.517  1.1452 -0.2219  1.7527
   68MOL    H1021584   0.783   3.994   3.666 -0.3534  0.4647  0.1054
   68MOL    H1121585   0.521   3.983   3.500 -0.1791  0.4390  3.0354
   68MOL    H1221586   0.327   3.988   3.629 -0.4076 -0.8488 -2.2805
   68MOL    H1321587   0.339   3.902   3.784  0.1970  0.1953  0.6584
   68MOL    H1421588   0.281   3.826   3.632  0.7894  0.4670 -2.2055
   68MOL    H1521589   0.671   3.753   3.711 -0.2822  0.2400 -2.9986
   68MOL    H1621590   0.540   3.762   3.841  1.6966 -0.8576  0.7325
   68MOL    H1721591   0.742   3.788   3.524 -4.0364 -2.4290 -2.0167
   68MOL    C1821592   0.488   3.788   3.400  0.5422 -0.3395  0.7287
   68MOL    C1921593   0.542   3.642   3.405  0.6020 -0.0999 -0.1307
   68MOL    C2021594   0.483   3.864   3.260 -0.3486  0.2338  0.2661
   68MOL    C2121595   0.422   4.008   3.277  0.0179  0.1828 -0.3651
   68MOL    C2221596   0.495   4.106   3.198 -0.1393 -0.2593  0.1280
   68MOL    C2321597   0.319   4.036   3.352 -0.1729 -0.0724  0.9209
   68MOL    H2421598   0.382   3.782   3.427  0.1999  1.0658 -0.2439
   68MOL    H2521599   0.555   3.604   3.506 -1.1622 -0.6842 -0.0984
   68MOL    H2621600   0.642   3.640   3.362  0.2281 -0.2579 -1.0047
   68MOL    H2721601   0.477   3.573   3.349 -0.1629 -1.1413  1.9901
   68MOL    H2821602   0.588   3.888   3.247 -0.5601  1.5848  1.0346
   68MOL    H2921603   0.452   4.206   3.200 -0.4986 -0.2581 -3.6174
   68MOL    H3021604   0.496   4.080   3.092 -0.6883  0.5889 -0.0988
   68MOL    H3121605   0.595   4.108   3.242 -1.2746 -1.5920  2.8289
   68MOL    H3221606   0.261   3.959   3.402 -2.2165  0.7389 -0.1250
   68MOL    H3321607   0.278   4.136   3.357 -3.1407 -1.2334  1.1748
   68MOL    C3421608   0.430   3.787   3.137 -0.1811 -0.1005  0.4251
   68MOL    C3521609   0.293   3.733   3.171 -0.0616  0.3806  0.5922
   68MOL    C3621610   0.534   3.690   3.069  0.2159  0.0877 -0.2853
   68MOL    C3721611   0.662   3.760   3.014  0.2956  0.2193  0.1952
   68MOL    C3821612   0.656   3.849   2.887  0.1842  0.8972  0.1861
   68MOL    C3921613   0.780   3.741   3.074 -0.2309 -0.4654  0.4263
   68MOL    H4021614   0.415   3.865   3.062  1.3441 -2.3697 -2.3539
   68MOL    H4121615   0.294   3.630   3.209 -2.3455  0.2245  0.2774
   68MOL    H4221616   0.231   3.733   3.081  0.0253 -2.0186  0.4979
   68MOL    H4321617   0.229   3.792   3.236  2.3827  1.8663  1.7103
   68MOL    H4421618   0.563   3.624   3.150 -0.4758  0.5854  0.3772
   68MOL    H4521619   0.681   3.788   2.801  0.4610  0.3228  0.6671
   68MOL    H4621620   0.733   3.926   2.885 -0.3210  1.4288  0.9700
   68MOL    H4721621   0.566   3.910   2.884 -1.1978 -1.1650 -1.5409
   68MOL    H4821622   0.798   3.678   3.159 -1.4408 -0.0168  1.0262
   68MOL    H4921623   0.872   3.789   3.042 -1.3781 -0.2047 -2.7510
   68MOL    C5021624   0.476   3.597   2.951 -0.2742 -0.0885 -0.0394
   68MOL    C5121625   0.390   3.677   2.846 -0.2017 -0.3282 -0.3318
   68MOL    C5221626   0.414   3.460   2.994 -0.1000  0.2972  0.0219
   68MOL    C5321627   0.488   3.381   3.105 -0.3088  0.1967 -0.5714
   68MOL    C5421628   0.412   3.319   3.217 -0.3840  0.3514 -0.1821
   68MOL    C5521629   0.623   3.372   3.110 -0.0180  0.7020  0.2438
   68MOL    H5621630   0.544   3.569   2.871 -0.3870  1.2962 -0.6432
   68MOL    H5721631   0.318   3.745   2.892  1.8788  0.4586  1.8421
   68MOL    H5821632   0.334   3.625   2.769  2.2564  0.1197 -2.5343
   68MOL    H5921633   0.454   3.736   2.779 -1.3924  2.5498  0.9771
   68MOL    H6021634   0.322   3.492   3.043 -0.0098  0.2669  0.2088
   68MOL    H6121635   0.406   3.211   3.205  1.0564  0.2589 -0.2161
   68MOL    H6221636   0.306   3.341   3.211 -0.1832  0.9106 -2.0666
   68MOL    H6321637   0.446   3.332   3.320  1.4238  0.3170 -0.7566
   68MOL    H6421638   0.688   3.412   3.034  0.5525 -0.3841  0.1533
   68MOL    H6521639   0.656   3.317   3.197 -0.4975  1.7084  1.0725
   68MOL    C6621640   0.361   3.358   2.883 -0.4956  0.6562 -0.5152
   68MOL    C6721641   0.206   3.333   2.904  0.2874 -0.6571  0.6375
   68MOL    C6821642   0.464   3.228   2.855 -0.0165  0.1529 -0.3807
   68MOL    C6921643   0.605   3.268   2.809 -0.0100 -0.1093  0.2510
   68MOL    C7021644   0.716   3.182   2.863 -0.0114 -0.2941 -0.0534
   68MOL    C7121645   0.636   3.358   2.715  0.5563  0.1785 -0.5823
   68MOL    H7221646   0.369   3.409   2.787  1.4895  0.4563 -0.4900
   68MOL    H7321647   0.165   3.281   2.817  2.0075 -0.3214 -0.4051
   68MOL    H7421648   0.151   3.424   2.931  1.2089  1.1749 -3.2254
   68MOL    H7521649   0.188   3.264   2.986  0.7363 -1.4647  0.0607
   68MOL    H7621650   0.488   3.187   2.953  0.2119  0.5789 -0.2555
   68MOL    H7721651   0.753   3.119   2.782  0.2472 -0.3530  0.1095
   68MOL    H7821652   0.681   3.122   2.946 -1.9383  0.3534 -0.3902
   68MOL    H7921653   0.792   3.250   2.902  0.1618  1.0100 -2.5337
   68MOL    H8021654   0.569   3.434   2.677 -0.1287 -0.7572 -1.2521
   68MOL    H8121655   0.737   3.359   2.677  1.1214  3.0607  0.7957
   68MOL    C8221656   0.416   3.099   2.773  0.1632  0.6297  0.6081
   68MOL    C8321657   0.344   3.156   2.640  0.2442 -0.2935 -0.1464
   68MOL    C8421658   0.314   3.010   2.858  0.1728  0.3877 -0.0379
   68MOL    C8521659   0.353   2.983   3.005 -0.1521  0.4732 -0.0595
   68MOL    C8621660   0.244   2.995   3.106 -0.3408 -0.8228 -0.3394
   68MOL    C8721661   0.473   2.941   3.036 -0.3763  0.0950  0.4261
   68MOL    H8821662   0.498   3.031   2.750 -1.5125 -0.6268 -1.9398
   68MOL    H8921663   0.426   3.201   2.583 -1.3568  0.1054 -2.1686
   68MOL    H9021664   0.269   3.230   2.667  0.6103  0.4066 -1.0074
   68MOL    H9121665   0.302   3.073   2.583 -1.7493  0.5811  0.0156
   68MOL    H9221666   0.225   3.072   2.872  0.3421  0.0108  2.8097
   68MOL    H9321667   0.223   3.101   3.118  1.5877 -0.3985 -0.5163
   68MOL    H9421668   0.250   2.947   3.204 -1.8790 -0.4715 -0.0539
   68MOL    H9521669   0.156   2.941   3.072  0.8510 -2.0079 -1.5833
   68MOL    H9621670   0.550   2.933   2.961  1.5412  0.5683  2.2647
   68MOL    H9721671   0.491   2.901   3.135 -0.9000 -0.6234  0.2281
   68MOL    C9821672   0.263   2.878   2.788  0.1202  0.5150 -0.1812
   68MOL    C9921673   0.374   2.791   2.723  0.2465  0.1087 -0.5085
   68MOL   C10021674   0.129   2.884   2.698  0.1305 -0.5293  0.3649
   68MOL   C10121675   0.034   3.005   2.707 -0.4617  0.6706  0.2746
   68MOL   C10221676   7.831   3.028   2.825 -0.3147 -0.2600  0.7598
   68MOL   C10321677   0.017   3.082   2.600  0.4526  0.6861 -0.2641
   68MOL   H10421678   0.234   2.812   2.869  0.2463  2.6014  1.6066
   68MOL   H10521679   0.455   2.792   2.796 -1.1534 -3.0719  1.2036
   68MOL   H10621680   0.412   2.839   2.633 -2.1596 -0.4336 -1.8436
   68MOL   H10721681   0.361   2.685   2.701  1.3486 -0.1361 -0.0320
   68MOL   H10821682   0.164   2.897   2.595 -1.8653 -0.6171 -0.3327
   68MOL   H10921683   7.876   3.044   2.923 -0.8319  3.4688  0.4701
   68MOL   H11021684   7.764   2.942   2.824 -2.2461  1.2084  0.1494
   68MOL   H11121685   7.782   3.125   2.816 -1.9208 -0.9033  2.3374
   68MOL   H11221686   0.077   3.067   2.511 -0.9074 -2.2552 -0.7360
   68MOL   H11321687   7.837   3.162   2.598 -1.3432 -0.9195 -0.7338
   68MOL   C11421688   0.034   2.754   2.703  0.2966  0.4446  0.5577
   68MOL   C11521689   0.020   2.701   2.844  0.0949 -0.1126 -0.1339
   68MOL   C11621690   0.069   2.645   2.597  0.5472 -0.4179 -1.2568
   68MOL   C11721691   0.091   2.709   2.460  0.1118  0.1442  0.1428
   68MOL   C11821692   7.869   2.762   2.385 -0.0758  0.4489  0.7111
   68MOL   C11921693   0.213   2.714   2.403 -0.2128 -0.2791  0.5481
   68MOL   H12021694   7.830   2.794   2.674 -0.6103 -3.1056 -1.7336
   68MOL   H12121695   7.823   2.644   2.869 -0.2892  0.7901  0.5596
   68MOL   H12221696   0.006   2.777   2.920  0.7085 -1.7190  1.6404
   68MOL   H12321697   0.111   2.647   2.873  0.2217 -0.4782 -1.1895
   68MOL   H12421698   0.164   2.599   2.624  1.0742  2.1134  1.3831
   68MOL   H12521699   7.848   2.865   2.416 -1.3243 -0.4346  2.8835
   68MOL   H12621700   7.782   2.699   2.402 -0.2370  0.6880  0.7820
   68MOL   H12721701   0.002   2.769   2.280  0.3990  2.4350  0.9287
   68MOL   H12821702   0.304   2.687   2.453  0.7112 -1.4673 -1.7233
   68MOL   H12921703   0.214   2.749   2.301 -1.0888 -1.6430  0.0457
   68MOL   C13021704   7.881   2.509   2.586 -0.3672  0.1074  0.6230
   68MOL   C13121705   7.850   2.435   2.717  0.0151  0.6504 -0.2496
   68MOL   C13221706   0.040   2.412   2.472 -0.8497 -0.3083  0.5077
   68MOL   C13321707   7.812   2.354   2.399  0.5659 -0.8409  0.9313
   68MOL   C13421708   7.742   2.443   2.296  0.0757  0.5094  0.6421
   68MOL   C13521709   7.755   2.240   2.437 -0.5743  1.0513 -0.2018
   68MOL   H13621710   7.785   2.536   2.541  1.2047  0.2778 -2.8188
   68MOL   H13721711   7.827   2.330   2.703 -0.1685  0.3890  1.7452
   68MOL   H13821712   7.759   2.473   2.764  0.5555 -0.4247  1.7358
   68MOL   H13921713   0.030   2.429   2.799 -1.3186  0.0444  0.9067
   68MOL   H14021714   0.092   2.472   2.397  0.0293 -0.1047  1.2716
   68MOL   H14121715   7.652   2.485   2.341  0.5894 -0.1906  2.3648
   68MOL   H14221716   7.724   2.396   2.199 -0.7479 -0.6670  1.3445
   68MOL   H14321717   7.822   2.512   2.270 -1.6531  2.9185  1.5171
   68MOL   H14421718   7.785   2.176   2.519  2.4306  1.5058 -0.8988
   68MOL   H14521719   7.666   2.210   2.383  0.1400  0.2619 -0.9373
   68MOL   C14621720   0.143   2.303   2.512 -0.4117 -0.5205 -0.2059
   68MOL   C14721721   0.271   2.365   2.568  0.1783  0.3713  0.4916
   68MOL   C14821722   0.183   2.190   2.403  0.6232 -0.3025 -0.4647
   68MOL   C14921723   0.223   2.058   2.474 -0.4196 -0.3287 -0.2954
   68MOL   C15021724   0.123   1.953   2.492  0.0003 -0.3560 -0.4228
   68MOL   C15121725   0.351   2.039   2.511 -0.6180  0.5589 -0.4457
   68MOL   H15221726   0.107   2.247   2.598 -0.0617 -0.1159  0.2084
   68MOL   H15321727   0.311   2.438   2.498 -1.1744  0.3684 -0.3080
   68MOL   H15421728   0.353   2.293   2.573 -0.5292 -0.4688  0.2137
   68MOL   H15521729   0.263   2.418   2.663 -0.8456  1.6391 -0.2839
   68MOL   H15621730   0.092   2.152   2.356  0.7729 -2.2436  0.7762
   68MOL   H15721731   0.153   1.878   2.566 -0.6053 -0.6387 -0.4558
   68MOL   H15821732   0.094   1.899   2.402  0.0638 -0.9389 -0.0956
   68MOL   H15921733   0.035   1.989   2.545 -0.1952  0.0286 -1.0143
   68MOL   H16021734   0.435   2.101   2.484  1.1356 -2.0388 -1.1885
   68MOL   H16121735   0.376   1.948   2.564 -1.8542  0.8899  0.7038
   68MOL   C16221736   0.272   2.228   2.280 -0.4947  0.0657  0.5124
   68MOL   C16321737   0.231   2.358   2.215 -0.6538 -0.5072 -0.3283
   68MOL   C16421738   0.304   2.114   2.172  0.4170 -0.2505  0.0124
   68MOL   C16521739   0.454   2.109   2.146 -0.8403 -0.4295 -0.4202
   68MOL   C16621740   0.526   2.223   2.071 -0.2655  0.3219  0.4381
   68MOL   C16721741   0.528   2.011   2.195  0.3939  0.0647 -0.2979
   68MOL   H16821742   0.372   2.249   2.318  1.6821 -0.2384 -4.5457
   68MOL   H16921743   0.122   2.365   2.203 -0.5212  0.9056 -0.8193
   68MOL   H17021744   0.273   2.379   2.117 -0.7879  1.4387  0.0137
   68MOL   H17121745   0.261   2.444   2.274 -1.8844  0.9943 -1.8051
   68MOL   H17221746   0.296   2.019   2.223 -1.0722 -0.5406 -0.7125
   68MOL   H17321747   0.520   2.316   2.128 -3.8309  1.2764 -1.3314
   68MOL   H17421748   0.472   2.235   1.977 -1.4576  1.4346  1.2349
   68MOL   H17521749   0.629   2.200   2.047 -0.3668 -2.6906  2.6034
   68MOL   H17621750   0.485   1.938   2.262 -0.8768  2.2640  1.3425
   68MOL   H17721751   0.634   2.002   2.175 -0.2785 -3.0368 -2.8907
   68MOL   C17821752   0.207   2.107   2.046 -0.2692 -0.3254 -0.1317
   68MOL   C17921753   0.057   2.097   2.083  0.4956 -0.3890  0.1545
   68MOL   C18021754   0.247   2.018   1.926 -0.3171  0.5842 -0.5692
   68MOL   C18121755   0.207   2.079   1.792  0.0030 -0.7267  0.1430
   68MOL   C18221756   0.064   2.052   1.744 -0.0133 -0.0845 -0.0028
   68MOL   C18321757   0.289   2.161   1.721  0.5275  0.4123  0.1959
   68MOL   H18421758   0.215   2.208   2.005  0.3860 -0.8518 -1.3363
   68MOL   H18521759   0.023   2.004   2.131 -1.2737 -0.1486 -0.6055
   68MOL   H18621760   7.877   2.092   2.002 -3.1577 -1.0474  3.3008
   68MOL   H18721761   0.020   2.175   2.149  1.8054 -0.4674  1.0106
   68MOL   H18821762   0.354   2.038   1.924 -0.4858  1.5646 -0.1275
   68MOL   H18921763   0.018   1.959   1.778 -0.0689  0.4840  1.5234
   68MOL   H19021764   0.057   2.073   1.638 -1.1962 -0.2606  0.0319
   68MOL   H19121765   0.010   2.133   1.793  0.5088  1.0272 -1.2310
   68MOL   H19221766   0.390   2.182   1.754  1.2241  0.0695 -1.6395
   68MOL   H19321767   0.244   2.202   1.631 -0.7861  0.2483  0.7731
   68MOL   C19421768   0.220   1.869   1.938  0.2354 -0.0936  0.2744
   68MOL   C19521769   0.247   1.806   2.071  0.4547 -0.3882  0.2235
   68MOL   C19621770   0.279   1.779   1.815  0.2276 -0.7667 -0.8263
   68MOL   C19721771   0.194   1.658   1.787 -0.0521 -0.0446 -0.2968
   68MOL   C19821772   0.073   1.693   1.703  0.1551 -0.1985 -0.0600
   68MOL   C19921773   0.203   1.540   1.854 -0.7390 -0.0919 -0.2977
   68MOL   H20021774   0.112   1.856   1.935  0.0589  1.5098 -1.9141
   68MOL   H20121775   0.182   1.832   2.155 -0.7903 -0.8729 -0.5859
   68MOL   H20221776   0.351   1.794   2.100  0.7230 -2.3564 -1.4747
   68MOL   H20321777   0.217   1.702   2.059 -0.8040 -0.1681  1.3212
   68MOL   H20421778   0.268   1.837   1.723  0.2056  2.2292  0.9619
   68MOL   H20521779   0.036   1.602   1.656 -2.0136  0.6454 -0.0439
   68MOL   H20621780   0.087   1.757   1.616  2.4675 -0.0800  0.3669
   68MOL   H20721781   7.875   1.728   1.752 -0.5411 -1.2971 -0.5211
   68MOL   H20821782   0.282   1.518   1.925  0.0591 -1.1877 -1.4973
   68MOL   H20921783   0.125   1.468   1.835  0.1796 -1.3659  0.6582
   68MOL   C21021784   0.436   1.748   1.823 -0.4055 -0.1033  0.1393
   68MOL   C21121785   0.530   1.873   1.825  0.0742  0.3154 -0.0024
   68MOL   C21221786   0.502   1.641   1.720  0.4615 -0.3389 -0.6658
   68MOL   C21321787   0.625   1.578   1.783 -0.2804  0.0983  0.2855
   68MOL   C21421788   0.588   1.477   1.891  0.1691 -0.0318 -0.3785
   68MOL   C21521789   0.756   1.591   1.753 -0.3048  0.0085  0.4706
   68MOL   H21621790   0.450   1.709   1.923  1.2828  1.2789  0.4791
   68MOL   H21721791   0.625   1.867   1.774  0.3989 -1.0640  0.7295
   68MOL   H21821792   0.530   1.911   1.928 -1.5529 -1.4737  0.6911
   68MOL   H21921793   0.478   1.941   1.757 -1.6406  1.3419  2.2328
   68MOL   H22021794   0.437   1.555   1.712 -0.5302  0.4573 -1.2857
   68MOL   H22121795   0.511   1.506   1.962 -0.3667  0.9585 -1.3460
   68MOL   H22221796   0.670   1.458   1.960  1.6843  1.3950 -1.7483
   68MOL   H22321797   0.551   1.378   1.864  1.4767 -1.2965  2.2761
   68MOL   H22421798   0.789   1.651   1.670  1.3202 -0.8708  0.4659
   68MOL   H22521799   0.838   1.541   1.803  0.2379  1.6189  1.2247
   68MOL   C22621800   0.517   1.683   1.561  0.4460  0.6629  0.5766
   68MOL   C22721801   0.405   1.775   1.505  0.1985  0.2158 -0.1462
   68MOL   C22821802   0.559   1.561   1.462  0.6410 -0.2439  0.0861
   68MOL   C22921803   0.663   1.604   1.361 -0.1252 -0.5111 -0.1466
   68MOL   C23021804   0.633   1.701   1.255 -0.2428 -0.2298 -0.2884
   68MOL   C23121805   0.797   1.581   1.386 -0.1807  0.0446 -0.0850
   68MOL   H23221806   0.589   1.763   1.546  0.3611  1.1398  2.6480
   68MOL   H23321807   0.405   1.777   1.396  0.3620 -1.1819 -0.1838
   68MOL   H23421808   0.428   1.876   1.538  0.9429 -0.0459  0.1454
   68MOL   H23521809   0.309   1.737   1.541  0.0894  0.1132 -0.5459
   68MOL   H23621810   0.599   1.486   1.530 -1.2586 -1.3491  0.0267
   68MOL   H23721811   0.619   1.800   1.296 -0.8509 -1.1290  1.7342
   68MOL   H23821812   0.543   1.669   1.203 -0.7591  1.2726 -0.3408
   68MOL   H23921813   0.718   1.698   1.186 -0.2520  0.1618 -0.3156
   68MOL   H24021814   0.829   1.516   1.467  0.7790 -1.1444 -1.4033
   68MOL   H24121815   0.867   1.627   1.318 -0.0389  2.2583  1.5053
   68MOL   C24221816   0.444   1.473   1.404 -0.2557 -0.3926  0.1839
   68MOL   C24321817   0.335   1.448   1.507  0.3663  0.0001  0.2523
   68MOL   C24421818   0.485   1.325   1.345 -0.0743 -0.8431 -0.1752
   68MOL   C24521819   0.618   1.329   1.263  0.8491  0.5522 -0.3101
   68MOL   C24621820   0.630   1.399   1.123 -0.5242 -0.2466  0.6545
   68MOL   C24721821   0.722   1.265   1.317  0.0335  0.3051  0.3235
   68MOL   H24821822   0.406   1.526   1.317 -2.2811 -1.9037  0.1015
   68MOL   H24921823   0.363   1.381   1.588 -0.8422  1.7929  2.1929
   68MOL   H25021824   0.249   1.407   1.454 -1.3452  1.1221  2.1163
   68MOL   H25121825   0.300   1.543   1.546  0.3022  0.6500 -1.3556
   68MOL   H25221826   0.511   1.258   1.427 -0.9528 -0.8425  0.1064
   68MOL   H25321827   0.610   1.322   1.048 -1.9429 -1.0759  1.8408
   68MOL   H25421828   0.725   1.445   1.096 -0.6849 -0.0299  0.4566
   68MOL   H25521829   0.564   1.483   1.101  1.4114  1.1827  0.1892
   68MOL   H25621830   0.708   1.217   1.412  0.9735 -1.9649 -0.6573
   68MOL   H25721831   0.814   1.257   1.261  0.3617 -1.2697  1.0586
   68MOL   C25821832   0.374   1.249   1.265 -0.9021 -0.5088 -0.1661
   68MOL   C25921833   0.289   1.342   1.175  0.0693 -0.6791  0.2984
   68MOL   C26021834   0.293   1.140   1.352 -0.1672 -0.2814  0.3440
   68MOL   C26121835   0.385   1.047   1.434 -0.5113 -0.4247  0.3734
   68MOL   C26221836   0.328   1.012   1.576  0.2955  1.0841  0.1199
   68MOL   C26321837   0.506   0.998   1.401 -0.2702  0.2294  0.4822
   68MOL   H26421838   0.426   1.182   1.197  0.1099 -0.3269  0.4158
   68MOL   H26521839   0.345   1.428   1.138  0.9822 -1.7988 -0.9578
   68MOL   H26621840   0.203   1.377   1.232 -0.4838 -1.2736 -0.1680
   68MOL   H26721841   0.256   1.279   1.091  2.2824 -2.5904  0.8069
   68MOL   H26821842   0.241   1.201   1.425 -1.8587  1.0315 -1.8841
   68MOL   H26921843   0.229   0.966   1.570  0.5585  0.4080  1.0477
   68MOL   H27021844   0.318   1.110   1.624 -1.5719  1.7508 -1.5479
   68MOL   H27121845   0.389   0.949   1.640 -0.4745  1.0495  0.8384
   68MOL   H27221846   0.561   1.017   1.310 -0.0143 -0.3418  0.5115
   68MOL   H27321847   0.555   0.925   1.463 -0.4282  0.6669  1.1229
   68MOL   C27421848   0.189   1.049   1.269 -0.3186 -0.5929  0.1948
   68MOL   C27521849   0.251   0.991   1.137 -0.6344 -0.0638  0.3237
   68MOL   C27621850   0.041   1.105   1.257  0.1717 -0.0114 -0.9099
   68MOL   C27721851   7.866   1.160   1.387 -0.4865  0.5671 -0.0932
   68MOL   C27821852   7.838   1.066   1.501  0.3937  0.0263 -0.1501
   68MOL   C27921853   7.838   1.290   1.403 -0.1185 -0.0281  0.6832
   68MOL   H28021854   0.167   0.961   1.329 -0.0661 -0.8650 -0.1165
   68MOL   H28121855   0.348   0.944   1.156  0.4432  2.6992  1.9220
   68MOL   H28221856   0.270   1.066   1.060  2.7680  0.2054  1.3342
   68MOL   H28321857   0.185   0.918   1.090 -0.6715  0.0300  0.2286
   68MOL   H28421858   0.074   1.192   1.200  0.3165  1.1038  0.8370
   68MOL   H28521859   7.868   1.097   1.601 -1.6996  0.7203  0.2910
   68MOL   H28621860   7.888   0.970   1.490 -0.8003 -0.8616  1.8419
   68MOL   H28721861   7.730   1.052   1.496  0.0248  1.9836  1.6668
   68MOL   H28821862   7.859   1.368   1.331 -1.2736  1.0103  1.4556
   68MOL   H28921863   7.798   1.333   1.493 -1.2966 -0.8403  0.5589
   68MOL   C29021864   7.825   1.027   1.170 -0.7281 -0.3322 -0.0096
   68MOL   C29121865   7.823   0.875   1.198 -0.4593  0.3758  0.0239
   68MOL   C29221866   7.837   1.065   1.008 -0.2322 -0.1960 -0.0551
   68MOL   C29321867   7.858   1.212   0.981 -0.3962  0.1779  0.0786
   68MOL   C29421868   7.761   1.318   1.032  0.7671 -0.1599 -0.3310
   68MOL   C29521869   0.075   1.253   0.913  0.0158  0.0648 -0.0326
   68MOL   H29621870   7.728   1.057   1.209  0.9008 -0.1276  4.0850
   68MOL   H29721871   7.813   0.870   1.306  0.6683 -0.6009  0.1055
   68MOL   H29821872   0.019   0.814   1.175  1.2476  2.7166  0.2161
   68MOL   H29921873   7.735   0.823   1.159  1.0105 -2.2778  0.0550
   68MOL   H30021874   0.033   1.012   0.971  1.6344  2.1842  0.8589
   68MOL   H30121875   7.735   1.298   1.136  1.7940  0.6698  0.0962
   68MOL   H30221876   7.668   1.299   0.979  0.3557  0.6691  0.0901
   68MOL   H30321877   7.789   1.422   1.018  0.6585 -0.0158  0.4880
   68MOL   H30421878   0.154   1.192   0.872 -0.0901 -0.6950  0.8781
   68MOL   H30521879   0.084   1.359   0.894  0.5886 -0.1674 -1.1075
   68MOL   C30621880   7.710   1.017   0.921  0.7149  0.2063 -0.7869
   68MOL   C30721881   7.577   1.031   1.000  0.0611 -0.7958 -0.4097
   68MOL   C30821882   7.720   0.881   0.854  0.5741  0.4690 -0.8735
   68MOL   C30921883   7.813   0.859   0.734 -0.1723  0.1480 -0.4245
   68MOL   C31021884   7.776   0.919   0.597 -0.4356  0.3858  0.1458
   68MOL   C31121885   0.032   0.782   0.749  0.1775  0.0313  0.5613
   68MOL   H31221886   7.711   1.088   0.838 -1.8369  2.0345  0.6629
   68MOL   H31321887   7.553   0.951   1.070  0.3610 -0.6944 -0.1865
   68MOL   H31421888   7.489   1.029   0.936  0.0824  0.9415 -0.5302
   68MOL   H31521889   7.572   1.117   1.067  1.7902 -1.2456  0.3398
   68MOL   H31621890   7.739   0.796   0.920  1.7488  0.1263 -1.6363
   68MOL   H31721891   7.686   0.872   0.557 -0.7182  1.0771 -0.0427
   68MOL   H31821892   7.859   0.924   0.527 -1.3010 -0.0293 -0.9257
   68MOL   H31921893   7.751   1.025   0.606 -3.0101 -0.0709 -1.1391
   68MOL   H32021894   0.055   0.751   0.850 -0.8677  3.0447  1.7785
   68MOL   H32121895   0.099   0.754   0.669 -0.6251 -1.1863  0.2929
   68MOL   H32221896   7.622   0.855   0.816 -0.5954 -0.4073  2.5630
   69MOL     C121897   0.088   3.239   1.053 -0.1205 -0.5893  0.5802
   69MOL     C221898   0.108   3.342   1.169  0.6944 -0.3536  0.1888
   69MOL     C321899   0.035   3.107   1.093  0.0893 -0.5698 -0.2073
   69MOL     C421900   0.143   3.018   1.140  0.2859 -0.0448 -0.1526
   69MOL     C521901   0.252   2.973   1.045 -0.0857  0.1658  0.4135
   69MOL     C621902   0.155   2.986   1.269 -0.7806  0.4968 -0.2319
   69MOL     H721903   0.017   3.283   0.984 -1.4781 -2.1351  0.9701
   69MOL     H821904   0.115   3.443   1.129  3.2172  0.5114  2.6068
   69MOL     H921905   0.193   3.322   1.234 -0.0650  1.0543  1.6773
   69MOL    H1021906   0.011   3.344   1.219  1.0173  0.9511  0.8066
   69MOL    H1121907   7.868   3.133   1.181 -2.4953 -0.2967 -1.9633
   69MOL    H1221908   0.259   2.865   1.034  0.3136  0.3430 -1.2510
   69MOL    H1321909   0.352   3.014   1.058  0.7198 -0.6058 -2.8628
   69MOL    H1421910   0.220   3.008   0.947 -0.3484 -1.3990 -0.0647
   69MOL    H1521911   0.091   3.018   1.351 -0.7240 -0.5974  0.2419
   69MOL    H1621912   0.245   2.931   1.292  0.1478  1.6643 -0.9712
   69MOL    H1721913   0.189   3.232   1.012 -0.6257 -0.9468 -0.6169
   69MOL    C1821914   7.838   3.042   0.993 -0.2519  0.4863  0.2335
   69MOL    C1921915   7.873   3.072   0.841 -0.1850 -0.7765 -0.1582
   69MOL    C2021916   7.684   3.054   1.019 -0.1147  0.4103 -0.7240
   69MOL    C2121917   7.640   3.203   0.992 -0.3001  0.0725  0.6053
   69MOL    C2221918   7.577   3.221   0.855 -0.1905 -0.1444  0.1440
   69MOL    C2321919   7.638   3.302   1.078 -0.0994  0.0829  0.1527
   69MOL    H2421920   7.854   2.934   0.993  1.2483  0.6832 -1.9651
   69MOL    H2521921   0.080   3.033   0.818  1.2241  1.6593  1.4900
   69MOL    H2621922   7.864   3.178   0.814  0.5501 -1.0039 -1.3308
   69MOL    H2721923   7.802   3.021   0.777  0.2314 -3.3380  1.3674
   69MOL    H2821924   7.638   2.999   0.937  0.9589 -1.9962  0.2086
   69MOL    H2921925   7.485   3.164   0.847  0.3570 -0.9485 -0.5945
   69MOL    H3021926   7.649   3.177   0.785 -0.7829 -0.5110 -0.2352
   69MOL    H3121927   7.560   3.326   0.831  1.7967  0.5014  1.4450
   69MOL    H3221928   7.678   3.289   1.177 -1.7552  0.8290  0.9371
   69MOL    H3321929   7.607   3.401   1.050 -1.2056 -0.3009  0.0043
   69MOL    C3421930   7.637   2.989   1.156  0.5169  0.0013 -0.4891
   69MOL    C3521931   7.695   2.847   1.176  0.8150 -0.2868 -0.5344
   69MOL    C3621932   7.484   2.999   1.181 -0.2609 -0.7081 -0.5815
   69MOL    C3721933   7.457   3.023   1.325 -1.2946 -0.0986 -0.5504
   69MOL    C3821934   7.480   3.167   1.379  0.3418  0.0889 -1.0776
   69MOL    C3921935   7.417   2.922   1.407 -0.7570  0.0990  0.2106
   69MOL    H4021936   7.691   3.050   1.228 -0.0212  0.5897 -0.5795
   69MOL    H4121937   7.801   2.854   1.200  0.5391  0.8337  0.4048
   69MOL    H4221938   7.678   2.791   1.084 -0.2865 -1.2156  0.2287
   69MOL    H4321939   7.646   2.801   1.262  0.6546  2.7580  1.0758
   69MOL    H4421940   7.458   3.093   1.133 -2.0312  0.2274  2.1142
   69MOL    H4521941   7.447   3.173   1.483  2.2400  0.2635 -0.4564
   69MOL    H4621942   7.415   3.227   1.315 -1.2409 -1.2164 -0.7220
   69MOL    H4721943   7.579   3.212   1.386  0.9984 -1.7242  3.7363
   69MOL    H4821944   7.400   2.818   1.381  3.5209 -0.4268 -0.8890
   69MOL    H4921945   7.389   2.951   1.507 -0.5301  1.4550 -0.1084
   69MOL    C5021946   7.385   2.909   1.106 -0.3684  0.9241  0.1430
   69MOL    C5121947   7.412   2.892   0.954 -0.1900  1.4206 -0.0424
   69MOL    C5221948   7.229   2.947   1.131 -0.6179 -0.3754 -0.0330
   69MOL    C5321949   7.144   2.817   1.129 -0.1269  0.9391 -0.3099
   69MOL    C5421950   7.124   2.735   1.264  0.4270 -0.4601 -0.6250
   69MOL    C5521951   7.083   2.763   1.019  0.0568 -0.4580  0.2968
   69MOL    H5621952   7.395   2.808   1.146 -2.3867  1.0322  0.9965
   69MOL    H5721953   7.500   2.830   0.940 -0.6922  0.9358 -1.1735
   69MOL    H5821954   7.419   2.987   0.899 -2.0270  0.3534 -2.2256
   69MOL    H5921955   7.323   2.838   0.921 -0.3297  1.3034  0.5219
   69MOL    H6021956   7.225   2.975   1.237 -2.1284  0.5245 -0.3206
   69MOL    H6121957   7.131   2.628   1.242  2.8911 -0.4658  0.0983
   69MOL    H6221958   7.018   2.740   1.289  0.4632  2.0667 -0.9117
   69MOL    H6321959   7.186   2.760   1.350 -0.7010 -0.6337  0.2523
   69MOL    H6421960   7.099   2.803   0.920  0.3199 -1.0289  0.1042
   69MOL    H6521961   7.021   2.676   1.030  0.2536 -0.6599 -0.1790
   69MOL    C6621962   7.173   3.063   1.043 -0.0248 -0.0290 -0.2814
   69MOL    C6721963   7.247   3.196   1.057 -0.0051 -0.6946  0.0024
   69MOL    C6821964   7.017   3.085   1.060 -0.0725 -0.5243  0.6787
   69MOL    C6921965   6.966   3.144   0.923 -0.2170  0.3404  0.3840
   69MOL    C7021966   6.924   3.039   0.817  0.1743  0.7811  0.1572
   69MOL    C7121967   6.942   3.275   0.896 -0.1519 -0.3720  0.5926
   69MOL    H7221968   7.192   3.027   0.942  1.2555  0.8518 -0.3755
   69MOL    H7321969   7.335   3.189   0.994 -0.7948 -0.5976 -1.1288
   69MOL    H7421970   7.270   3.227   1.158  0.3743  0.4054 -0.4243
   69MOL    H7521971   7.192   3.272   1.001  2.9330  1.5370  0.0517
   69MOL    H7621972   6.969   2.987   1.058 -1.1359  0.0024 -2.8022
   69MOL    H7721973   6.920   3.082   0.717 -2.4473 -1.2950 -0.6698
   69MOL    H7821974   6.834   2.992   0.855 -0.5293  1.1103 -1.0762
   69MOL    H7921975   7.012   2.975   0.825  0.9320  1.3384 -2.9644
   69MOL    H8021976   6.967   3.362   0.954  0.1811 -0.0184 -0.0684
   69MOL    H8121977   6.904   3.310   0.801 -0.7335  0.3504  1.0809
   69MOL    C8221978   6.965   3.157   1.183 -0.3468  0.7006  0.8441
   69MOL    C8321979   7.028   3.118   1.320 -0.4240  0.3570 -0.4885
   69MOL    C8421980   6.806   3.161   1.186  0.6623  0.5916  0.0677
   69MOL    C8521981   6.759   3.306   1.203 -0.6038  0.4687 -0.1451
   69MOL    C8621982   6.773   3.376   1.339  0.2698  0.4101  0.2379
   69MOL    C8721983   6.701   3.379   1.106  0.3381  0.1328 -0.2178
   69MOL    H8821984   6.994   3.261   1.165  1.7532  0.1157  0.6812
   69MOL    H8921985   7.013   3.012   1.339 -0.1320  0.9364  3.2294
   69MOL    H9021986   6.983   3.169   1.405 -2.0707 -3.6526  1.1645
   69MOL    H9121987   7.135   3.141   1.328  0.2479 -2.6242 -0.0760
   69MOL    H9221988   6.773   3.124   1.089 -0.1770 -2.5311  1.4906
   69MOL    H9321989   6.787   3.483   1.328 -1.4817  0.4014 -2.4229
   69MOL    H9421990   6.863   3.359   1.398  0.6343  0.7209 -0.2269
   69MOL    H9521991   6.688   3.351   1.402  0.5738  0.8406  0.8152
   69MOL    H9621992   6.683   3.340   1.007  2.0789  1.7131 -1.1977
   69MOL    H9721993   6.680   3.484   1.112  1.1012  0.5370 -3.6330
   69MOL    C9821994   6.733   3.057   1.282  0.6584  0.0623 -0.1344
   69MOL    C9921995   6.764   2.912   1.239 -0.2855  0.1953  0.6694
   69MOL   C10021996   6.581   3.079   1.313 -0.2643 -0.8482 -0.2250
   69MOL   C10121997   6.558   3.026   1.456 -0.1067 -1.2106  0.4576
   69MOL   C10221998   6.581   3.133   1.565 -0.1546  0.1195  0.3960
   69MOL   C10321999   6.520   2.901   1.482  0.4451 -0.2707  0.2114
   69MOL   H10422000   6.783   3.076   1.377 -0.3880  0.6626  0.3063
   69MOL   H10522001   6.718   2.866   1.152  0.5154 -0.0131  0.3471
   69MOL   H10622002   6.734   2.849   1.323 -2.0721  1.2913  0.8849
   69MOL   H10722003   6.869   2.893   1.217 -0.5656  0.4924 -0.9723
   69MOL   H10822004   6.569   3.187   1.320 -0.6330 -0.9523  0.7394
   69MOL   H10922005   6.581   3.091   1.665 -0.6767 -0.3188  0.2125
   69MOL   H11022006   6.495   3.198   1.545 -0.0539 -0.3287 -1.6208
   69MOL   H11122007   6.666   3.199   1.552  0.2503  0.0120  2.3400
   69MOL   H11222008   6.506   2.842   1.393 -0.3438 -1.5619  1.1808
   69MOL   H11322009   6.492   2.862   1.579 -0.6954 -1.0738 -0.4377
   69MOL   C11422010   6.473   3.031   1.201  0.5596 -0.1345 -0.0812
   69MOL   C11522011   6.510   3.082   1.060 -0.1698  0.0368  0.2896
   69MOL   C11622012   6.322   3.040   1.243 -0.3334  0.4098  0.1252
   69MOL   C11722013   6.248   2.909   1.219 -0.2456 -0.4624  0.1696
   69MOL   C11822014   6.215   2.856   1.079 -0.2294  0.4266 -0.6801
   69MOL   C11922015   6.206   2.840   1.325  0.2043  0.1321 -0.6517
   69MOL   H12022016   6.477   2.924   1.186 -0.4257 -0.3287  0.9089
   69MOL   H12122017   6.536   3.187   1.051  2.2063 -0.6135 -1.0155
   69MOL   H12222018   6.436   3.048   0.988  0.6814 -2.0856  0.3687
   69MOL   H12322019   6.591   3.018   1.024 -1.3383 -0.8992 -0.7006
   69MOL   H12422020   6.334   3.052   1.351  0.3444  1.1607 -0.0343
   69MOL   H12522021   6.161   2.924   1.013 -1.6768  1.2388  1.3266
   69MOL   H12622022   6.152   2.767   1.067  2.6027 -1.7930  0.2594
   69MOL   H12722023   6.306   2.839   1.020 -0.7744  0.5756 -1.5723
   69MOL   H12822024   6.223   2.858   1.431 -2.3158 -1.5032  0.0633
   69MOL   H12922025   6.145   2.754   1.305 -1.1669  1.2723 -1.3867
   69MOL   C13022026   6.245   3.168   1.201 -0.2637 -0.1924  0.0440
   69MOL   C13122027   6.311   3.291   1.256 -0.1670 -0.3869  0.0147
   69MOL   C13222028   6.086   3.178   1.187  0.4968  0.1603  0.5766
   69MOL   C13322029   6.048   3.264   1.062 -0.5159  0.7355  0.2258
   69MOL   C13422030   6.095   3.405   1.058 -0.3158  0.1549  0.0524
   69MOL   C13522031   5.967   3.206   0.974  0.3799  0.4007 -0.3709
   69MOL   H13622032   6.282   3.189   1.100 -1.2583  3.1018  0.2846
   69MOL   H13722033   6.256   3.384   1.250  0.4390 -0.0974 -1.1472
   69MOL   H13822034   6.408   3.316   1.213 -0.3690 -0.7350 -0.6412
   69MOL   H13922035   6.326   3.280   1.364 -0.9627 -1.1573  0.0511
   69MOL   H14022036   6.053   3.076   1.170  1.1251 -0.5019  3.1867
   69MOL   H14122037   6.201   3.419   1.039  0.6859 -1.5812  3.7649
   69MOL   H14222038   6.074   3.459   1.150  0.4654  0.5749 -0.0184
   69MOL   H14322039   6.031   3.462   0.990  0.9381  1.4197 -0.0776
   69MOL   H14422040   5.934   3.103   0.982 -1.6929  1.1705  1.6800
   69MOL   H14522041   5.938   3.252   0.881 -1.1475  0.7112  0.2304
   69MOL   C14622042   6.007   3.217   1.317  0.2606  0.2883  0.4988
   69MOL   C14722043   6.039   3.123   1.428 -0.3057 -0.1041 -0.3184
   69MOL   C14822044   5.852   3.249   1.280 -0.3165  0.0759  0.6286
   69MOL   C14922045   5.812   3.398   1.253 -0.6325 -0.2393  0.5364
   69MOL   C15022046   5.699   3.422   1.153  0.1983 -0.1671  0.1030
   69MOL   C15122047   5.869   3.498   1.307  0.2131 -0.2904 -0.2723
   69MOL   H15222048   6.069   3.299   1.354  2.8779 -0.5613 -1.7834
   69MOL   H15322049   5.995   3.166   1.517 -0.3710  0.9213 -0.8367
   69MOL   H15422050   6.146   3.120   1.446  0.0353  0.7392 -2.1364
   69MOL   H15522051   6.011   3.018   1.412 -1.3881 -0.2307  2.1236
   69MOL   H15622052   5.829   3.219   1.177  1.0509  0.7162  0.1286
   69MOL   H15722053   5.675   3.528   1.158  0.8250 -0.0793  1.9240
   69MOL   H15822054   5.609   3.364   1.176 -0.7908  1.0425 -0.6084
   69MOL   H15922055   5.723   3.396   1.051  0.8165  0.3396  0.1185
   69MOL   H16022056   5.957   3.487   1.369 -2.1892 -2.6361  2.9246
   69MOL   H16122057   5.844   3.601   1.283  1.5356  0.3074  0.7944
   69MOL   C16222058   5.743   3.178   1.367 -0.0088  0.7104  0.3358
   69MOL   C16322059   5.747   3.226   1.511  0.2633  0.1545 -0.2982
   69MOL   C16422060   5.719   3.024   1.355  0.1843 -1.2182  0.5100
   69MOL   C16522061   5.750   2.973   1.211 -0.8225 -0.3741  0.0006
   69MOL   C16622062   5.654   3.017   1.100 -0.5014  0.3246  0.3118
   69MOL   C16722063   5.854   2.889   1.181 -0.2337  0.5015  0.5932
   69MOL   H16822064   5.643   3.208   1.337  0.1436  0.5491 -0.3396
   69MOL   H16922065   5.659   3.287   1.526 -0.2239 -0.1921 -1.6857
   69MOL   H17022066   5.820   3.304   1.534  1.0601 -0.3182 -1.1734
   69MOL   H17122067   5.752   3.143   1.582  3.2535  0.7023  0.2150
   69MOL   H17222068   5.792   2.975   1.419 -0.7487 -2.0195  0.9578
   69MOL   H17322069   5.547   3.015   1.122 -0.8552 -2.4574 -1.4228
   69MOL   H17422070   5.673   2.964   1.007 -0.1901  0.1338  0.4856
   69MOL   H17522071   5.682   3.118   1.070 -0.9130  0.0061 -1.1863
   69MOL   H17622072   5.905   2.853   1.269 -0.3783 -0.6669  0.2114
   69MOL   H17722073   5.893   2.854   1.087 -0.2958  2.9980 -0.3956
   69MOL   C17822074   5.576   2.956   1.388 -0.2757  0.3297  0.2599
   69MOL   C17922075   5.503   3.013   1.516 -0.8838  0.0122  0.2624
   69MOL   C18022076   5.557   2.801   1.377  0.7291 -0.2617  0.0740
   69MOL   C18122077   5.420   2.770   1.319 -0.3906 -0.1822  0.6828
   69MOL   C18222078   5.418   2.753   1.168 -0.3332  0.3790 -0.1799
   69MOL   C18322079   5.311   2.751   1.392  0.3699  0.6941 -0.7081
   69MOL   H18422080   5.501   2.986   1.315  2.0257  3.7704 -0.7916
   69MOL   H18522081   5.409   2.966   1.543 -2.7050  2.0462 -2.3546
   69MOL   H18622082   5.487   3.121   1.514 -2.6950 -0.2154  1.4617
   69MOL   H18722083   5.567   3.006   1.604 -0.1067  0.1125 -0.2906
   69MOL   H18822084   5.633   2.759   1.310 -0.7002  1.3072 -2.5875
   69MOL   H18922085   5.327   2.705   1.131 -0.5719 -0.0966  1.0115
   69MOL   H19022086   5.496   2.682   1.142 -1.6120 -1.2666  0.3970
   69MOL   H19122087   5.430   2.853   1.127  1.3428 -0.0627 -0.7889
   69MOL   H19222088   5.310   2.767   1.499  0.0592  0.9658 -0.7486
   69MOL   H19322089   5.213   2.735   1.349  0.1714  0.9723 -0.3728
   69MOL   C19422090   5.594   2.719   1.513  0.2382  0.5429  0.0293
   69MOL   C19522091   5.729   2.751   1.566 -0.2636 -0.2838  0.0863
   69MOL   C19622092   5.572   2.567   1.501 -0.4132  0.4621 -0.0089
   69MOL   C19722093   5.500   2.514   1.627 -0.0739 -0.8089  0.4128
   69MOL   C19822094   5.577   2.516   1.757  0.4798 -0.2172 -0.2368
   69MOL   C19922095   5.364   2.494   1.627 -0.1557  0.4115 -0.4791
   69MOL   H20022096   5.523   2.752   1.589 -0.0085 -0.4508  0.2356
   69MOL   H20122097   5.735   2.851   1.609  1.8713  0.3606 -1.6264
   69MOL   H20222098   5.801   2.736   1.486  0.3847 -0.4017  0.6847
   69MOL   H20322099   5.765   2.685   1.644 -0.2355  0.3491  0.6125
   69MOL   H20422100   5.499   2.558   1.421 -1.1971  4.9948  0.0682
   69MOL   H20522101   5.511   2.474   1.832 -0.7244  2.7892  0.4443
   69MOL   H20622102   5.612   2.613   1.792  0.3373  0.4408 -1.8792
   69MOL   H20722103   5.669   2.460   1.744 -1.2660 -3.4183  0.6251
   69MOL   H20822104   5.307   2.499   1.535 -0.4726 -0.8791 -0.3683
   69MOL   H20922105   5.311   2.466   1.717 -0.6999  1.3345 -0.5055
   69MOL   C21022106   5.686   2.482   1.443 -0.4392  0.4777  0.1529
   69MOL   C21122107   5.735   2.523   1.292  0.3098 -0.0163  0.3400
   69MOL   C21222108   5.671   2.325   1.448 -0.9498 -0.0080 -0.0851
   69MOL   C21322109   5.804   2.262   1.470  0.5640  0.1828 -0.4425
   69MOL   C21422110   5.876   2.294   1.602  0.2591 -0.3787 -0.2793
   69MOL   C21522111   5.873   2.199   1.372  0.4550  0.0838  1.1751
   69MOL   H21622112   5.773   2.510   1.503  0.5316  3.3023 -2.4669
   69MOL   H21722113   5.649   2.553   1.232  0.1331 -0.4830  0.3572
   69MOL   H21822114   5.767   2.425   1.255  0.1039 -0.5220  1.4796
   69MOL   H21922115   5.814   2.597   1.279  1.0910 -1.2458 -2.3346
   69MOL   H22022116   5.625   2.299   1.544  1.4748 -0.9022  0.8731
   69MOL   H22122117   5.961   2.229   1.620  0.8125  0.0207 -1.3798
   69MOL   H22222118   5.805   2.276   1.683 -1.7366  1.6398 -1.5067
   69MOL   H22322119   5.919   2.394   1.595 -0.6192 -0.0963 -2.1059
   69MOL   H22422120   5.817   2.185   1.281  0.4603 -0.1458  1.2078
   69MOL   H22522121   5.973   2.158   1.382  0.8096  0.7449  0.4756
   69MOL   C22622122   5.573   2.256   1.338 -0.6356  0.1071  0.4698
   69MOL   C22722123   5.437   2.327   1.296  0.3127  0.7441 -0.1895
   69MOL   C22822124   5.549   2.109   1.376  0.0071 -0.1367 -0.2411
   69MOL   C22922125   5.562   2.018   1.246 -0.3144 -0.2246 -0.0776
   69MOL   C23022126   5.449   2.015   1.150 -0.0725  0.0661  0.6134
   69MOL   C23122127   5.677   1.956   1.214 -0.9342 -0.6983 -0.3581
   69MOL   H23222128   5.630   2.258   1.245 -1.0946  0.7636  0.1997
   69MOL   H23322129   5.380   2.372   1.378 -0.9568  2.1937 -1.8280
   69MOL   H23422130   5.367   2.260   1.246 -0.8171  0.5066  1.6516
   69MOL   H23522131   5.459   2.418   1.239 -0.0520  1.9391  1.5283
   69MOL   H23622132   5.633   2.065   1.430  0.0603 -0.0220 -0.2303
   69MOL   H23722133   5.479   1.937   1.080  1.0513  1.8015 -0.9044
   69MOL   H23822134   5.425   2.116   1.116 -0.2407 -0.4620 -0.8809
   69MOL   H23922135   5.355   1.978   1.192  0.3544  0.3978  1.8864
   69MOL   H24022136   5.761   1.963   1.282  0.3841 -1.3983 -1.8591
   69MOL   H24122137   5.699   1.904   1.122  0.7460 -0.0013 -0.3792
   69MOL   C24222138   5.421   2.066   1.456 -1.0410  0.4041  0.0769
   69MOL   C24322139   5.400   2.155   1.577  0.0799  0.5386  0.3631
   69MOL   C24422140   5.432   1.908   1.496  0.1965  0.0031  0.0195
   69MOL   C24522141   5.285   1.847   1.494  0.0405 -0.4405 -0.1241
   69MOL   C24622142   5.177   1.884   1.595 -0.1593  0.0775 -0.0788
   69MOL   C24722143   5.253   1.759   1.399 -0.1913  0.6161  0.3872
   69MOL   H24822144   5.337   2.084   1.390 -0.1561  2.6914 -0.4523
   69MOL   H24922145   5.484   2.182   1.641 -0.3814 -0.0047  1.2101
   69MOL   H25022146   5.322   2.110   1.639  0.0777  2.0662  1.5016
   69MOL   H25122147   5.343   2.247   1.562  1.5432  1.5486  0.8763
   69MOL   H25222148   5.468   1.854   1.409  4.9112  2.5848  0.1623
   69MOL   H25322149   5.210   1.885   1.699 -0.1144  1.6800 -0.0875
   69MOL   H25422150   5.090   1.821   1.578  0.1276 -0.2571 -0.3104
   69MOL   H25522151   5.137   1.985   1.580 -1.2545 -0.5075 -1.2026
   69MOL   H25622152   5.329   1.728   1.330  1.3818  2.2242  1.3580
   69MOL   H25722153   5.153   1.718   1.389 -0.2656  1.2971 -1.8621
   69MOL   C25822154   5.513   1.869   1.624 -0.3862 -0.3941 -0.5339
   69MOL   C25922155   5.648   1.940   1.649 -0.8062 -0.2684  0.4114
   69MOL   C26022156   5.506   1.709   1.664  0.7221 -0.1574 -1.0176
   69MOL   C26122157   5.496   1.701   1.820  0.2043  0.4122 -0.0025
   69MOL   C26222158   5.355   1.681   1.873  0.0226  0.4176 -0.1449
   69MOL   C26322159   5.607   1.695   1.902 -0.0927  0.0339 -0.0451
   69MOL   H26422160   5.462   1.922   1.705 -0.3435  0.5369 -1.1069
   69MOL   H26522161   5.638   2.043   1.683  0.1250 -1.3209  4.1090
   69MOL   H26622162   5.715   1.941   1.563  1.7729 -2.1938  2.3566
   69MOL   H26722163   5.703   1.888   1.727 -2.1244 -2.0456  0.1754
   69MOL   H26822164   5.405   1.676   1.637  0.4709 -0.5567  0.3565
   69MOL   H26922165   5.309   1.591   1.830 -1.6191  0.5387  1.2799
   69MOL   H27022166   5.295   1.770   1.855 -1.6011 -0.7541 -0.6744
   69MOL   H27122167   5.369   1.681   1.981  1.7806 -0.8822 -0.3473
   69MOL   H27222168   5.711   1.706   1.874 -0.5613  1.6938 -1.2097
   69MOL   H27322169   5.595   1.680   2.008  1.7970 -2.5445 -0.1523
   69MOL   C27422170   5.626   1.629   1.602 -0.0571  0.0692 -1.0181
   69MOL   C27522171   5.657   1.647   1.448  0.0715 -0.5007  0.1354
   69MOL   C27622172   5.618   1.476   1.641  0.0385 -0.3361  0.3449
   69MOL   C27722173   5.763   1.418   1.647  0.0648  0.5876  0.1970
   69MOL   C27822174   5.824   1.407   1.786 -0.2624 -0.6727  0.0991
   69MOL   C27922175   5.820   1.359   1.540 -0.1416 -0.2433 -0.3172
   69MOL   H28022176   5.710   1.658   1.665 -0.0876 -0.8674 -0.5405
   69MOL   H28122177   5.749   1.592   1.430 -0.3733 -0.9120 -0.9105
   69MOL   H28222178   5.683   1.751   1.426  0.4711 -0.8190 -0.8819
   69MOL   H28322179   5.564   1.621   1.397 -0.1123  0.1988  0.1091
   69MOL   H28422180   5.589   1.468   1.746 -1.0453 -0.4445  0.0442
   69MOL   H28522181   5.920   1.355   1.791  0.0818 -0.0623 -0.2168
   69MOL   H28622182   5.758   1.360   1.859 -1.1670 -1.2869 -1.0925
   69MOL   H28722183   5.849   1.506   1.822  0.0560 -1.3106  1.6727
   69MOL   H28822184   5.784   1.367   1.438  2.3853  0.7703 -1.1866
   69MOL   H28922185   5.913   1.309   1.560  0.0126  0.5141  0.9231
   69MOL   C29022186   5.507   1.384   1.554  0.3727 -0.0811  0.0354
   69MOL   C29122187   5.363   1.433   1.540  0.5516 -0.5756 -0.1121
   69MOL   C29222188   5.499   1.229   1.579  0.1277 -0.1482 -0.5026
   69MOL   C29322189   5.488   1.147   1.451  0.1137  0.0854 -0.1772
   69MOL   C29422190   5.348   1.102   1.405 -0.3183  0.1580  0.6464
   69MOL   C29522191   5.598   1.115   1.382  0.6761  0.3851  1.0218
   69MOL   H29622192   5.552   1.399   1.456 -2.4216 -2.0360 -1.6285
   69MOL   H29722193   5.318   1.460   1.636 -1.7435  1.7955 -1.7738
   69MOL   H29822194   5.299   1.376   1.471  1.1432 -0.0494 -1.0953
   69MOL   H29922195   5.362   1.526   1.484  0.9141  1.7126  3.5279
   69MOL   H30022196   5.600   1.198   1.605  0.1244 -2.0856 -2.6451
   69MOL   H30122197   5.289   1.048   1.480 -2.8051 -0.4740 -1.6886
   69MOL   H30222198   5.344   1.048   1.311 -0.3925 -1.2531  1.4476
   69MOL   H30322199   5.276   1.183   1.393  0.8046  1.1911  0.8122
   69MOL   H30422200   5.694   1.154   1.414 -0.0519  1.3228  2.1125
   69MOL   H30522201   5.605   1.062   1.288  0.2837  0.3391  1.0161
   69MOL   C30622202   5.403   1.177   1.691  0.5007 -0.0835  0.8802
   69MOL   C30722203   5.400   1.260   1.818 -0.6017 -0.3765 -0.1946
   69MOL   C30822204   5.438   1.035   1.735  0.2438 -0.6276  0.2146
   69MOL   C30922205   5.330   0.952   1.796  0.1334 -0.2864  0.0490
   69MOL   C31022206   5.370   0.812   1.823  0.7604 -0.1724 -0.7823
   69MOL   C31122207   5.205   0.999   1.819  0.8779  0.0015 -0.0707
   69MOL   H31222208   5.303   1.190   1.650  1.3458  1.4930 -0.7561
   69MOL   H31322209   5.503   1.248   1.852 -0.1416  1.8775 -0.7404
   69MOL   H31422210   5.334   1.220   1.896  0.2495  0.0467  0.7609
   69MOL   H31522211   5.389   1.368   1.816  1.3556 -0.1239  1.1025
   69MOL   H31622212   5.471   0.985   1.644  1.0076 -0.2639  0.2887
   69MOL   H31722213   5.283   0.751   1.846 -0.3823  1.7458  0.0845
   69MOL   H31822214   5.442   0.811   1.905  1.4703  1.3383 -1.3593
   69MOL   H31922215   5.419   0.786   1.728  3.3500  1.7782 -0.0476
   69MOL   H32022216   5.166   1.097   1.797 -1.5065 -0.7407  0.6832
   69MOL   H32122217   5.141   0.929   1.872  1.6370 -1.8150 -1.5150
   69MOL   H32222218   5.521   1.043   1.805  0.9210  0.2522 -0.6739
   70MOL     C122219   6.373   2.102   3.128 -0.2887  0.6168 -0.0411
   70MOL     C222220   6.305   2.177   3.010 -0.1994  0.0690  0.3241
   70MOL     C322221   6.290   1.993   3.198  0.1866 -0.3131  0.3357
   70MOL     C422222   6.143   2.045   3.194  0.0654  0.3361 -0.2293
   70MOL     C522223   6.100   2.173   3.277 -0.1393  0.5164  1.0513
   70MOL     C622224   6.053   1.979   3.121  0.2698 -1.0768 -0.7694
   70MOL     H722225   6.473   2.062   3.111  0.3163  0.0863  4.2761
   70MOL     H822226   6.299   2.111   2.923  1.3518  0.7852 -0.3467
   70MOL     H922227   6.362   2.264   2.977 -0.4315  0.6437  1.4452
   70MOL    H1022228   6.220   2.237   3.042  1.5026  1.8329  1.6377
   70MOL    H1122229   6.282   1.907   3.132 -1.3634  1.3275 -1.6690
   70MOL    H1222230   6.154   2.265   3.258 -1.5623  0.8619 -1.5702
   70MOL    H1322231   6.105   2.145   3.383 -2.3732 -0.6407  0.8871
   70MOL    H1422232   5.997   2.197   3.252 -0.2054 -0.6100  0.1903
   70MOL    H1522233   6.080   1.888   3.071  0.2665 -1.6632  0.2837
   70MOL    H1622234   5.955   2.023   3.112  0.2057 -0.9228  0.4809
   70MOL    H1722235   6.388   2.181   3.201 -0.6137  0.7573 -0.1242
   70MOL    C1822236   6.335   1.952   3.345 -0.8581  0.5612  0.1053
   70MOL    C1922237   6.421   2.052   3.417  0.1885  0.8051 -0.5500
   70MOL    C2022238   6.382   1.807   3.372 -0.5804 -0.3278  0.4595
   70MOL    C2122239   6.512   1.780   3.302 -0.4001 -0.2691 -0.3470
   70MOL    C2222240   6.525   1.755   3.153 -0.5471  0.4879  0.4274
   70MOL    C2322241   6.623   1.793   3.371 -0.5515 -0.4931  0.1885
   70MOL    H2422242   6.242   1.975   3.397 -0.1838  2.1865  0.6342
   70MOL    H2522243   6.526   2.041   3.388 -0.4191 -2.6913 -1.6774
   70MOL    H2622244   6.414   2.024   3.522  0.6731 -2.6233 -1.3838
   70MOL    H2722245   6.385   2.155   3.414 -1.3548  0.2558 -1.0796
   70MOL    H2822246   6.403   1.803   3.479 -0.0188 -0.6193  0.3348
   70MOL    H2922247   6.478   1.834   3.093  0.4893 -1.3084 -2.8949
   70MOL    H3022248   6.487   1.657   3.124 -0.6857  0.5177  0.5121
   70MOL    H3122249   6.630   1.761   3.124 -0.3817  1.6187  1.2243
   70MOL    H3222250   6.617   1.824   3.475 -0.2139  1.4114 -0.3288
   70MOL    H3322251   6.720   1.790   3.325 -0.5470  1.0471  0.0645
   70MOL    C3422252   6.271   1.692   3.349  0.2963 -0.0729  0.0649
   70MOL    C3522253   6.132   1.712   3.415 -0.1913 -0.1033 -0.4509
   70MOL    C3622254   6.317   1.541   3.341  0.3269 -0.3921 -0.5367
   70MOL    C3722255   6.224   1.469   3.235 -0.7601  0.1562  0.2316
   70MOL    C3822256   6.272   1.466   3.085  0.3620 -0.2163  0.4489
   70MOL    C3922257   6.113   1.404   3.265  0.5554 -0.9417  0.2200
   70MOL    H4022258   6.243   1.709   3.245  1.2648 -2.4139 -0.5972
   70MOL    H4122259   6.092   1.802   3.369  2.6104 -0.2976 -3.4420
   70MOL    H4222260   6.143   1.744   3.518  3.6346 -0.0590 -0.8130
   70MOL    H4322261   6.056   1.634   3.416 -1.1292  0.7515 -2.5988
   70MOL    H4422262   6.413   1.525   3.291  0.0004 -1.2662 -0.9096
   70MOL    H4522263   6.274   1.570   3.051 -2.6155 -0.2278  0.1766
   70MOL    H4622264   6.202   1.414   3.021  0.3301  1.0627 -0.5676
   70MOL    H4722265   6.366   1.418   3.057 -1.8818 -3.6139 -1.5073
   70MOL    H4822266   6.067   1.399   3.363  0.7258 -1.9155  0.2571
   70MOL    H4922267   6.062   1.346   3.189 -2.8304 -0.5659  2.0964
   70MOL    C5022268   6.339   1.483   3.483 -0.0059  0.3494  0.3447
   70MOL    C5122269   6.402   1.559   3.595 -0.7379 -1.0942  0.4580
   70MOL    C5222270   6.384   1.327   3.485  0.0324 -0.4652  0.3729
   70MOL    C5322271   6.284   1.245   3.578  0.3338  0.0209  0.7106
   70MOL    C5422272   6.269   1.095   3.546  0.9821  0.4460  0.4588
   70MOL    C5522273   6.209   1.296   3.677  0.2343 -0.3222 -0.1006
   70MOL    H5622274   6.236   1.477   3.516 -0.4797  2.7490 -0.5833
   70MOL    H5722275   6.343   1.650   3.605 -0.0778 -0.7809  1.4841
   70MOL    H5822276   6.500   1.590   3.558 -1.0993  2.1467  2.0433
   70MOL    H5922277   6.405   1.501   3.687 -0.1236 -0.9495  0.5278
   70MOL    H6022278   6.340   1.293   3.392  0.7741 -0.8396  0.1509
   70MOL    H6122279   6.203   1.042   3.614  0.0916  2.8407  1.4981
   70MOL    H6222280   6.368   1.049   3.543  0.6524 -0.2404  0.0601
   70MOL    H6322281   6.232   1.076   3.445  0.0722 -1.5560  1.1486
   70MOL    H6422282   6.216   1.401   3.702 -0.3624 -0.8629  2.5355
   70MOL    H6522283   6.139   1.232   3.728  2.5097 -3.9946 -1.3952
   70MOL    C6622284   6.535   1.273   3.497  0.3615  0.4754  0.1351
   70MOL    C6722285   6.587   1.306   3.642  0.0864  0.5977 -0.3743
   70MOL    C6822286   6.628   1.326   3.384 -0.7640  0.0786 -0.2138
   70MOL    C6922287   6.572   1.283   3.248  0.1811 -0.9159  0.3660
   70MOL    C7022288   6.616   1.372   3.131  0.4970  0.5046 -0.0017
   70MOL    C7122289   6.496   1.176   3.220  0.8070 -0.7178 -0.0221
   70MOL    H7222290   6.520   1.165   3.492 -0.8126  0.7257 -2.3364
   70MOL    H7322291   6.516   1.280   3.721  1.5465 -1.2695  0.3563
   70MOL    H7422292   6.621   1.409   3.648 -0.4251  0.6628  2.0752
   70MOL    H7522293   6.676   1.248   3.666  0.0374  0.9502  0.7174
   70MOL    H7622294   6.621   1.435   3.389 -0.3727  0.1273 -0.6932
   70MOL    H7722295   6.574   1.358   3.031 -1.3720 -3.1812  1.2346
   70MOL    H7822296   6.718   1.342   3.106 -0.5823  0.1358 -4.4708
   70MOL    H7922297   6.614   1.474   3.170 -1.7367  0.3169  0.4480
   70MOL    H8022298   6.468   1.114   3.305 -2.0718 -0.7724 -0.9559
   70MOL    H8122299   6.457   1.143   3.125  1.8627 -0.0521 -0.6978
   70MOL    C8222300   6.781   1.287   3.397 -0.0104 -1.0811  0.3092
   70MOL    C8322301   6.789   1.136   3.441  0.2988 -0.0546  0.2090
   70MOL    C8422302   6.879   1.384   3.472  0.3364  0.0165  0.4286
   70MOL    C8522303   6.871   1.523   3.430 -0.1920 -0.2272 -0.2283
   70MOL    C8622304   6.849   1.623   3.544 -0.5356  0.4597  0.7146
   70MOL    C8722305   6.886   1.558   3.304 -0.7856  0.3206  0.2394
   70MOL    H8822306   6.811   1.290   3.292  0.1674 -2.2632  0.3224
   70MOL    H8922307   6.887   1.090   3.425  0.0469 -1.1827  1.7893
   70MOL    H9022308   6.718   1.086   3.376  1.0984 -0.9602  0.0123
   70MOL    H9122309   6.767   1.116   3.546 -0.2009 -0.2524  0.0678
   70MOL    H9222310   6.856   1.389   3.578 -1.1152 -0.9940  0.1668
   70MOL    H9322311   6.919   1.601   3.625 -0.7046 -0.3160  0.6546
   70MOL    H9422312   6.746   1.629   3.580 -0.9606  0.5682 -0.5087
   70MOL    H9522313   6.866   1.727   3.518  1.7165  0.1809  0.9302
   70MOL    H9622314   6.902   1.476   3.236 -1.4407 -1.2405  1.9216
   70MOL    H9722315   6.888   1.660   3.269 -0.3243  0.1718 -0.1703
   70MOL    C9822316   7.031   1.343   3.477 -0.3484 -0.3119  0.3034
   70MOL    C9922317   7.087   1.294   3.344  0.3649  0.4051  0.4045
   70MOL   C10022318   7.071   1.234   3.588 -0.1818 -0.8406  0.8401
   70MOL   C10122319   7.006   1.274   3.728 -0.1885 -0.1413  0.4320
   70MOL   C10222320   7.064   1.400   3.798  0.2764 -0.0650 -0.5512
   70MOL   C10322321   6.920   1.204   3.801 -0.4463  0.1677 -0.0562
   70MOL   H10422322   7.092   1.433   3.487 -1.7716  0.6572  0.4396
   70MOL   H10522323   7.016   1.233   3.288  2.5196  0.8226 -2.8737
   70MOL   H10622324   7.182   1.240   3.344 -0.3298 -0.8493 -0.0700
   70MOL   H10722325   7.095   1.384   3.284 -0.0543 -0.6500 -1.2752
   70MOL   H10822326   7.027   1.141   3.552  0.2109 -0.4333 -0.7152
   70MOL   H10922327   7.161   1.369   3.838  1.3190  0.4699 -2.6141
   70MOL   H11022328   7.000   1.421   3.884  1.5335 -0.7842  0.5840
   70MOL   H11122329   7.082   1.492   3.742 -2.9875  1.2819  0.4962
   70MOL   H11222330   6.879   1.116   3.754 -1.7860  1.2751 -0.9733
   70MOL   H11322331   6.889   1.223   3.903  3.5259 -0.3022  1.3417
   70MOL   C11422332   7.223   1.204   3.615 -0.2885  0.3149  0.8461
   70MOL   C11522333   7.310   1.327   3.566  0.0762 -0.5763 -0.8329
   70MOL   C11622334   7.273   1.056   3.567  0.6018 -0.6271 -0.1507
   70MOL   C11722335   7.197   0.933   3.617  0.3666  0.1070 -0.6931
   70MOL   C11822336   7.185   0.820   3.521  0.9061  0.6869 -0.7106
   70MOL   C11922337   7.131   0.934   3.737 -0.2380  0.2767 -0.4756
   70MOL   H12022338   7.245   1.198   3.722  1.6932  0.8817  0.4941
   70MOL   H12122339   7.262   1.422   3.589  1.7887  0.3603 -1.0275
   70MOL   H12222340   7.355   1.329   3.467  2.3071  0.2396  0.1630
   70MOL   H12322341   7.394   1.343   3.633 -1.0910  2.2232  0.0392
   70MOL   H12422342   7.226   1.058   3.469 -1.3414  0.2032  0.7653
   70MOL   H12522343   7.121   0.743   3.562  0.7279  1.7661  1.0947
   70MOL   H12622344   7.279   0.775   3.490  0.8948 -0.2305  0.5626
   70MOL   H12722345   7.118   0.856   3.442 -0.3523  1.2616  0.5976
   70MOL   H12822346   7.138   1.014   3.809  1.1158 -0.9000  0.7169
   70MOL   H12922347   7.079   0.847   3.774  1.3887  0.6108  2.7270
   70MOL   C13022348   7.425   1.030   3.532 -0.0924 -0.2321 -0.2682
   70MOL   C13122349   7.445   0.993   3.385 -0.3271 -0.2585  0.3511
   70MOL   C13222350   7.490   0.939   3.640  0.6300  0.2951  0.0048
   70MOL   C13322351   7.445   0.961   3.787 -0.9676  0.1043  0.5156
   70MOL   C13422352   7.429   0.833   3.872  0.7203  0.1496  0.0088
   70MOL   C13522353   7.447   1.085   3.834 -0.2442  0.0119 -0.1379
   70MOL   H13622354   7.478   1.123   3.553 -0.1996 -0.4258  0.8749
   70MOL   H13722355   7.390   0.906   3.349  0.0593 -1.2989  2.2333
   70MOL   H13822356   7.550   0.989   3.355 -0.9221 -1.5898 -1.6751
   70MOL   H13922357   7.391   1.077   3.340 -1.5080 -1.3416 -0.2760
   70MOL   H14022358   7.441   0.846   3.609  1.3665  0.2791 -1.1594
   70MOL   H14122359   7.382   0.751   3.816  0.8847 -0.3697  0.6268
   70MOL   H14222360   7.365   0.848   3.958 -2.1751 -2.9390 -1.4620
   70MOL   H14322361   7.525   0.792   3.903  0.5209  0.3069  0.8425
   70MOL   H14422362   7.458   1.168   3.766 -1.8486 -1.1631 -1.9065
   70MOL   H14522363   7.429   1.101   3.939 -2.5205 -2.1152 -0.1491
   70MOL   C14622364   7.645   0.910   3.627  0.1934 -0.4376 -0.3676
   70MOL   C14722365   7.726   1.039   3.612  0.5596 -0.5538 -0.4974
   70MOL   C14822366   7.675   0.786   3.534 -0.1885  0.0075  0.2874
   70MOL   C14922367   7.605   0.655   3.582 -0.5791  0.5101  0.1504
   70MOL   C15022368   7.671   0.568   3.694 -0.3967 -0.3762  0.3039
   70MOL   C15122369   7.498   0.610   3.518  0.4042  0.4899  0.4019
   70MOL   H15222370   7.678   0.888   3.729 -1.8436  1.5185  0.7722
   70MOL   H15322371   7.831   1.016   3.632  0.7709  0.2901 -0.6223
   70MOL   H15422372   7.710   1.110   3.694 -1.4726 -0.6210 -0.8145
   70MOL   H15522373   7.715   1.099   3.522  2.0625  1.9732  0.9515
   70MOL   H15622374   7.612   0.806   3.448  1.3164  0.1753 -0.8052
   70MOL   H15722375   7.689   0.614   3.791  2.0056 -1.8694  0.6201
   70MOL   H15822376   7.766   0.521   3.667 -0.2848 -0.0936  0.2033
   70MOL   H15922377   7.602   0.484   3.706 -0.2541 -0.6977 -1.0665
   70MOL   H16022378   7.456   0.680   3.447  0.4114  3.0085  2.8327
   70MOL   H16122379   7.445   0.520   3.546  0.9693  0.4541  1.3651
   70MOL   C16222380   7.821   0.761   3.480  0.2543  0.2243 -0.2740
   70MOL   C16322381   0.025   0.756   3.602 -0.4808  0.1808 -0.0889
   70MOL   C16422382   7.878   0.845   3.361  0.0493  0.7336 -0.4454
   70MOL   C16522383   7.783   0.888   3.252  0.0758  0.2230  0.9015
   70MOL   C16622384   7.814   1.026   3.193 -0.5543  0.5094 -0.1336
   70MOL   C16722385   7.691   0.799   3.199  0.1520  0.4740 -0.1037
   70MOL   H16822386   7.823   0.658   3.445  1.0038  0.0818  0.1739
   70MOL   H16922387   0.075   0.659   3.612 -0.6907  0.3745  3.3844
   70MOL   H17022388   7.858   0.766   3.693  0.6698  2.1704  0.4890
   70MOL   H17122389   0.090   0.842   3.619  0.8533 -1.3612  3.0463
   70MOL   H17222390   0.012   0.937   3.413  1.3130 -1.2500  2.6050
   70MOL   H17322391   7.855   1.095   3.267  0.8473 -0.7611  0.3241
   70MOL   H17422392   7.732   1.059   3.129 -1.8801 -0.2325  1.1605
   70MOL   H17522393   7.886   1.025   3.111  0.0396 -1.8552  0.3715
   70MOL   H17622394   7.677   0.705   3.250  0.9838  0.9147  0.9537
   70MOL   H17722395   7.641   0.823   3.106  1.4607 -0.3029 -1.0095
   70MOL   C17822396   0.110   0.792   3.288 -0.2644  0.8222 -0.1187
   70MOL   C17922397   0.080   0.656   3.218 -0.2927 -0.3867 -0.3975
   70MOL   C18022398   0.247   0.795   3.375 -0.2719 -0.3102  0.1332
   70MOL   C18122399   0.289   0.936   3.427  0.6837 -0.6325 -1.1741
   70MOL   C18222400   0.363   0.940   3.560  0.3574  0.1017 -0.0595
   70MOL   C18322401   0.264   1.055   3.369 -0.3730 -0.5743  0.2888
   70MOL   H18422402   0.126   0.841   3.191  0.0949 -0.3218 -0.6421
   70MOL   H18522403   0.000   0.663   3.144 -2.8092 -0.4017  2.2300
   70MOL   H18622404   0.047   0.584   3.292  1.0494  2.0010  2.6636
   70MOL   H18722405   0.166   0.623   3.160  1.3168  1.2769  0.9736
   70MOL   H18822406   0.242   0.726   3.459 -0.6735 -0.3857  0.0516
   70MOL   H18922407   0.387   1.044   3.585 -2.7130  1.4752 -2.5455
   70MOL   H19022408   0.457   0.884   3.556  0.2762 -0.1387  1.1429
   70MOL   H19122409   0.306   0.897   3.642  0.7069  0.5542  0.4249
   70MOL   H19222410   0.209   1.071   3.277 -0.9645 -0.0642  0.7275
   70MOL   H19322411   0.290   1.150   3.414  0.0736 -1.2027  1.3473
   70MOL   C19422412   0.374   0.721   3.307 -0.1826 -0.6561 -0.1512
   70MOL   C19522413   0.426   0.783   3.170  0.1681  0.1363  0.6379
   70MOL   C19622414   0.385   0.563   3.314  0.0880 -1.2358  0.0759
   70MOL   C19722415   0.327   0.507   3.443  0.2756  0.0937  0.6945
   70MOL   C19822416   0.396   0.538   3.575 -0.0086 -0.3012  0.1823
   70MOL   C19922417   0.213   0.435   3.445  0.6843  0.5368 -0.6695
   70MOL   H20022418   0.453   0.750   3.377 -1.0008 -1.0018  0.9248
   70MOL   H20122419   0.534   0.769   3.157  0.1665 -0.1372  0.9013
   70MOL   H20222420   0.403   0.887   3.147  0.0267  0.1461  0.8296
   70MOL   H20322421   0.375   0.727   3.091 -0.1699  0.6355  0.5036
   70MOL   H20422422   0.313   0.525   3.242  0.1794 -1.9273  0.3506
   70MOL   H20522423   0.425   0.643   3.580  0.5869 -0.2858 -2.9427
   70MOL   H20622424   0.488   0.481   3.583  1.2977  1.7089 -0.2373
   70MOL   H20722425   0.330   0.526   3.661 -2.9767  1.9900 -1.6634
   70MOL   H20822426   0.162   0.406   3.354  2.0399  0.5121 -1.4286
   70MOL   H20922427   0.166   0.402   3.537 -2.2154  0.7827 -1.9863
   70MOL   C21022428   0.521   0.493   3.276  0.3830 -0.3638 -0.0716
   70MOL   C21122429   0.638   0.580   3.329 -0.2714  0.9511 -0.0116
   70MOL   C21222430   0.542   0.475   3.114  0.1161 -0.0602 -0.1640
   70MOL   C21322431   0.422   0.397   3.043 -0.4393 -0.3766 -0.1688
   70MOL   C21422432   0.369   0.451   2.917 -0.0026 -0.1369  0.2105
   70MOL   C21522433   0.346   0.308   3.113 -0.4501 -0.0115 -0.3922
   70MOL   H21622434   0.517   0.395   3.324  2.2226 -0.2602  0.3329
   70MOL   H21722435   0.727   0.518   3.327 -0.0050  1.3464 -0.4743
   70MOL   H21822436   0.624   0.602   3.435 -0.1912 -0.1347  0.2305
   70MOL   H21922437   0.656   0.668   3.267 -1.0559  1.6673  0.7549
   70MOL   H22022438   0.537   0.575   3.072 -0.5981 -0.1907 -0.3934
   70MOL   H22122439   0.299   0.383   2.869  0.8474 -0.4791 -0.5547
   70MOL   H22222440   0.446   0.480   2.846 -1.2222  0.3488 -0.9206
   70MOL   H22322441   0.305   0.538   2.931 -1.0000 -1.4022  4.6057
   70MOL   H22422442   0.379   0.280   3.212 -2.5863 -0.7986  0.1250
   70MOL   H22522443   0.251   0.264   3.085  0.3724 -1.6334 -0.6662
   70MOL   C22622444   0.677   0.407   3.070 -0.0224  0.8896  0.1824
   70MOL   C22722445   0.715   0.289   3.157  0.2828 -0.2018 -0.2639
   70MOL   C22822446   0.797   0.502   3.042  0.2141 -0.1198  0.1098
   70MOL   C22922447   0.758   0.610   2.952  0.2823  0.0029 -0.0730
   70MOL   C23022448   0.801   0.755   2.989  0.0197  0.0168 -0.5921
   70MOL   C23122449   0.695   0.587   2.835 -0.4403  0.3978  0.4458
   70MOL   H23222450   0.661   0.363   2.972 -2.7986  3.4899 -0.5964
   70MOL   H23322451   0.769   0.210   3.107 -1.2673 -1.3964 -0.0876
   70MOL   H23422452   0.620   0.239   3.176  0.7703 -0.8176  0.5356
   70MOL   H23522453   0.763   0.316   3.251  0.5165  2.3580 -1.0578
   70MOL   H23622454   0.826   0.550   3.136 -0.5141  1.9380 -0.7041
   70MOL   H23722455   0.905   0.778   2.969  0.1784 -0.9323 -0.8971
   70MOL   H23822456   0.793   0.766   3.097 -2.6656 -0.0460 -0.7496
   70MOL   H23922457   0.730   0.827   2.948  1.1257  1.1858 -0.4660
   70MOL   H24022458   0.674   0.491   2.789 -2.0949  0.8377  0.2599
   70MOL   H24122459   0.668   0.674   2.776 -1.2206  0.9347  1.5857
   70MOL   C24222460   0.930   0.430   2.985  0.7317  0.5206 -0.8509
   70MOL   C24322461   0.906   0.318   2.880  0.8142  1.4139 -0.3134
   70MOL   C24422462   1.029   0.388   3.100  0.2012 -0.1272  0.0649
   70MOL   C24522463   1.061   0.498   3.197  0.4987 -0.7752 -0.5667
   70MOL   C24622464   1.041   0.465   3.343 -0.7568  0.0091 -0.0011
   70MOL   C24722465   1.084   0.629   3.160 -0.2176 -0.8552 -0.7671
   70MOL   H24822466   0.985   0.506   2.930  3.9114 -0.1940  1.2141
   70MOL   H24922467   0.835   0.344   2.801  0.9037 -0.0687 -0.9025
   70MOL   H25022468   0.856   0.231   2.923 -1.6205  1.6330 -2.4900
   70MOL   H25122469   0.997   0.294   2.825  0.2073  0.8252 -1.0941
   70MOL   H25222470   0.974   0.307   3.148  0.6146  0.7999  2.1835
   70MOL   H25322471   0.940   0.427   3.356 -1.1754  1.0131 -0.2970
   70MOL   H25422472   1.076   0.548   3.404 -0.8966  0.3836 -0.4249
   70MOL   H25522473   1.107   0.386   3.378 -1.1709 -0.3138  0.0479
   70MOL   H25622474   1.066   0.643   3.054 -1.0253  2.1892 -0.2514
   70MOL   H25722475   1.104   0.705   3.233 -1.1374 -1.0215 -0.3363
   70MOL   C25822476   1.167   0.320   3.057  0.0227 -0.1792  0.0610
   70MOL   C25922477   1.237   0.406   2.941 -0.1572  0.2011  0.1220
   70MOL   C26022478   1.169   0.164   3.033 -0.5378 -0.1693  0.6906
   70MOL   C26122479   1.109   0.093   3.154  0.1620  0.2574  0.4540
   70MOL   C26222480   1.015   7.866   3.125 -0.4668 -0.0653 -0.1505
   70MOL   C26322481   1.116   0.126   3.281  0.3224 -0.1042  0.7202
   70MOL   H26422482   1.241   0.329   3.137 -1.2242  1.3655  1.0577
   70MOL   H26522483   1.168   0.424   2.859  1.7168  2.3948 -1.0585
   70MOL   H26622484   1.334   0.370   2.906  0.2542  0.6861  0.7589
   70MOL   H26722485   1.253   0.509   2.974 -0.5548  0.1909  0.3488
   70MOL   H26822486   1.098   0.139   2.954 -0.9768  0.9668  0.7160
   70MOL   H26922487   0.940   0.002   3.050  2.0358  1.4859 -2.1713
   70MOL   H27022488   0.953   7.836   3.210  1.1263 -0.2437  0.9610
   70MOL   H27122489   1.073   7.782   3.086 -2.2239 -1.6113  0.4850
   70MOL   H27222490   1.178   0.210   3.309  2.5734 -1.2735 -0.6263
   70MOL   H27322491   1.068   0.077   3.364 -2.3572  1.0985 -0.0504
   70MOL   C27422492   1.308   0.098   2.980  1.0474 -0.1744 -0.7065
   70MOL   C27522493   1.269   7.861   2.904 -0.5031  0.1705 -0.4149
   70MOL   C27622494   1.422   0.066   3.088 -0.4926  0.0772  0.4420
   70MOL   C27722495   1.451   0.185   3.174 -0.1897  0.3111 -0.7002
   70MOL   C27822496   1.534   0.297   3.121 -0.1601 -0.2543 -0.1731
   70MOL   C27922497   1.436   0.182   3.308 -0.2138  0.1698  0.4632
   70MOL   H28022498   1.344   0.159   2.897  0.6259 -0.1096 -0.8391
   70MOL   H28122499   1.177   7.861   2.845 -0.2249 -1.9129 -0.9138
   70MOL   H28222500   1.267   7.781   2.978  0.5401 -0.5150 -1.1048
   70MOL   H28322501   1.347   7.824   2.836  1.4347 -1.0375  2.3579
   70MOL   H28422502   1.366   7.890   3.151  0.3126 -1.5518 -0.5698
   70MOL   H28522503   1.628   0.259   3.082  0.8515  1.8390  0.1488
   70MOL   H28622504   1.537   0.386   3.183  0.8939 -0.7099  0.4386
   70MOL   H28722505   1.498   0.338   3.026 -0.5981  0.0550  0.1253
   70MOL   H28822506   1.392   0.090   3.343  1.3112 -0.4942  0.6695
   70MOL   H28922507   1.467   0.266   3.369  1.7471  0.0063 -0.2670
   70MOL   C29022508   1.551   7.888   3.037 -0.0758  0.2655 -0.5438
   70MOL   C29122509   1.605   0.041   2.899  0.0998  0.1321 -0.4517
   70MOL   C29222510   1.541   7.727   3.046 -0.2843 -0.6252  0.1431
   70MOL   C29322511   1.502   7.671   3.182 -0.3095 -0.7124 -0.2426
   70MOL   C29422512   1.398   7.556   3.183 -0.1421 -0.4241 -0.0892
   70MOL   C29522513   1.544   7.723   3.298  0.1073 -0.0512 -0.3080
   70MOL   H29622514   1.630   0.026   3.106 -0.8649 -1.7738  1.3011
   70MOL   H29722515   1.583   0.143   2.868  1.9411  0.0642 -2.1091
   70MOL   H29822516   1.568   7.873   2.817 -1.8872  0.1734  0.3954
   70MOL   H29922517   1.714   0.043   2.898  0.0998  1.2759  0.9509
   70MOL   H30022518   1.465   7.707   2.971 -0.7252  1.9479 -0.1445
   70MOL   H30122519   1.301   7.601   3.161 -0.9308 -1.8140  0.5142
   70MOL   H30222520   1.393   7.522   3.287  0.7253  3.3758  1.2971
   70MOL   H30322521   1.421   7.480   3.110 -1.3965  0.6083 -1.5926
   70MOL   H30422522   1.604   7.812   3.285  0.4199 -0.0145  1.2237
   70MOL   H30522523   1.522   7.676   3.393  0.8215 -0.6362 -0.4291
   70MOL   C30622524   1.674   7.662   2.996  0.5854 -0.2674  0.2270
   70MOL   C30722525   1.655   7.510   2.985 -0.1183 -0.0294  0.3348
   70MOL   C30822526   1.797   7.703   3.087 -0.3740 -0.2087  0.7757
   70MOL   C30922527   1.922   7.659   3.007  0.0908 -0.7160 -0.3807
   70MOL   C31022528   1.971   7.765   2.904 -0.3969  0.0129 -0.5186
   70MOL   C31122529   1.999   7.556   3.049  0.6761 -0.2542  0.5389
   70MOL   H31222530   1.681   7.697   2.893 -0.2594 -0.7893 -0.0127
   70MOL   H31322531   1.575   7.484   2.916  1.2988 -2.2578 -0.5657
   70MOL   H31422532   1.637   7.456   3.078 -0.9001  1.2259  0.9134
   70MOL   H31522533   1.750   7.467   2.951 -0.8305  0.0176 -1.7500
   70MOL   H31622534   1.820   7.808   3.103  0.4287 -0.3302  0.4646
   70MOL   H31722535   2.071   7.730   2.876  0.1698 -0.6093  2.1171
   70MOL   H31822536   1.980   7.867   2.942 -1.3184 -0.7078  1.7549
   70MOL   H31922537   1.899   7.759   2.823 -0.1041  0.0475 -0.7807
   70MOL   H32022538   1.958   7.498   3.131 -2.1569 -0.6887 -1.1279
   70MOL   H32122539   2.093   7.531   3.003  0.6083 -1.2234  0.9035
   70MOL   H32222540   1.800   7.654   3.184  0.8154 -2.8527 -0.5359
   71MOL     C122541   5.605   2.472   4.266 -0.0654  0.4138  0.2623
   71MOL     C222542   5.541   2.482   4.397  0.6766 -0.0567 -0.5087
   71MOL     C322543   5.605   2.595   4.178 -0.3575 -0.1789 -0.6710
   71MOL     C422544   5.470   2.627   4.118  0.5895  0.1331  0.3544
   71MOL     C522545   5.442   2.771   4.080 -0.4821 -0.5081 -1.0909
   71MOL     C622546   5.371   2.542   4.101 -0.2108 -0.0266 -0.5597
   71MOL     H722547   5.707   2.448   4.294  0.2945  0.0933 -1.2487
   71MOL     H822548   5.434   2.504   4.396  0.8886  1.0206  0.1716
   71MOL     H922549   5.576   2.573   4.446  1.0116 -1.3578  1.7471
   71MOL    H1022550   5.558   2.396   4.461 -0.1461  0.4386  0.3912
   71MOL    H1122551   5.633   2.683   4.235  1.1667 -0.4450 -0.9704
   71MOL    H1222552   5.481   2.833   4.160  1.3535  0.4706 -2.7027
   71MOL    H1322553   5.337   2.780   4.052 -0.4085 -0.0063 -1.2126
   71MOL    H1422554   5.495   2.800   3.989 -1.5525 -1.3387 -1.9994
   71MOL    H1522555   5.386   2.441   4.137 -0.5038  0.0614 -0.1829
   71MOL    H1622556   5.277   2.570   4.057  0.1849  0.2274 -1.2496
   71MOL    H1722557   5.567   2.386   4.210  2.8950  1.1090 -2.9910
   71MOL    C1822558   5.713   2.589   4.062 -0.3047 -0.6800  0.7321
   71MOL    C1922559   5.689   2.467   3.970  0.0538 -0.2368 -0.3192
   71MOL    C2022560   5.865   2.611   4.105 -0.2108  0.1395  0.5787
   71MOL    C2122561   5.887   2.720   4.205  0.2266 -0.2790  0.1536
   71MOL    C2222562   5.849   2.856   4.152 -0.4497 -0.0626  0.0758
   71MOL    C2322563   5.944   2.709   4.326  0.2339 -0.0965 -0.1867
   71MOL    H2422564   5.697   2.681   4.006  1.0929 -1.2249 -0.5801
   71MOL    H2522565   5.732   2.452   3.871  0.0569  0.6909 -0.4672
   71MOL    H2622566   5.581   2.463   3.954 -0.1160 -0.3668  0.8628
   71MOL    H2722567   5.720   2.381   4.028  0.4992 -0.8341 -1.4293
   71MOL    H2822568   5.873   2.522   4.167 -0.1064  0.9300  1.7232
   71MOL    H2922569   5.931   2.902   4.098 -0.8190  1.3053  0.6752
   71MOL    H3022570   5.844   2.925   4.236  0.8627  1.2146 -0.8786
   71MOL    H3122571   5.751   2.858   4.105  0.1449  0.1161 -1.1626
   71MOL    H3222572   5.972   2.617   4.373 -2.6792  0.6100  3.1763
   71MOL    H3322573   5.956   2.805   4.374  1.6178 -0.6862  0.6597
   71MOL    C3422574   5.964   2.612   3.988  0.4379 -0.3138  0.2297
   71MOL    C3522575   5.896   2.696   3.867  0.3992 -0.7888  1.0030
   71MOL    C3622576   6.030   2.480   3.939  0.1219  0.8222 -0.5574
   71MOL    C3722577   6.048   2.389   4.060 -0.3036  0.1541 -0.1806
   71MOL    C3822578   6.155   2.436   4.162 -0.3319  0.2455  0.1058
   71MOL    C3922579   5.981   2.270   4.072 -0.7520 -0.2968 -0.3392
   71MOL    H4022580   6.050   2.667   4.026  1.6308 -1.6314 -0.5315
   71MOL    H4122581   5.985   2.708   3.805 -0.8376  0.3879 -0.5746
   71MOL    H4222582   5.864   2.797   3.890 -0.5779 -1.4998  2.8941
   71MOL    H4322583   5.821   2.645   3.807  0.8846 -0.4333  0.0857
   71MOL    H4422584   5.949   2.432   3.884 -0.3586 -0.7339  1.4703
   71MOL    H4522585   6.142   2.543   4.176 -1.2905  0.0837  0.4873
   71MOL    H4622586   6.250   2.408   4.117 -1.8486 -3.4141 -1.0400
   71MOL    H4722587   6.145   2.388   4.260 -0.7648  1.0705  0.4724
   71MOL    H4822588   5.917   2.240   3.990 -0.0157 -0.2304 -0.9461
   71MOL    H4922589   5.993   2.196   4.150 -0.0029 -0.8050 -0.9307
   71MOL    C5022590   6.161   2.476   3.851  0.0561  0.3439 -0.7020
   71MOL    C5122591   6.260   2.586   3.881 -0.3393  0.2995  0.1786
   71MOL    C5222592   6.119   2.458   3.692  0.9946  0.7299  0.4455
   71MOL    C5322593   6.019   2.348   3.659 -0.6816  0.6856  0.1831
   71MOL    C5422594   6.048   2.201   3.696  0.4455 -0.5117 -0.7044
   71MOL    C5522595   5.900   2.382   3.606  0.6978 -0.6199 -0.3983
   71MOL    H5622596   6.203   2.379   3.878  1.2276  0.9262 -0.3821
   71MOL    H5722597   6.310   2.585   3.978  1.2879  2.1591 -0.6100
   71MOL    H5822598   6.214   2.685   3.876  0.2595  0.5087 -1.8955
   71MOL    H5922599   6.348   2.572   3.818 -1.3598 -1.3461 -0.9392
   71MOL    H6022600   6.052   2.543   3.677 -0.7035 -0.1252  2.9017
   71MOL    H6122601   5.960   2.139   3.682  1.2202 -0.9608 -3.9349
   71MOL    H6222602   6.107   2.191   3.787  0.0191  0.9132 -0.2627
   71MOL    H6322603   6.125   2.176   3.623 -0.6160  1.6430 -2.6049
   71MOL    H6422604   5.865   2.481   3.582 -1.5636 -0.6733  2.4380
   71MOL    H6522605   5.830   2.304   3.584  0.0147 -0.0844 -0.1269
   71MOL    C6622606   6.233   2.449   3.588 -0.6405  0.5493  0.0020
   71MOL    C6722607   6.353   2.360   3.644  0.5271  0.6077 -0.1212
   71MOL    C6822608   6.279   2.589   3.522 -0.0133 -0.0869 -0.0881
   71MOL    C6922609   6.162   2.680   3.481 -0.2415 -0.3477 -0.4082
   71MOL    C7022610   6.058   2.635   3.376  0.3218  0.3685  0.0078
   71MOL    C7122611   6.156   2.804   3.533  0.8122 -0.2953  0.0498
   71MOL    H7222612   6.197   2.380   3.511 -2.5114  0.7308  0.6946
   71MOL    H7322613   6.320   2.268   3.692  1.1363 -0.2635 -1.3257
   71MOL    H7422614   6.416   2.416   3.712  0.6904  0.4230 -0.1201
   71MOL    H7522615   6.413   2.337   3.556  2.2503  0.0328  1.1656
   71MOL    H7622616   6.323   2.639   3.608 -1.8655  1.9213 -0.2469
   71MOL    H7722617   6.075   2.532   3.346  1.9296  1.2198 -2.1537
   71MOL    H7822618   6.070   2.690   3.283 -0.3238 -0.4510 -0.5663
   71MOL    H7922619   5.957   2.648   3.414  0.1575 -0.1669 -0.2447
   71MOL    H8022620   6.239   2.831   3.596  1.4961 -1.1045 -0.4941
   71MOL    H8122621   6.075   2.869   3.502  2.2573  2.4590  1.8731
   71MOL    C8222622   6.389   2.587   3.408  0.3057  0.3253 -0.4214
   71MOL    C8322623   6.362   2.472   3.313 -0.0383 -0.4034  0.5412
   71MOL    C8422624   6.535   2.602   3.462  0.4220  0.2063 -0.0214
   71MOL    C8522625   6.555   2.736   3.536  0.2368  0.3007 -0.5062
   71MOL    C8622626   6.551   2.860   3.454  0.1214 -0.6041 -0.1961
   71MOL    C8722627   6.572   2.744   3.670 -0.2374  0.5913 -0.2058
   71MOL    H8822628   6.377   2.672   3.341  1.6397 -0.0266 -1.1233
   71MOL    H8922629   6.386   2.372   3.351  1.0623 -0.2333  0.3036
   71MOL    H9022630   6.419   2.466   3.220  0.2116  1.8638  0.5228
   71MOL    H9122631   6.261   2.473   3.270  0.7819  2.1124 -1.4465
   71MOL    H9222632   6.534   2.525   3.539  0.6805 -0.6726 -0.8939
   71MOL    H9322633   6.637   2.867   3.387  0.3426 -1.3130 -0.0006
   71MOL    H9422634   6.568   2.942   3.523  0.7616 -2.7249  2.2555
   71MOL    H9522635   6.457   2.880   3.404  0.6012 -0.0872 -0.9110
   71MOL    H9622636   6.577   2.652   3.726 -1.3345  0.5509 -0.1750
   71MOL    H9722637   6.582   2.834   3.730  0.7010  0.6664 -0.4705
   71MOL    C9822638   6.660   2.572   3.381  0.0331  0.0359 -0.1073
   71MOL    C9922639   6.652   2.628   3.237 -0.2355  0.0113  0.0690
   71MOL   C10022640   6.704   2.422   3.390 -0.0136 -1.2643  0.2102
   71MOL   C10122641   6.738   2.370   3.533 -0.7404  0.0262  0.3437
   71MOL   C10222642   6.746   2.221   3.554 -0.2179  0.3313  1.0421
   71MOL   C10322643   6.769   2.454   3.637 -0.4590 -0.1518  0.6211
   71MOL   H10422644   6.748   2.622   3.419  0.8819 -0.8411 -0.9019
   71MOL   H10522645   6.599   2.562   3.168 -2.6258  0.5686  1.2891
   71MOL   H10622646   6.748   2.657   3.196  0.2385 -0.3766  0.9069
   71MOL   H10722647   6.594   2.721   3.234  0.0573  0.1682 -0.6683
   71MOL   H10822648   6.607   2.377   3.370 -1.2677  1.6841 -0.5031
   71MOL   H10922649   6.844   2.178   3.534  0.2043  1.5277  0.4608
   71MOL   H11022650   6.676   2.172   3.486  1.1809  1.6935 -1.4586
   71MOL   H11122651   6.718   2.202   3.658 -1.4864 -0.3312  0.5950
   71MOL   H11222652   6.766   2.562   3.628  1.3605 -0.2226 -1.1633
   71MOL   H11322653   6.802   2.411   3.730  1.0795 -1.0747 -0.3412
   71MOL   C11422654   6.804   2.363   3.279  1.2051  0.2694  0.5935
   71MOL   C11522655   6.739   2.234   3.231 -0.2186 -0.7402  0.1301
   71MOL   C11622656   6.959   2.345   3.300 -0.7238  0.0215  0.3089
   71MOL   C11722657   7.030   2.468   3.359 -0.8714 -0.1419 -0.1398
   71MOL   C11822658   7.050   2.588   3.267  0.0317 -0.2235  0.3990
   71MOL   C11922659   7.072   2.474   3.486 -0.2367  0.2864  0.4548
   71MOL   H12022660   6.791   2.433   3.197  1.8362 -0.2434  0.0517
   71MOL   H12122661   6.784   2.209   3.135  1.3416 -2.6647  1.3207
   71MOL   H12222662   6.630   2.242   3.222  0.1138  4.1063 -0.9845
   71MOL   H12322663   6.758   2.146   3.292 -0.2024 -0.5267  0.4321
   71MOL   H12422664   6.962   2.273   3.383  0.2488 -1.3466 -0.8799
   71MOL   H12522665   7.148   2.565   3.225  0.7846  1.0101  1.4403
   71MOL   H12622666   7.058   2.684   3.318 -0.6176 -0.1423  0.3583
   71MOL   H12722667   6.966   2.603   3.200  0.9892 -1.0216 -0.9929
   71MOL   H12822668   7.048   2.394   3.556 -0.5316  2.1780  2.5773
   71MOL   H12922669   7.131   2.556   3.524  0.8661 -0.0381 -0.5182
   71MOL   C13022670   7.036   2.281   3.177 -0.3404  0.4561 -0.1217
   71MOL   C13122671   6.992   2.348   3.042  0.5797  1.4027 -0.7391
   71MOL   C13222672   7.044   2.127   3.167 -0.2862 -0.2897 -0.1359
   71MOL   C13322673   7.062   2.054   3.303 -0.7355  0.5038 -0.7869
   71MOL   C13422674   6.956   1.944   3.334  0.2207 -0.3325 -0.0109
   71MOL   C13522675   7.165   2.088   3.386  0.5290  0.5741 -0.2622
   71MOL   H13622676   7.138   2.312   3.201 -0.1043 -1.0457  0.8986
   71MOL   H13722677   7.075   2.347   2.971  0.4386  1.6498 -0.9076
   71MOL   H13822678   6.989   2.456   3.056  1.6569  1.2442  0.8682
   71MOL   H13922679   6.896   2.313   3.003 -1.0609  1.4579  3.0685
   71MOL   H14022680   6.945   2.098   3.131 -0.3420  1.6498 -1.6364
   71MOL   H14122681   6.859   1.979   3.297 -0.5398  0.8802  3.0073
   71MOL   H14222682   6.958   1.925   3.441  2.5709 -2.9886 -0.4524
   71MOL   H14322683   6.983   1.857   3.273  0.8564 -0.5450  0.5717
   71MOL   H14422684   7.235   2.168   3.367 -0.5004  1.7646  0.8534
   71MOL   H14522685   7.174   2.030   3.477 -0.4464  0.5799 -0.1527
   71MOL   C14622686   7.139   2.058   3.052 -0.0516 -0.0331  0.4596
   71MOL   C14722687   7.262   2.144   3.011  0.2310  0.2067 -0.6904
   71MOL   C14822688   7.054   2.019   2.921 -0.2802 -0.5264 -0.0026
   71MOL   C14922689   6.932   1.937   2.946  0.1951 -0.3204 -0.3678
   71MOL   C15022690   6.956   1.791   2.993  0.5403 -0.5286 -0.4215
   71MOL   C15122691   6.807   1.987   2.929 -0.3764 -0.4898 -0.4976
   71MOL   H15222692   7.178   1.966   3.097  0.1502 -0.5080 -0.6788
   71MOL   H15322693   7.308   2.207   3.087 -1.0832  1.4699 -0.9249
   71MOL   H15422694   7.233   2.222   2.941 -1.1071  0.6924  0.3919
   71MOL   H15522695   7.345   2.090   2.965  0.5973 -2.3533  2.8070
   71MOL   H15622696   7.013   2.116   2.894  0.5137  0.4753  2.2581
   71MOL   H15722697   6.986   1.721   2.915  0.2796 -2.2987  1.0366
   71MOL   H15822698   6.864   1.750   3.033  1.2133  0.0144  1.7229
   71MOL   H15922699   7.024   1.786   3.078  0.3857 -3.1398 -0.4037
   71MOL   H16022700   6.786   2.090   2.906 -1.6526 -0.8552 -0.9893
   71MOL   H16122701   6.723   1.921   2.947 -0.5801  0.3179  1.7793
   71MOL   C16222702   7.128   1.954   2.793 -0.9100  0.2396 -0.0441
   71MOL   C16322703   7.239   1.850   2.826  0.1154  0.5779 -0.3799
   71MOL   C16422704   7.161   2.070   2.691  0.1599 -0.8000 -0.3298
   71MOL   C16522705   7.038   2.151   2.645 -0.6501 -0.1014 -0.6092
   71MOL   C16622706   7.070   2.294   2.607  0.4204  0.6092 -0.4758
   71MOL   C16722707   6.907   2.105   2.637  0.0386 -0.1206 -0.1058
   71MOL   H16822708   7.048   1.896   2.745 -2.4440  0.0057  2.6843
   71MOL   H16922709   7.334   1.897   2.854  0.5837 -1.5898  1.8962
   71MOL   H17022710   7.265   1.788   2.740  0.1947 -1.1029  0.8202
   71MOL   H17122711   7.205   1.783   2.905  0.1320  0.5830 -0.3689
   71MOL   H17222712   7.224   2.143   2.743  0.0649 -1.1551  0.2795
   71MOL   H17322713   6.988   2.366   2.609  0.4874  0.6806 -0.3027
   71MOL   H17422714   7.121   2.298   2.511  1.1842  0.6331 -0.0746
   71MOL   H17522715   7.144   2.334   2.676  0.2591  1.4584 -0.7945
   71MOL   H17622716   6.881   2.010   2.679  3.5508 -1.1775 -0.1666
   71MOL   H17722717   6.823   2.164   2.603  0.4767  1.4740  1.4539
   71MOL   C17822718   7.240   2.017   2.557  0.4680 -0.7582 -0.6266
   71MOL   C17922719   7.181   1.887   2.502  0.1855  0.1882 -0.3834
   71MOL   C18022720   7.392   2.006   2.572 -0.1048  0.5076 -0.1976
   71MOL   C18122721   7.452   2.133   2.633 -0.7706 -0.2521  0.0427
   71MOL   C18222722   7.562   2.112   2.729 -0.0536  0.0485  0.0181
   71MOL   C18322723   7.409   2.258   2.606 -0.3845 -0.0240 -0.2427
   71MOL   H18422724   7.227   2.098   2.485  2.1160  0.7409  0.7141
   71MOL   H18522725   7.185   1.882   2.394  0.5224 -2.3150 -0.2817
   71MOL   H18622726   7.074   1.891   2.524  0.1410 -0.2159 -0.5144
   71MOL   H18722727   7.214   1.791   2.542  0.5764  0.5981  0.2929
   71MOL   H18822728   7.412   1.936   2.653 -1.7647  1.1515  0.7906
   71MOL   H18922729   7.647   2.174   2.701  0.4933 -1.5202 -1.9262
   71MOL   H19022730   7.601   2.011   2.732 -2.3481 -0.8253  1.1965
   71MOL   H19122731   7.525   2.128   2.830 -1.5275 -0.7815 -0.3724
   71MOL   H19222732   7.324   2.281   2.544 -0.5939 -0.9971 -0.3224
   71MOL   H19322733   7.464   2.346   2.637 -1.0201  1.2183 -2.5306
   71MOL   C19422734   7.474   1.971   2.441  0.7269  0.5696 -0.8874
   71MOL   C19522735   7.425   2.048   2.320  0.1648  0.3047 -0.6675
   71MOL   C19622736   7.482   1.813   2.417  0.0211  0.3201  0.2788
   71MOL   C19722737   7.502   1.730   2.544  0.0665  0.8200  0.5494
   71MOL   C19822738   7.637   1.738   2.605  0.1422  0.0407 -0.3359
   71MOL   C19922739   7.419   1.635   2.586 -0.0939 -0.0946 -0.0280
   71MOL   H20022740   7.576   2.003   2.458  0.6492  1.5804 -2.2490
   71MOL   H20122741   7.492   2.051   2.235  0.2784  1.8457 -0.5369
   71MOL   H20222742   7.402   2.153   2.340 -1.0934 -0.4252  2.0971
   71MOL   H20322743   7.327   2.012   2.290 -0.1515  0.4993  0.1017
   71MOL   H20422744   7.387   1.790   2.369  0.8542 -0.8017 -0.8261
   71MOL   H20522745   7.655   1.672   2.689 -2.0623 -1.0929 -0.7364
   71MOL   H20622746   7.672   1.835   2.641  0.2216 -0.1453  0.0865
   71MOL   H20722747   7.719   1.699   2.544  0.8138 -2.2884  1.9658
   71MOL   H20822748   7.326   1.608   2.537 -1.0636 -0.5142  1.9988
   71MOL   H20922749   7.431   1.576   2.675 -1.5554 -2.0166 -1.0520
   71MOL   C21022750   7.576   1.765   2.302 -0.0313  1.0084  0.2269
   71MOL   C21122751   7.700   1.854   2.283  0.2542 -0.6724  0.1320
   71MOL   C21222752   7.521   1.708   2.170 -0.2468 -0.0180 -0.3298
   71MOL   C21322753   7.454   1.813   2.078 -0.0220  0.7396  0.3210
   71MOL   C21422754   7.542   1.880   1.966 -1.2423 -0.0592 -0.4351
   71MOL   C21522755   7.324   1.836   2.085 -0.6422 -0.3730  0.3952
   71MOL   H21622756   7.623   1.674   2.341  1.1882  1.7898  0.6295
   71MOL   H21722757   7.761   1.821   2.198  0.6624 -1.2774  0.6527
   71MOL   H21822758   7.759   1.853   2.375 -0.3352 -2.6747  0.5051
   71MOL   H21922759   7.679   1.956   2.252  1.7110 -0.2433  0.5087
   71MOL   H22022760   7.613   1.688   2.115  1.3983  0.7358  2.0414
   71MOL   H22122761   7.511   1.976   1.924  1.1632  0.7389 -0.4751
   71MOL   H22222762   7.562   1.810   1.885 -0.6193  0.8996 -1.1323
   71MOL   H22322763   7.639   1.902   2.010  0.2246 -1.2343 -2.9808
   71MOL   H22422764   7.250   1.801   2.156 -0.7726 -0.3722  0.2597
   71MOL   H22522765   7.285   1.896   2.005 -0.9664 -2.1449 -0.7899
   71MOL   C22622766   7.465   1.565   2.172 -0.4936  0.5771 -0.6201
   71MOL   C22722767   7.557   1.461   2.239  0.1238 -0.2506  1.3480
   71MOL   C22822768   7.405   1.512   2.029  0.3419  0.0700  0.5370
   71MOL   C22922769   7.269   1.427   2.052 -0.0840  0.0872 -0.1154
   71MOL   C23022770   7.271   1.295   2.112  0.0463  0.4324  0.2647
   71MOL   C23122771   7.148   1.489   2.040 -0.1135 -0.0582 -0.9965
   71MOL   H23222772   7.373   1.583   2.229  1.5486  0.6290  2.7556
   71MOL   H23322773   7.663   1.484   2.256  0.3509  0.7893 -1.2377
   71MOL   H23422774   7.540   1.363   2.195 -0.7172  1.0566 -1.3382
   71MOL   H23522775   7.517   1.463   2.341  0.0725 -0.3730  1.3297
   71MOL   H23622776   7.367   1.599   1.974  0.8144  0.0732  0.2149
   71MOL   H23722777   7.295   1.222   2.035 -0.2933  1.4909 -0.8655
   71MOL   H23822778   7.170   1.270   2.144 -0.8466 -0.6474 -3.2138
   71MOL   H23922779   7.327   1.277   2.204 -0.2704  0.3539  0.4407
   71MOL   H24022780   7.137   1.592   2.008  0.7858 -0.0700 -1.3607
   71MOL   H24122781   7.059   1.435   2.069  0.1423  0.1316  0.1623
   71MOL   C24222782   7.501   1.442   1.923  0.1056 -0.0132  0.5298
   71MOL   C24322783   7.648   1.493   1.925  0.0838  0.3978  0.5006
   71MOL   C24422784   7.448   1.430   1.775 -0.3338 -0.2948  0.3190
   71MOL   C24522785   7.409   1.564   1.713 -0.1998 -0.1349  0.2723
   71MOL   C24622786   7.508   1.618   1.613  0.0397 -0.2132  0.3115
   71MOL   C24722787   7.292   1.624   1.737  0.2450 -0.0199  0.4600
   71MOL   H24822788   7.497   1.342   1.966 -0.5015 -0.3330 -0.2541
   71MOL   H24922789   7.703   1.472   2.017  1.0371  0.7040  0.0119
   71MOL   H25022790   7.645   1.597   1.892  1.1781 -0.7749 -3.6277
   71MOL   H25122791   7.711   1.443   1.851 -1.7907  0.5304 -1.2050
   71MOL   H25222792   7.535   1.406   1.714 -2.6375 -0.4409 -3.0816
   71MOL   H25322793   7.485   1.723   1.599 -1.0897 -0.3569  0.9971
   71MOL   H25422794   7.509   1.562   1.519 -0.0675 -0.4129  0.4271
   71MOL   H25522795   7.608   1.610   1.654  0.5916  3.2814 -0.2668
   71MOL   H25622796   7.222   1.570   1.800 -0.7227 -0.5065 -1.0048
   71MOL   H25722797   7.256   1.716   1.692  0.4810 -0.5447 -0.8059
   71MOL   C25822798   7.357   1.306   1.756 -0.1773  0.2531  0.7615
   71MOL   C25922799   7.435   1.170   1.770 -0.3468  0.1342  0.5820
   71MOL   C26022800   7.258   1.315   1.622 -0.7819 -0.0514 -0.2303
   71MOL   C26122801   7.118   1.274   1.670 -0.0797 -0.1886 -0.1253
   71MOL   C26222802   7.097   1.131   1.710  0.2023 -0.0482  0.7576
   71MOL   C26322803   7.019   1.355   1.689  0.2333  0.0562  0.1316
   71MOL   H26422804   7.287   1.318   1.838 -1.7414 -1.6206 -0.2710
   71MOL   H26522805   7.498   1.161   1.859  0.9191  1.2519 -0.1700
   71MOL   H26622806   7.511   1.156   1.693 -1.1379  0.5144 -0.2688
   71MOL   H26722807   7.363   1.089   1.768 -1.1473  0.7751  2.0516
   71MOL   H26822808   7.243   1.419   1.593  0.4958  0.2319  0.1026
   71MOL   H26922809   7.161   1.101   1.794  2.7290  2.2097 -0.2782
   71MOL   H27022810   7.128   1.062   1.632  0.0644  1.9064 -1.0633
   71MOL   H27122811   6.991   1.113   1.723 -0.1507  1.5694  0.1883
   71MOL   H27222812   7.026   1.457   1.654 -0.7774 -0.3930 -1.4336
   71MOL   H27322813   6.931   1.312   1.734  0.6097 -0.0445  0.7765
   71MOL   C27422814   7.299   1.237   1.493  0.0206  0.3653  0.0704
   71MOL   C27522815   7.436   1.280   1.443 -0.5825  0.3727  0.1231
   71MOL   C27622816   7.190   1.222   1.377  0.4334  0.5245 -1.0052
   71MOL   C27722817   7.210   1.091   1.296  0.8620  0.0022 -0.4500
   71MOL   C27822818   7.108   0.983   1.322 -0.0664  0.4076 -0.7435
   71MOL   C27922819   7.306   1.071   1.208  0.1135 -0.0364 -0.1432
   71MOL   H28022820   7.331   1.137   1.520  0.9441  0.6409  0.0133
   71MOL   H28122821   7.441   1.383   1.407  1.3268  0.6803  1.1761
   71MOL   H28222822   7.470   1.221   1.358 -2.1024 -1.6480  0.9039
   71MOL   H28322823   7.524   1.260   1.504 -0.0324 -0.1014 -0.8067
   71MOL   H28422824   7.089   1.222   1.419  0.0906 -0.7543 -1.7968
   71MOL   H28522825   7.093   0.970   1.430  2.1832  2.8098 -0.1059
   71MOL   H28622826   7.131   0.892   1.266 -0.6787 -0.0109 -0.3378
   71MOL   H28722827   7.022   1.027   1.272 -0.4344 -1.1609 -1.5262
   71MOL   H28822828   7.376   1.150   1.187 -0.5522  0.8686  0.9734
   71MOL   H28922829   7.317   0.974   1.161  2.8003 -0.6429  1.6041
   71MOL   C29022830   7.179   1.347   1.283  0.1906  0.0135  0.3417
   71MOL   C29122831   7.153   1.485   1.354 -0.0660 -0.6484  0.3533
   71MOL   C29222832   7.081   1.333   1.157 -0.7290  0.0537 -0.7936
   71MOL   C29322833   7.158   1.407   1.038 -0.4835  0.4826  0.4667
   71MOL   C29422834   7.269   1.329   0.963  0.5410  0.4633  0.5235
   71MOL   C29522835   7.118   1.518   0.988  0.3407 -0.1946 -0.2275
   71MOL   H29622836   7.283   1.345   1.250  0.1298 -2.3428  0.1713
   71MOL   H29722837   7.240   1.510   1.416  0.3704  2.5177 -1.4193
   71MOL   H29822838   7.069   1.491   1.423 -0.9471  2.5365 -0.9160
   71MOL   H29922839   7.154   1.571   1.287  1.0465  0.6125  1.9299
   71MOL   H30022840   7.087   1.227   1.130  2.0674  0.1007 -0.4907
   71MOL   H30122841   7.261   1.221   0.972 -3.1357  0.4840 -1.6625
   71MOL   H30222842   7.363   1.350   1.014  0.1512  0.5255  1.2258
   71MOL   H30322843   7.281   1.365   0.860 -1.5928  0.7117  0.3423
   71MOL   H30422844   7.034   1.572   1.029  2.1252  1.7026  1.0310
   71MOL   H30522845   7.170   1.562   0.904 -1.1119  1.8475 -0.0985
   71MOL   C30622846   6.935   1.368   1.179 -0.0445  0.1416 -0.3887
   71MOL   C30722847   6.859   1.304   1.289  0.2162 -0.2861 -0.6210
   71MOL   C30822848   6.854   1.350   1.045  0.4003 -0.0066 -0.1674
   71MOL   C30922849   6.724   1.415   1.048 -0.6504  0.0333  0.1223
   71MOL   C31022850   6.726   1.572   1.058  0.4076  0.0390  0.3108
   71MOL   C31122851   6.601   1.357   1.057  0.8350  0.4861  0.0615
   71MOL   H31222852   6.926   1.473   1.207 -1.6337  0.3393 -1.5332
   71MOL   H31322853   6.860   1.198   1.264  0.0897  0.0476 -2.0401
   71MOL   H31422854   6.758   1.344   1.299 -0.4050 -1.9804  0.0800
   71MOL   H31522855   6.912   1.322   1.383 -0.8836 -2.5057  0.4519
   71MOL   H31622856   6.907   1.390   0.958  0.4161  0.1369 -0.0915
   71MOL   H31722857   6.624   1.610   1.051  0.1805 -0.4092  1.1027
   71MOL   H31822858   6.783   1.625   0.981 -1.9377  1.5511 -0.4175
   71MOL   H31922859   6.777   1.603   1.149  0.0352 -0.9247  0.8554
   71MOL   H32022860   6.583   1.251   1.060 -1.4849  0.8617  0.5490
   71MOL   H32122861   6.509   1.413   1.065  0.6379  0.0109  1.3341
   71MOL   H32222862   6.827   1.247   1.020  0.1595  0.1028 -0.3520
   72MOL     C122863   1.898   5.315   1.943 -0.3583  0.7087  0.3483
   72MOL     C222864   1.834   5.353   1.814 -0.3812 -0.3836 -0.8164
   72MOL     C322865   2.024   5.394   1.992 -0.1897 -0.0158 -0.0020
   72MOL     C422866   2.141   5.380   1.885  0.9510 -0.5043  0.0710
   72MOL     C522867   2.205   5.246   1.867 -0.0626 -0.2762  0.1007
   72MOL     C622868   2.173   5.492   1.818 -0.5488  0.0372 -0.9979
   72MOL     H722869   1.821   5.331   2.019  1.6308  0.3299  2.4911
   72MOL     H822870   1.784   5.450   1.811 -1.5696 -0.9029  1.4149
   72MOL     H922871   1.760   5.279   1.786 -0.8149 -0.4011  0.3757
   72MOL    H1022872   1.914   5.353   1.740 -0.2770 -0.8588 -0.7035
   72MOL    H1122873   1.984   5.496   1.987 -0.0987  0.0582  0.7371
   72MOL    H1222874   2.295   5.250   1.806  1.3916 -2.7038  1.9446
   72MOL    H1322875   2.144   5.174   1.812  2.2361 -1.8578 -0.4624
   72MOL    H1422876   2.235   5.193   1.958 -0.5267 -3.6724 -1.6204
   72MOL    H1522877   2.128   5.588   1.837  1.0971  0.5889  0.2977
   72MOL    H1622878   2.243   5.493   1.735 -1.2991  2.0815 -1.6213
   72MOL    H1722879   1.909   5.207   1.943  0.8921  0.7839  3.2479
   72MOL    C1822880   2.059   5.362   2.140 -0.2834 -0.3581 -0.0581
   72MOL    C1922881   1.997   5.239   2.198  0.2888 -0.1489  0.0119
   72MOL    C2022882   2.040   5.473   2.253  0.2081  0.0704  0.3147
   72MOL    C2122883   1.898   5.506   2.275  0.6156  0.2803 -0.3965
   72MOL    C2222884   1.824   5.462   2.409  0.3898  0.5227  0.4102
   72MOL    C2322885   1.818   5.584   2.193  0.3222  0.2760 -0.5452
   72MOL    H2422886   2.165   5.338   2.140 -0.1864  0.0949  1.3007
   72MOL    H2522887   1.895   5.259   2.228  1.4382  3.0485  2.0107
   72MOL    H2622888   2.049   5.212   2.290  2.5768  1.6746 -0.6891
   72MOL    H2722889   2.013   5.153   2.134 -0.7507 -0.0634 -0.3657
   72MOL    H2822890   2.076   5.435   2.348 -0.3001 -1.0647  0.0596
   72MOL    H2922891   1.870   5.494   2.502  0.7653 -1.2060  0.8304
   72MOL    H3022892   1.817   5.354   2.420  0.9489  0.2237 -1.8233
   72MOL    H3122893   1.725   5.509   2.404  0.9943  1.9088  1.2117
   72MOL    H3222894   1.854   5.625   2.100 -1.5467 -0.1526 -1.4804
   72MOL    H3322895   1.722   5.615   2.232  2.0193  4.1044  0.8520
   72MOL    C3422896   2.124   5.605   2.232 -0.6710  0.2081  0.9531
   72MOL    C3522897   2.270   5.580   2.179  0.7601 -0.0905 -0.2194
   72MOL    C3622898   2.123   5.708   2.354  0.4797  0.4149 -0.2462
   72MOL    C3722899   2.120   5.850   2.310 -0.0755 -0.6224 -0.0264
   72MOL    C3822900   2.242   5.918   2.243 -0.8131  0.1015 -0.1842
   72MOL    C3922901   2.002   5.918   2.312  0.2937  0.4829 -0.3433
   72MOL    H4022902   2.078   5.653   2.145 -1.1307  0.3616  1.2796
   72MOL    H4122903   2.332   5.523   2.249  0.3753  0.4847  0.5914
   72MOL    H4222904   2.330   5.668   2.158 -1.2013  0.9355 -1.7723
   72MOL    H4322905   2.272   5.527   2.084  1.7779  0.4338 -0.4984
   72MOL    H4422906   2.021   5.693   2.390  0.9123 -1.6372  0.1769
   72MOL    H4522907   2.230   6.027   2.246 -3.4197 -0.1974  0.7986
   72MOL    H4622908   2.259   5.900   2.137 -1.1204  0.9118 -0.3739
   72MOL    H4722909   2.340   5.899   2.287 -1.3416 -1.6451  0.2752
   72MOL    H4822910   1.911   5.875   2.352  1.1233  0.4564  1.5905
   72MOL    H4922911   1.996   6.014   2.263 -1.5772  0.0970 -0.9217
   72MOL    C5022912   2.216   5.691   2.475  0.5818  0.1428 -0.4701
   72MOL    C5122913   2.234   5.544   2.521  0.0109 -0.2460 -0.3591
   72MOL    C5222914   2.191   5.791   2.599 -0.0912 -0.5034  0.6588
   72MOL    C5322915   2.303   5.899   2.605  0.9629  0.0710  0.2464
   72MOL    C5422916   2.444   5.858   2.646  0.5997  0.4963 -0.7196
   72MOL    C5522917   2.279   6.030   2.567 -0.6167  0.2397 -1.0834
   72MOL    H5622918   2.314   5.719   2.437  0.6420  0.0854 -0.3571
   72MOL    H5722919   2.247   5.469   2.442  0.4653 -2.2917  1.5986
   72MOL    H5822920   2.149   5.513   2.583  0.6198  2.5143  1.9387
   72MOL    H5922921   2.327   5.534   2.576  1.0045 -2.6425 -2.3767
   72MOL    H6022922   2.109   5.856   2.568 -0.9111 -0.7384  2.2777
   72MOL    H6122923   2.518   5.937   2.632  0.4590  0.7109 -0.2849
   72MOL    H6222924   2.470   5.770   2.588  0.4117 -0.6593  0.9093
   72MOL    H6322925   2.441   5.839   2.754  1.2097  0.3922 -0.7197
   72MOL    H6422926   2.183   6.063   2.532 -1.4924 -0.3928  0.6486
   72MOL    H6522927   2.358   6.103   2.577 -1.7244  1.3215 -0.0703
   72MOL    C6622928   2.150   5.743   2.748  0.2519  0.1462  0.2701
   72MOL    C6722929   2.252   5.635   2.801  0.6704  0.3986 -0.3281
   72MOL    C6822930   1.993   5.706   2.757  0.7928 -0.0633 -0.0537
   72MOL    C6922931   1.894   5.819   2.705  0.0362  0.3891 -0.2070
   72MOL    C7022932   1.918   5.953   2.756 -0.3074 -0.1484 -0.0522
   72MOL    C7122933   1.793   5.797   2.616  0.2296  0.3223  0.5174
   72MOL    H7222934   2.160   5.833   2.808 -1.9752  0.3812  0.3259
   72MOL    H7322935   2.353   5.653   2.764  0.7204 -0.4018 -0.6038
   72MOL    H7422936   2.225   5.532   2.776 -2.0118  1.0709 -0.3461
   72MOL    H7522937   2.264   5.627   2.909  0.9315  1.1071 -0.3038
   72MOL    H7622938   1.971   5.626   2.686  0.5739  0.3083 -0.4050
   72MOL    H7722939   2.021   5.986   2.768 -0.1291 -1.6526  2.8842
   72MOL    H7822940   1.864   5.960   2.850 -1.0821 -1.2114 -0.4072
   72MOL    H7922941   1.865   6.031   2.700 -0.1600  1.1470  1.5825
   72MOL    H8022942   1.774   5.697   2.580 -0.5555  0.6912 -0.1238
   72MOL    H8122943   1.726   5.880   2.599  1.1662  0.7336 -1.1511
   72MOL    C8222944   1.949   5.664   2.904 -0.4426 -0.2824  0.9259
   72MOL    C8322945   2.008   5.764   3.013 -0.1310  0.2928 -0.1227
   72MOL    C8422946   1.974   5.517   2.944  0.0265  0.6650  0.1226
   72MOL    C8522947   1.940   5.424   2.827  0.8841  0.2040 -0.7883
   72MOL    C8622948   1.795   5.407   2.783 -0.5423  0.3305  0.6646
   72MOL    C8722949   2.035   5.358   2.757  0.8247  0.8420 -0.3557
   72MOL    H8822950   1.842   5.682   2.902 -0.2433  0.9308  0.1375
   72MOL    H8922951   1.961   5.749   3.110 -1.2601 -0.6776 -0.8086
   72MOL    H9022952   1.990   5.866   2.980  0.9336 -0.0294 -1.7800
   72MOL    H9122953   2.117   5.760   3.023 -0.2603 -0.6596  1.0647
   72MOL    H9222954   2.080   5.496   2.956  0.4082  1.4422 -1.6361
   72MOL    H9322955   1.783   5.347   2.693 -0.8666 -0.0013  0.9316
   72MOL    H9422956   1.754   5.502   2.750  1.5466  0.7611 -0.8120
   72MOL    H9522957   1.735   5.371   2.866 -0.4853  1.1517  1.0684
   72MOL    H9622958   2.135   5.364   2.796 -0.5446  1.0166  3.2942
   72MOL    H9722959   2.016   5.301   2.667 -0.3648 -1.6874  1.4457
   72MOL    C9822960   1.919   5.457   3.076  0.2496  0.3507 -0.0042
   72MOL    C9922961   1.774   5.515   3.092 -0.1384  0.1481 -1.1371
   72MOL   C10022962   2.003   5.471   3.200 -0.3814  0.2222 -0.7906
   72MOL   C10122963   2.150   5.439   3.185  0.4906 -0.1964 -0.2037
   72MOL   C10222964   2.259   5.527   3.254 -0.0028 -0.0482 -0.6504
   72MOL   C10322965   2.196   5.341   3.110  0.5068 -0.3548  0.4980
   72MOL   H10422966   1.907   5.349   3.067 -1.5036  0.4922  0.3152
   72MOL   H10522967   1.767   5.609   3.147 -0.6168 -1.2165  1.1800
   72MOL   H10622968   1.700   5.452   3.142  1.0432  0.0240  0.4785
   72MOL   H10722969   1.724   5.532   2.996 -3.1447  0.8756  0.4934
   72MOL   H10822970   2.011   5.577   3.224 -0.9489  0.2381 -0.6645
   72MOL   H10922971   2.263   5.502   3.360 -0.8918  0.3168 -0.5222
   72MOL   H11022972   2.234   5.631   3.231 -3.1204 -0.6323 -0.1074
   72MOL   H11122973   2.362   5.501   3.232  0.4789  0.4235  0.9992
   72MOL   H11222974   2.136   5.276   3.047 -0.7411  1.2930 -0.0462
   72MOL   H11322975   2.302   5.324   3.105  0.5739  0.1003  0.4259
   72MOL   C11422976   1.947   5.406   3.329 -0.5176 -0.0545 -0.6794
   72MOL   C11522977   1.994   5.459   3.465 -0.1697 -0.3478  0.3565
   72MOL   C11622978   1.920   5.251   3.325 -0.6560  0.6306 -0.0801
   72MOL   C11722979   1.767   5.224   3.344 -0.1921 -0.4067 -0.2864
   72MOL   C11822980   1.697   5.252   3.481  0.5891  0.5860 -0.4405
   72MOL   C11922981   1.688   5.178   3.243 -0.0540  0.0624  0.5286
   72MOL   H12022982   1.845   5.443   3.344  0.0018  0.0494  3.2114
   72MOL   H12122983   1.949   5.394   3.540 -0.5968 -0.1823  0.2404
   72MOL   H12222984   1.971   5.565   3.476  1.9478  0.2687 -0.8147
   72MOL   H12322985   2.103   5.456   3.475  0.0582  0.8671 -1.4669
   72MOL   H12422986   1.939   5.224   3.221  2.1639 -1.3492  0.8833
   72MOL   H12522987   1.761   5.242   3.568  0.3905 -0.5310 -0.4183
   72MOL   H12622988   1.610   5.187   3.489 -0.1688  1.4957 -1.2285
   72MOL   H12722989   1.665   5.356   3.483 -1.4739  0.0223 -1.9972
   72MOL   H12822990   1.732   5.152   3.147  0.6219 -1.7123  1.2999
   72MOL   H12922991   1.581   5.170   3.256  0.1740 -1.1145  1.7531
   72MOL   C13022992   2.014   5.149   3.407  0.3736  0.7538 -0.8031
   72MOL   C13122993   2.160   5.190   3.444  0.1792  0.1458 -0.1827
   72MOL   C13222994   2.020   5.005   3.351  0.5161  0.4819 -0.1047
   72MOL   C13322995   2.083   5.007   3.214  0.7796  0.1568 -0.1961
   72MOL   C13422996   2.229   4.987   3.208 -0.1106  0.3253  0.0785
   72MOL   C13522997   2.021   5.028   3.094  0.9938 -0.0553 -0.1438
   72MOL   H13622998   1.964   5.134   3.503  1.2096 -0.4560 -0.5533
   72MOL   H13722999   2.211   5.098   3.475  0.6197 -0.0148 -1.3426
   72MOL   H13823000   2.174   5.262   3.524  0.7314  0.4654 -0.5580
   72MOL   H13923001   2.216   5.227   3.358 -0.3176 -1.4192 -1.2221
   72MOL   H14023002   2.100   4.952   3.404 -0.9122  0.0748  1.6895
   72MOL   H14123003   2.257   4.916   3.285  0.3642 -0.7768 -1.0923
   72MOL   H14223004   2.287   5.075   3.235 -1.8961  0.2348  4.6270
   72MOL   H14323005   2.260   4.956   3.108  1.8713  1.9337  0.1630
   72MOL   H14423006   1.914   5.043   3.097  0.4586 -3.6804  0.5129
   72MOL   H14523007   2.077   5.036   3.003 -0.3673  1.0026 -0.9154
   72MOL   C14623008   1.892   4.913   3.361 -0.0860 -0.2505  0.0529
   72MOL   C14723009   1.833   4.912   3.507  0.0417  0.4877  0.2792
   72MOL   C14823010   1.900   4.765   3.298 -0.7952  0.2607 -0.3445
   72MOL   C14923011   1.764   4.736   3.225  0.0810  0.5173  0.6574
   72MOL   C15023012   1.766   4.741   3.074 -0.1124  0.1092  0.2303
   72MOL   C15123013   1.654   4.704   3.298  0.4184  0.0737  0.7230
   72MOL   H15223014   1.819   4.973   3.307 -0.7783  0.4068  1.6580
   72MOL   H15323015   1.783   4.819   3.535 -1.4758  1.5955  1.3997
   72MOL   H15423016   1.752   4.985   3.501  0.5309  0.9332 -1.0329
   72MOL   H15523017   1.908   4.937   3.582  0.6331  0.2209 -0.2178
   72MOL   H15623018   1.974   4.770   3.218 -0.1605  0.8349  0.2764
   72MOL   H15723019   1.808   4.644   3.045 -0.4827 -0.2806  0.9929
   72MOL   H15823020   1.828   4.824   3.040 -1.3175  1.0422  0.2964
   72MOL   H15923021   1.669   4.754   3.027  0.4832 -0.5873 -1.2371
   72MOL   H16023022   1.664   4.687   3.404  1.5964 -0.2623  0.5661
   72MOL   H16123023   1.565   4.686   3.240  0.9637  0.4161 -0.2371
   72MOL   C16223024   1.946   4.643   3.386 -0.1964  0.2634  0.0691
   72MOL   C16323025   2.045   4.662   3.502  0.4108  0.1656  0.9784
   72MOL   C16423026   1.970   4.511   3.301  0.1641 -0.1096  0.3337
   72MOL   C16523027   1.898   4.396   3.376 -0.4805 -0.0239  0.1942
   72MOL   C16623028   1.765   4.361   3.319  0.2429 -0.2508 -0.0343
   72MOL   C16723029   1.948   4.328   3.481 -0.8314  0.0299  0.0531
   72MOL   H16823030   1.865   4.624   3.457 -0.3663 -1.2738 -0.5110
   72MOL   H16923031   2.134   4.719   3.474  0.2201 -1.0509 -2.3823
   72MOL   H17023032   2.082   4.570   3.547 -1.1709 -1.0709 -0.1780
   72MOL   H17123033   2.007   4.713   3.590  0.6342  0.2149  1.0468
   72MOL   H17223034   1.928   4.524   3.201 -2.8370  0.6691  1.6135
   72MOL   H17323035   1.688   4.436   3.331 -2.2052 -2.4326 -1.6677
   72MOL   H17423036   1.727   4.276   3.375  2.2877  0.7438  3.0375
   72MOL   H17523037   1.774   4.322   3.217  1.1204  0.2605 -0.1619
   72MOL   H17623038   2.044   4.370   3.509 -1.2624  1.8003 -1.0347
   72MOL   H17723039   1.902   4.243   3.527  0.5564 -0.4210  0.6436
   72MOL   C17823040   2.123   4.471   3.279  0.1074 -0.7720 -0.1767
   72MOL   C17923041   2.203   4.590   3.219  0.3872  0.1307 -0.4451
   72MOL   C18023042   2.153   4.326   3.217 -0.4064 -0.1313 -0.6725
   72MOL   C18123043   2.274   4.258   3.282 -0.1810  0.1959  0.0149
   72MOL   C18223044   2.244   4.147   3.370  0.3440 -0.0003  0.2966
   72MOL   C18323045   2.405   4.302   3.257 -0.0281  0.1391  0.2334
   72MOL   H18423046   2.168   4.464   3.378  1.5685  0.1179 -0.7556
   72MOL   H18523047   2.154   4.629   3.129  2.0214 -1.2064 -1.9650
   72MOL   H18623048   2.309   4.565   3.206  1.1543  1.8477  2.2128
   72MOL   H18723049   2.218   4.672   3.290 -0.4643  0.4411 -0.6175
   72MOL   H18823050   2.070   4.258   3.238  0.1390 -1.0787 -1.4887
   72MOL   H18923051   2.188   4.198   3.449 -0.5244 -0.3286 -0.0994
   72MOL   H19023052   2.338   4.108   3.410  1.0279  3.3446  2.2238
   72MOL   H19123053   2.185   4.067   3.327  1.6819 -1.2823  0.8069
   72MOL   H19223054   2.416   4.388   3.193 -4.8328 -0.8988 -2.2196
   72MOL   H19323055   2.484   4.247   3.307  0.2020 -0.4713 -0.7781
   72MOL   C19423056   2.155   4.326   3.061 -0.3630  0.1715 -0.2649
   72MOL   C19523057   2.030   4.385   2.991  1.2340  0.3944 -0.0563
   72MOL   C19623058   2.219   4.196   3.001 -0.0355 -0.0825 -0.0881
   72MOL   C19723059   2.343   4.240   2.916  0.6765  0.8182 -0.4613
   72MOL   C19823060   2.308   4.313   2.792 -0.3619 -0.0992 -0.6212
   72MOL   C19923061   2.473   4.214   2.944 -0.0377  0.4161  0.1780
   72MOL   H20023062   2.233   4.401   3.044  1.9153 -2.1066 -0.1835
   72MOL   H20123063   1.940   4.346   3.039  1.0781 -0.9561 -1.4256
   72MOL   H20223064   2.029   4.344   2.891  1.9649  1.5268 -0.5428
   72MOL   H20323065   2.027   4.494   2.996  1.3026  0.4022 -0.1788
   72MOL   H20423066   2.259   4.140   3.086 -1.8912 -0.8119  0.3320
   72MOL   H20523067   2.244   4.259   2.722 -0.4915 -0.3413 -0.3166
   72MOL   H20623068   2.398   4.344   2.739 -0.4762 -1.7852 -1.8319
   72MOL   H20723069   2.232   4.390   2.809 -0.8958 -0.6641 -0.4593
   72MOL   H20823070   2.506   4.157   3.030  1.4420 -1.7352 -1.7626
   72MOL   H20923071   2.556   4.242   2.881  0.8487 -1.5227  0.4241
   72MOL   C21023072   2.124   4.089   2.939 -0.1555  0.0426 -0.0093
   72MOL   C21123073   2.002   4.054   3.024  0.4114 -0.3005  0.0363
   72MOL   C21223074   2.201   3.962   2.881  0.1297  0.4392 -0.7313
   72MOL   C21323075   2.153   3.945   2.736 -0.4995  0.2786  0.0864
   72MOL   C21423076   2.016   3.893   2.709  0.0788  0.4572  0.5215
   72MOL   C21523077   2.231   3.995   2.635  0.1127  0.2710  0.5308
   72MOL   H21623078   2.079   4.139   2.852 -2.1702 -0.0764  0.9276
   72MOL   H21723079   2.044   4.042   3.124  0.6091  3.1517  0.4369
   72MOL   H21823080   1.948   3.966   2.991  0.1668 -0.0183 -0.3161
   72MOL   H21923081   1.938   4.140   3.046 -0.2136 -1.1605  1.6294
   72MOL   H22023082   2.303   4.000   2.881 -0.4744  2.1099 -1.1494
   72MOL   H22123083   1.947   3.977   2.711 -0.0277  0.4209 -1.0636
   72MOL   H22223084   1.999   3.817   2.785  0.3819  1.7244  1.8749
   72MOL   H22323085   2.005   3.866   2.604 -1.1783 -1.4715  1.1244
   72MOL   H22423086   2.325   4.048   2.639 -0.7174  2.1291 -2.9829
   72MOL   H22523087   2.201   3.983   2.532  3.0062  0.2232 -0.3366
   72MOL   C22623088   2.218   3.830   2.958 -0.6350 -0.2268 -0.3263
   72MOL   C22723089   2.278   3.855   3.100  0.1450  0.4315 -0.4917
   72MOL   C22823090   2.289   3.711   2.882 -0.2167  0.1623  0.1905
   72MOL   C22923091   2.217   3.587   2.934  0.3618 -0.2532  0.5518
   72MOL   C23023092   2.092   3.536   2.856  0.2310 -0.3482  0.2134
   72MOL   C23123093   2.260   3.522   3.044  0.2469 -0.1446  0.4927
   72MOL   H23223094   2.116   3.797   2.981  0.2366 -0.8030  2.9970
   72MOL   H23323095   2.213   3.905   3.171 -1.4286 -1.9902 -0.1890
   72MOL   H23423096   2.374   3.907   3.093  1.4144 -1.6055  1.1800
   72MOL   H23523097   2.306   3.762   3.151 -1.6160  0.0503 -0.2052
   72MOL   H23623098   2.256   3.697   2.779 -2.2097 -2.1022  1.0779
   72MOL   H23723099   2.048   3.609   2.788 -0.3427  1.0193  2.0370
   72MOL   H23823100   2.021   3.498   2.928  1.0192 -3.7965 -0.7257
   72MOL   H23923101   2.124   3.452   2.794 -1.1568 -0.8005  0.0930
   72MOL   H24023102   2.348   3.556   3.095 -1.0058  2.6277  0.8938
   72MOL   H24123103   2.213   3.431   3.078  1.1460 -1.0463 -0.6202
   72MOL   C24223104   2.451   3.711   2.891 -0.2572  0.1476  0.4468
   72MOL   C24323105   2.518   3.837   2.830 -0.4635 -0.2704  0.7884
   72MOL   C24423106   2.514   3.571   2.838  0.7164 -0.1022 -0.0699
   72MOL   C24523107   2.615   3.522   2.941  0.1865  0.7129 -0.5361
   72MOL   C24623108   2.754   3.571   2.923 -0.0700  0.3594 -0.1269
   72MOL   C24723109   2.588   3.427   3.035 -0.3048 -0.2284 -0.2835
   72MOL   H24823110   2.470   3.720   2.998 -0.6952 -1.8923  0.7047
   72MOL   H24923111   2.457   3.873   2.747  1.5849 -0.7695 -0.9644
   72MOL   H25023112   2.624   3.828   2.808 -0.1259 -1.8097  2.8908
   72MOL   H25123113   2.505   3.915   2.905 -1.3409 -0.4739  0.8583
   72MOL   H25223114   2.436   3.495   2.844  0.3882  0.3150  1.1223
   72MOL   H25323115   2.804   3.584   3.019 -0.8702 -0.4829  0.4193
   72MOL   H25423116   2.769   3.666   2.873 -0.5832  0.0821 -0.8060
   72MOL   H25523117   2.805   3.499   2.860 -2.6262  0.0158 -1.8809
   72MOL   H25623118   2.492   3.377   3.039 -1.2748  1.7182  1.5392
   72MOL   H25723119   2.662   3.402   3.110  1.4487  1.5763 -1.3687
   72MOL   C25823120   2.565   3.559   2.692 -0.1553  0.1375 -0.7508
   72MOL   C25923121   2.454   3.603   2.593 -0.5874 -0.1819  0.1226
   72MOL   C26023122   2.635   3.423   2.649 -0.6224 -0.2214 -0.2944
   72MOL   C26123123   2.735   3.446   2.539  0.2525  0.1232  0.1985
   72MOL   C26223124   2.873   3.487   2.588 -0.2696 -0.0881  0.0497
   72MOL   C26323125   2.713   3.427   2.409 -0.3640  0.2294  0.1267
   72MOL   H26423126   2.645   3.632   2.682 -0.4255  0.5222 -0.1731
   72MOL   H26523127   2.416   3.705   2.589  1.0046  0.3570 -1.7794
   72MOL   H26623128   2.364   3.542   2.579  0.1867 -0.9633 -1.6898
   72MOL   H26723129   2.504   3.598   2.497 -2.1291 -0.0468 -0.7110
   72MOL   H26823130   2.687   3.394   2.741 -0.3696 -0.7443 -0.6008
   72MOL   H26923131   2.947   3.439   2.524 -1.6065  0.7700 -2.2046
   72MOL   H27023132   2.889   3.438   2.684 -0.2105 -0.3787 -0.1061
   72MOL   H27123133   2.882   3.594   2.604 -2.3806 -0.2074  2.3586
   72MOL   H27223134   2.622   3.392   2.363  0.2569  0.6092 -1.3992
   72MOL   H27323135   2.783   3.449   2.330 -0.7250  1.2462  0.0776
   72MOL   C27423136   2.545   3.298   2.624 -1.0080  0.2540 -0.2381
   72MOL   C27523137   2.439   3.272   2.731 -0.1934  0.3358  0.7367
   72MOL   C27623138   2.616   3.167   2.568  0.7300  0.0810 -0.4697
   72MOL   C27723139   2.533   3.096   2.454 -0.0319  0.1485 -0.4333
   72MOL   C27823140   2.400   3.031   2.490  0.4944  0.1031  0.0214
   72MOL   C27923141   2.576   3.101   2.327 -0.1363  0.1221 -0.9687
   72MOL   H28023142   2.488   3.334   2.538  0.1745  2.0529 -0.3013
   72MOL   H28123143   2.474   3.262   2.834  0.9050 -2.8904  0.1133
   72MOL   H28223144   2.387   3.178   2.713  1.5404 -1.1762  3.2708
   72MOL   H28323145   2.371   3.356   2.743  1.0965  1.2536  1.8290
   72MOL   H28423146   2.699   3.193   2.502 -0.1946  2.3901 -0.7777
   72MOL   H28523147   2.314   3.097   2.494 -0.3075 -0.9314  0.3111
   72MOL   H28623148   2.406   2.977   2.585  1.3501 -1.0170 -0.6471
   72MOL   H28723149   2.375   2.951   2.420  0.5278 -0.1338  0.2791
   72MOL   H28823150   2.656   3.161   2.288  0.3453  2.4908  3.4326
   72MOL   H28923151   2.519   3.046   2.253  1.7323  0.1607 -2.4673
   72MOL   C29023152   2.666   3.069   2.686  1.1453  0.1681 -0.2732
   72MOL   C29123153   2.743   3.138   2.801  0.3678  0.6808  0.2479
   72MOL   C29223154   2.729   2.934   2.630 -0.2686 -0.3418 -0.2389
   72MOL   C29323155   2.656   2.809   2.699 -0.1327 -0.6421  0.6460
   72MOL   C29423156   2.696   2.774   2.839  0.2407 -0.8616  0.2864
   72MOL   C29523157   2.559   2.740   2.640 -0.6541 -1.0927  0.1165
   72MOL   H29623158   2.574   3.026   2.724  1.7732  0.3461  1.5419
   72MOL   H29723159   2.824   3.203   2.769 -0.2130  1.7479  0.9269
   72MOL   H29823160   2.793   3.077   2.877  0.4309  0.9642  0.4330
   72MOL   H29923161   2.672   3.191   2.864 -0.1158 -1.2390  1.3688
   72MOL   H30023162   2.706   2.933   2.524 -0.5362  2.0293 -0.2260
   72MOL   H30123163   2.685   2.666   2.847 -2.8439 -0.6098  0.0794
   72MOL   H30223164   2.657   2.831   2.924 -1.9502  0.0181 -1.2425
   72MOL   H30323165   2.804   2.789   2.845 -0.0584  1.0683  1.6070
   72MOL   H30423166   2.535   2.767   2.538  0.8332  3.1893  0.8020
   72MOL   H30523167   2.511   2.658   2.691  0.5208 -2.4544 -0.9156
   72MOL   C30623168   2.886   2.931   2.627  0.3771 -0.3812 -0.6586
   72MOL   C30723169   2.942   3.034   2.533 -0.0984  0.2218  0.7242
   72MOL   C30823170   2.933   2.798   2.577  0.6323  0.7965 -0.4553
   72MOL   C30923171   3.086   2.780   2.575 -0.2130 -0.6433  0.0753
   72MOL   C31023172   3.160   2.757   2.710 -0.1112  0.5687 -0.4019
   72MOL   C31123173   3.157   2.784   2.466 -0.4228  0.0191 -0.1616
   72MOL   H31223174   2.926   2.936   2.728 -0.1372 -0.6557 -0.4426
   72MOL   H31323175   2.912   3.137   2.556  1.3051  1.0577 -1.0359
   72MOL   H31423176   2.925   3.006   2.430 -0.7732  3.6608 -0.1806
   72MOL   H31523177   3.050   3.049   2.541  0.4299 -3.3945  0.8837
   72MOL   H31623178   2.883   2.712   2.622  0.8484  2.2308  2.6538
   72MOL   H31723179   3.138   2.833   2.784  0.4773 -0.9808  1.3915
   72MOL   H31823180   3.268   2.754   2.694 -0.0822  0.3259 -0.1571
   72MOL   H31923181   3.116   2.665   2.748 -1.4059  1.1334 -0.5359
   72MOL   H32023182   3.121   2.791   2.364 -1.2543  0.7767  0.1719
   72MOL   H32123183   3.265   2.782   2.468 -0.3536  2.6994  0.9782
   72MOL   H32223184   2.905   2.779   2.474 -3.1261  1.7887  0.3035
   73MOL     C123185   0.648   6.064   4.099  0.5807  0.0987 -0.6898
   73MOL     C223186   0.793   6.000   4.095 -0.0404  0.4734  0.6509
   73MOL     C323187   0.639   6.207   4.162 -0.0991 -0.4869 -0.2448
   73MOL     C423188   0.702   6.232   4.303  0.1576 -0.4521 -0.4873
   73MOL     C523189   0.685   6.129   4.406  0.1267  0.7531 -0.1152
   73MOL     C623190   0.778   6.344   4.324  0.3869 -0.7386 -0.3522
   73MOL     H723191   0.615   6.066   3.996  1.2201 -1.1562 -0.9322
   73MOL     H823192   0.850   6.013   4.003  0.3538 -0.3766  0.7692
   73MOL     H923193   0.776   5.893   4.096 -1.9410  0.7568  0.6010
   73MOL    H1023194   0.849   6.035   4.182  0.0742 -0.6328  1.0266
   73MOL    H1123195   0.714   6.251   4.097 -0.5445 -0.8081 -0.9789
   73MOL    H1223196   0.735   6.154   4.500  1.1245  0.4594 -0.5591
   73MOL    H1323197   0.720   6.031   4.375 -0.3606 -0.0981  1.9343
   73MOL    H1423198   0.580   6.106   4.423 -0.0766  0.7055 -1.4156
   73MOL    H1523199   0.778   6.419   4.245 -0.7797  0.4772  0.7744
   73MOL    H1623200   0.836   6.358   4.414  2.3424 -1.6869 -1.4367
   73MOL    H1723201   0.577   6.004   4.156  0.9863  1.3839  1.2121
   73MOL    C1823202   0.506   6.284   4.149  0.0206 -0.4183  0.0641
   73MOL    C1923203   0.391   6.222   4.242  1.1551 -0.2550  0.4822
   73MOL    C2023204   0.456   6.296   3.996  0.0687  0.6951  0.1897
   73MOL    C2123205   0.566   6.329   3.887 -0.6069 -0.2339  0.1589
   73MOL    C2223206   0.648   6.453   3.905  0.2220 -0.0995  0.5561
   73MOL    C2323207   0.575   6.244   3.778 -0.0464 -0.0774 -0.1764
   73MOL    H2423208   0.526   6.381   4.194 -2.1556  1.1203 -2.0710
   73MOL    H2523209   0.384   6.121   4.202 -0.7497 -0.8884  2.3024
   73MOL    H2623210   0.294   6.272   4.244  0.9317 -0.5351 -1.9307
   73MOL    H2723211   0.427   6.205   4.344  1.2231 -0.6008  0.4026
   73MOL    H2823212   0.421   6.195   3.971  2.5774  0.1352 -1.2051
   73MOL    H2923213   0.576   6.535   3.915 -1.2323 -1.3270  0.4116
   73MOL    H3023214   0.708   6.468   3.816 -0.6906 -0.7447 -0.1721
   73MOL    H3123215   0.706   6.449   3.998 -1.7457  1.2903  1.9006
   73MOL    H3223216   0.505   6.163   3.780  0.6021 -0.6671 -1.0701
   73MOL    H3323217   0.646   6.254   3.697 -0.6469 -1.2405 -0.8484
   73MOL    C3423218   0.334   6.401   3.974 -0.1422 -0.4956 -0.3925
   73MOL    C3523219   0.328   6.510   4.094 -0.0154  0.3116  0.7727
   73MOL    C3623220   0.192   6.340   3.950  0.5773  1.0810  0.5311
   73MOL    C3723221   0.198   6.216   3.858 -0.3710 -0.0019  0.1514
   73MOL    C3823222   0.234   6.236   3.706 -0.6717 -0.0536 -0.1005
   73MOL    C3923223   0.187   6.095   3.911  0.4864  0.0421 -0.2036
   73MOL    H4023224   0.356   6.469   3.891 -0.0258  1.2181  1.0068
   73MOL    H4123225   0.286   6.472   4.188 -2.1290 -1.5455 -0.8661
   73MOL    H4223226   0.275   6.602   4.069 -1.4754 -1.0514 -1.2590
   73MOL    H4323227   0.417   6.554   4.139 -0.4209  2.0440 -0.0864
   73MOL    H4423228   0.155   6.307   4.047 -1.4924 -0.0368 -0.6068
   73MOL    H4523229   0.156   6.292   3.654 -0.7669  0.1370  0.2495
   73MOL    H4623230   0.245   6.139   3.657  1.5375 -0.2181  0.6463
   73MOL    H4723231   0.326   6.293   3.691  0.7246 -2.3864 -0.7366
   73MOL    H4823232   0.177   6.081   4.018  1.0980  0.0565 -0.1387
   73MOL    H4923233   0.188   6.007   3.849  0.2745  0.0986 -0.2866
   73MOL    C5023234   0.070   6.423   3.895  0.6257 -0.7096  0.1700
   73MOL    C5123235   0.123   6.541   3.825 -0.1022 -0.2044  0.4570
   73MOL    C5223236   7.857   6.457   4.010  0.4598 -0.1508 -0.3032
   73MOL    C5323237   7.782   6.329   4.062 -0.0666  0.2363  0.6171
   73MOL    C5423238   7.716   6.339   4.198  0.0613  0.8137  0.1343
   73MOL    C5523239   7.771   6.208   3.998  0.3875  0.1362 -0.0073
   73MOL    H5623240   0.023   6.360   3.819  2.0070 -1.9118  0.2956
   73MOL    H5723241   0.167   6.611   3.896 -0.0924  0.3585 -0.0969
   73MOL    H5823242   0.042   6.592   3.772  1.8744  0.0071 -2.4984
   73MOL    H5923243   0.195   6.510   3.749  0.1400 -1.0491  1.0248
   73MOL    H6023244   0.026   6.497   4.091 -2.1397  0.7410  1.2922
   73MOL    H6123245   7.776   6.408   4.256  0.9507  0.1597  0.0012
   73MOL    H6223246   7.701   6.245   4.251  0.0139 -1.4298 -3.7051
   73MOL    H6323247   7.617   6.382   4.181 -0.1457  0.5715  0.7052
   73MOL    H6423248   7.791   6.176   3.897 -0.1334 -0.4465  0.0711
   73MOL    H6523249   7.721   6.124   4.043 -0.4220  1.1630  1.0311
   73MOL    C6623250   7.750   6.571   3.980  0.0879  0.5022  0.4857
   73MOL    C6723251   7.669   6.528   3.849 -0.4929 -1.0914  0.9097
   73MOL    C6823252   7.793   6.721   3.999  0.3940 -0.7183 -0.5524
   73MOL    C6923253   7.849   6.750   4.141 -0.1182 -0.4822  0.8188
   73MOL    C7023254   7.757   6.731   4.258 -1.0516  0.0175 -0.4283
   73MOL    C7123255   0.081   6.793   4.160  0.3896 -0.4444  0.0793
   73MOL    H7223256   7.675   6.565   4.059 -1.5843 -1.0466 -1.1849
   73MOL    H7323257   7.579   6.587   3.830 -0.9792 -2.2643 -0.4676
   73MOL    H7423258   7.648   6.421   3.844 -1.5743 -0.8575  0.3334
   73MOL    H7523259   7.737   6.560   3.770  0.2123  1.1389  2.3622
   73MOL    H7623260   7.882   6.734   3.938 -0.3428 -0.5733 -1.6079
   73MOL    H7723261   7.821   6.722   4.346 -0.6315  2.6461 -0.3977
   73MOL    H7823262   7.715   6.631   4.252 -0.5634 -0.3690  2.1677
   73MOL    H7923263   7.687   6.814   4.265 -1.1506  0.2031 -3.1853
   73MOL    H8023264   0.142   6.810   4.073 -1.1289 -2.1217 -1.3306
   73MOL    H8123265   0.127   6.814   4.256  0.6302 -2.7058  0.4843
   73MOL    C8223266   7.690   6.833   3.950 -0.3632 -0.7386 -0.0385
   73MOL    C8323267   7.542   6.813   4.001 -0.5904 -0.0126  0.7200
   73MOL    C8423268   7.702   6.876   3.800 -0.5748  0.5879 -0.2712
   73MOL    C8523269   7.852   6.897   3.750  0.1629  0.0898  0.5405
   73MOL    C8623270   0.061   6.980   3.832  0.4870  1.0323 -0.2081
   73MOL    C8723271   0.010   6.836   3.637  0.0944 -0.3587 -1.2046
   73MOL    H8823272   7.715   6.928   3.998  0.8296  0.1693 -2.4016
   73MOL    H8923273   7.517   6.707   3.997 -2.2639  0.3127  2.1898
   73MOL    H9023274   7.472   6.871   3.940  0.1367 -0.7212 -0.8269
   73MOL    H9123275   7.520   6.848   4.102 -1.1724 -3.9011  1.9933
   73MOL    H9223276   7.667   6.786   3.750 -1.2445 -1.2976  3.4246
   73MOL    H9323277   0.165   6.949   3.840  0.6152  2.1837  3.9541
   73MOL    H9423278   0.022   6.984   3.934  1.7479  2.1403  0.2519
   73MOL    H9523279   0.059   7.083   3.796  0.9245  0.8674 -0.7081
   73MOL    H9623280   7.853   6.759   3.579 -1.1466 -0.6606  0.2414
   73MOL    H9723281   0.111   6.848   3.601 -0.4156  1.1151 -2.2027
   73MOL    C9823282   7.611   7.000   3.758 -0.2002 -0.1268 -0.1325
   73MOL    C9923283   7.621   7.010   3.606 -0.0703  0.3307  0.2479
   73MOL   C10023284   7.650   7.141   3.834 -0.1179 -0.3822 -0.5473
   73MOL   C10123285   7.606   7.160   3.982  0.1937 -0.4106 -0.8262
   73MOL   C10223286   7.457   7.159   4.017  0.0269 -0.1753  0.1274
   73MOL   C10323287   7.702   7.167   4.080  0.1427 -0.0659  0.0055
   73MOL   H10423288   7.503   6.992   3.773 -0.3265  1.0095 -0.3518
   73MOL   H10523289   7.632   6.915   3.553  2.0538 -1.0608  3.0174
   73MOL   H10623290   7.716   7.056   3.580 -0.5474  1.2894  0.1807
   73MOL   H10723291   7.537   7.052   3.551 -0.8899  1.8486  2.5925
   73MOL   H10823292   7.759   7.148   3.830 -0.0813 -1.0027 -0.7801
   73MOL   H10923293   7.421   7.257   3.989  0.4245  0.0186  0.2866
   73MOL   H11023294   7.435   7.151   4.123 -0.8235  2.9884  0.2115
   73MOL   H11123295   7.400   7.086   3.960  0.8143  0.7723 -1.9215
   73MOL   H11223296   7.804   7.164   4.046  0.9436 -2.6199  2.4575
   73MOL   H11323297   7.682   7.183   4.185 -0.1710  0.3735 -0.1207
   73MOL   C11423298   7.609   7.272   3.761 -0.8813 -0.2312  0.0712
   73MOL   C11523299   7.459   7.261   3.711 -1.1962 -0.1823  0.1962
   73MOL   C11623300   7.709   7.334   3.657 -0.5650 -0.7945  0.2289
   73MOL   C11723301   7.856   7.339   3.707 -0.2255  0.4914 -1.1271
   73MOL   C11823302   0.070   7.295   3.609  0.1469 -0.2707  0.5255
   73MOL   C11923303   7.892   7.394   3.829  0.4555 -0.7877 -0.0863
   73MOL   H12023304   7.588   7.349   3.835  0.1125  1.4390 -1.3516
   73MOL   H12123305   7.457   7.222   3.609 -0.4150  0.7895 -0.2017
   73MOL   H12223306   7.406   7.355   3.706  1.1772  1.1489 -0.7266
   73MOL   H12323307   7.396   7.193   3.769 -0.2482 -0.1455  1.2776
   73MOL   H12423308   7.728   7.263   3.577 -1.2510  0.6777 -1.2631
   73MOL   H12523309   0.087   7.372   3.534  2.1375  0.3454  1.5896
   73MOL   H12623310   0.041   7.200   3.564 -3.4363  0.2187  1.6428
   73MOL   H12723311   0.164   7.273   3.660  2.0549  2.3622 -1.7434
   73MOL   H12823312   7.807   7.417   3.892  0.3926  0.2836 -0.5520
   73MOL   H12923313   0.101   7.401   3.867  0.3339 -0.5641  0.2059
   73MOL   C13023314   7.678   7.473   3.599 -0.4901 -0.0547 -0.3571
   73MOL   C13123315   7.638   7.571   3.714 -0.2371  0.3188 -0.3051
   73MOL   C13223316   7.585   7.481   3.476 -0.0897 -0.0269  0.8051
   73MOL   C13323317   7.608   7.370   3.373 -0.2489 -0.8425  1.5567
   73MOL   C13423318   7.733   7.390   3.284  0.4421  0.2369 -0.6310
   73MOL   C13523319   7.533   7.260   3.352  0.3549 -0.9608  0.2548
   73MOL   H13623320   7.773   7.511   3.559 -0.4289 -1.8102 -1.9234
   73MOL   H13723321   7.546   7.544   3.767  0.5228  1.0733  1.4117
   73MOL   H13823322   7.626   7.672   3.674 -0.2978  0.1186 -0.7932
   73MOL   H13923323   7.717   7.594   3.785  2.1946 -2.1347 -2.1199
   73MOL   H14023324   7.491   7.445   3.518 -0.2640 -1.4693 -0.7563
   73MOL   H14123325   7.768   7.308   3.222 -0.0175 -0.6923  0.3195
   73MOL   H14223326   7.816   7.429   3.343 -0.4059  1.1106  0.0082
   73MOL   H14323327   7.704   7.463   3.209 -2.6719  0.4591  0.7114
   73MOL   H14423328   7.440   7.250   3.406  0.3108 -0.0706  0.3545
   73MOL   H14523329   7.565   7.184   3.282 -1.5938  1.0986 -2.9780
   73MOL   C14623330   7.572   7.618   3.396 -0.0250 -0.2839  0.2255
   73MOL   C14723331   7.706   7.701   3.399 -0.4799  0.8120 -0.1225
   73MOL   C14823332   7.451   7.710   3.434 -0.5325  0.3842 -0.0247
   73MOL   C14923333   7.317   7.632   3.458 -0.1102  0.1770 -0.1438
   73MOL   C15023334   7.239   7.656   3.586  0.2396 -0.2546 -0.4411
   73MOL   C15123335   7.276   7.531   3.379 -0.1776  0.0653 -0.0521
   73MOL   H15223336   7.552   7.596   3.291 -1.9190 -1.5386  0.8270
   73MOL   H15323337   7.704   7.773   3.318  2.6456 -0.1618 -1.1094
   73MOL   H15423338   7.791   7.635   3.385 -0.8159  0.5790 -1.0763
   73MOL   H15523339   7.716   7.758   3.492 -0.5276 -0.4379  0.6742
   73MOL   H15623340   7.481   7.737   3.535 -1.5588  0.4890  0.2641
   73MOL   H15723341   7.158   7.585   3.601 -0.5950  0.5686 -1.0361
   73MOL   H15823342   7.196   7.756   3.585  1.0215  0.0926  0.1100
   73MOL   H15923343   7.309   7.655   3.670 -1.6078  0.9786  1.1494
   73MOL   H16023344   7.334   7.500   3.293  0.5137  0.8835  0.1141
   73MOL   H16123345   7.191   7.471   3.408  0.2951  1.2209  3.9473
   73MOL   C16223346   7.408   7.830   3.338 -0.8366  0.0866 -0.1734
   73MOL   C16323347   7.411   7.791   3.188 -0.5210  0.3777 -0.2238
   73MOL   C16423348   7.485   0.075   3.374  0.2342  0.1432  0.5687
   73MOL   C16523349   7.512   0.099   3.520  0.2181 -0.1276 -0.0289
   73MOL   C16623350   7.649   0.157   3.557  0.0322 -0.9316 -0.6657
   73MOL   C16723351   7.418   0.083   3.613 -0.1640  0.3225  0.0516
   73MOL   H16823352   7.307   7.853   3.370 -1.6444 -1.4083 -1.6284
   73MOL   H16923353   7.357   7.855   3.119  2.0279  1.4576 -1.2756
   73MOL   H17023354   7.361   7.694   3.183  1.6299 -0.6956 -1.8878
   73MOL   H17123355   7.514   7.774   3.157 -0.2769 -2.4077  1.8487
   73MOL   H17223356   7.585   0.068   3.331 -0.5907  3.4259 -2.0701
   73MOL   H17323357   7.729   0.092   3.520 -1.4995 -2.6276 -1.0594
   73MOL   H17423358   7.670   0.170   3.663 -3.4060  1.2035 -0.1998
   73MOL   H17523359   7.667   0.258   3.519  2.0040 -0.9472  0.1469
   73MOL   H17623360   7.324   0.039   3.583  0.3013 -0.2955 -0.5158
   73MOL   H17723361   7.429   0.107   3.718 -0.7251 -1.2088  0.4664
   73MOL   C17823362   7.426   0.209   3.305  0.6150  0.2630 -0.0661
   73MOL   C17923363   7.279   0.206   3.314  0.6745 -0.3073 -0.1037
   73MOL   C18023364   7.486   0.244   3.161 -0.3745 -0.1905 -0.3993
   73MOL   C18123365   7.639   0.237   3.156 -0.4970 -0.3539 -0.1487
   73MOL   C18223366   7.715   0.335   3.241  1.2562 -0.1022  0.5078
   73MOL   C18323367   7.699   0.156   3.067 -0.6556  0.2161 -0.3294
   73MOL   H18423368   7.449   0.298   3.362  0.2836  2.0422 -2.6401
   73MOL   H18523369   7.241   0.308   3.307  1.3837 -0.0641 -0.4305
   73MOL   H18623370   7.251   0.188   3.417 -0.2317  1.7701  0.0386
   73MOL   H18723371   7.220   0.136   3.254  0.3933  1.2370 -1.6690
   73MOL   H18823372   7.455   0.160   3.099 -1.4304  1.1339 -1.7229
   73MOL   H18923373   7.799   0.279   3.280  0.3123 -1.3831  0.7085
   73MOL   H19023374   7.660   0.359   3.332  1.0988 -0.2145  0.4424
   73MOL   H19123375   7.745   0.428   3.191  2.5422 -0.6305  0.2709
   73MOL   H19223376   7.648   0.088   3.000 -0.5136 -1.0903  0.8744
   73MOL   H19323377   7.806   0.157   3.054 -0.4884  4.0623  0.9073
   73MOL   C19423378   7.435   0.371   3.078 -0.1376 -0.6468 -0.5259
   73MOL   C19523379   7.437   0.511   3.149 -0.5721  0.8055  1.1126
   73MOL   C19623380   7.308   0.345   2.996  0.1971 -0.5361  1.1375
   73MOL   C19723381   7.324   0.231   2.887 -0.8620 -0.3159  0.0037
   73MOL   C19823382   7.205   0.150   2.871  0.1125  0.2388 -0.2668
   73MOL   C19923383   7.437   0.206   2.814 -0.3185  0.4874 -0.4673
   73MOL   H20023384   7.518   0.376   3.008 -0.4771 -0.3891 -0.9187
   73MOL   H20123385   7.420   0.591   3.077 -0.1184 -0.8321 -0.8558
   73MOL   H20223386   7.533   0.541   3.190 -1.1192  2.2307  1.3743
   73MOL   H20323387   7.365   0.512   3.231 -0.3697  0.9251  1.2893
   73MOL   H20423388   7.233   0.314   3.069  1.0622 -1.4679  1.6350
   73MOL   H20523389   7.183   0.100   2.965  2.0684 -1.3600 -0.6248
   73MOL   H20623390   7.235   0.072   2.801  0.6431  0.4640 -0.2922
   73MOL   H20723391   7.119   0.209   2.840  2.0031  3.6008  0.6298
   73MOL   H20823392   7.527   0.260   2.839 -0.7262  2.1899 -2.5396
   73MOL   H20923393   7.432   0.135   2.733 -0.9535 -0.4267  0.3583
   73MOL   C21023394   7.248   0.473   2.924 -0.0337 -0.1538  0.2358
   73MOL   C21123395   7.341   0.532   2.820 -0.3916 -0.1202 -0.3085
   73MOL   C21223396   7.165   0.586   3.010  0.2213 -0.8212  0.5298
   73MOL   C21323397   7.084   0.533   3.122 -0.4129 -0.2978  0.2638
   73MOL   C21423398   6.979   0.421   3.093  0.0961 -0.1962 -0.4256
   73MOL   C21523399   7.085   0.586   3.243 -0.0763 -0.4739  0.0005
   73MOL   H21623400   7.163   0.433   2.869 -0.1329 -1.5266  1.3486
   73MOL   H21723401   7.395   0.454   2.766 -1.2214 -1.5793  0.9394
   73MOL   H21823402   7.435   0.573   2.856 -0.6751 -0.9895  1.4816
   73MOL   H21923403   7.296   0.605   2.753 -1.7993  0.9298  1.7423
   73MOL   H22023404   7.231   0.638   3.079  0.2998 -0.3641  0.1139
   73MOL   H22123405   7.021   0.349   3.022 -1.6219 -0.9758 -0.6693
   73MOL   H22223406   6.883   0.451   3.051 -0.0174  0.3517  0.2210
   73MOL   H22323407   6.960   0.373   3.189 -3.6206  0.9285 -0.5113
   73MOL   H22423408   7.145   0.668   3.279  1.3848  0.2088 -3.7723
   73MOL   H22523409   7.010   0.546   3.310  0.2936 -2.0414 -0.4932
   73MOL   C22623410   7.074   0.685   2.927  0.5571  0.2758 -0.5197
   73MOL   C22723411   6.992   0.617   2.817 -0.8489 -0.0829 -0.3496
   73MOL   C22823412   7.134   0.824   2.886  0.0453 -0.0641  0.5049
   73MOL   C22923413   7.206   0.894   3.012 -0.2497 -0.2739 -0.4679
   73MOL   C23023414   7.346   0.946   2.980  0.4825 -0.2317  0.2383
   73MOL   C23123415   7.154   0.892   3.136  0.0219  0.7311 -0.6717
   73MOL   H23223416   6.993   0.721   2.990  1.3911  0.3810  0.5051
   73MOL   H23323417   7.052   0.608   2.727  1.4898 -0.8860  1.2112
   73MOL   H23423418   6.898   0.671   2.805 -0.3337  1.4524  2.1516
   73MOL   H23523419   6.961   0.514   2.837  0.1193 -0.6246 -1.5582
   73MOL   H23623420   7.222   0.782   2.836  0.0184  0.3358  0.1144
   73MOL   H23723421   7.371   1.009   3.065 -0.1752  0.4186 -0.0398
   73MOL   H23823422   7.341   1.010   2.891  0.7801  0.2143  0.5450
   73MOL   H23923423   7.411   0.860   2.966 -1.0840 -1.4003 -0.0594
   73MOL   H24023424   7.054   0.857   3.154 -0.8157  2.4798 -1.9001
   73MOL   H24123425   7.205   0.930   3.223  0.3860 -0.3295 -0.4131
   73MOL   C24223426   7.063   0.929   2.788 -0.2924 -0.3971 -0.4239
   73MOL   C24323427   7.171   0.992   2.693 -0.3811  0.3021 -0.2253
   73MOL   C24423428   6.964   1.037   2.856  0.4310 -0.0064 -0.5684
   73MOL   C24523429   6.855   0.972   2.944  0.1119 -0.0418 -0.3223
   73MOL   C24623430   6.842   1.016   3.090 -0.9819  0.1322 -0.1062
   73MOL   C24723431   6.768   0.880   2.898 -0.4974  0.1554 -0.8850
   73MOL   H24823432   7.003   0.870   2.719 -0.7227 -1.3933  0.7841
   73MOL   H24923433   7.252   0.921   2.678 -1.3978 -0.8237 -0.4208
   73MOL   H25023434   7.217   1.083   2.732  2.2092 -0.7358 -0.7786
   73MOL   H25123435   7.136   1.019   2.593 -0.9621  4.5508  1.0029
   73MOL   H25223436   7.029   1.073   2.936 -0.1306 -2.8176  1.2580
   73MOL   H25323437   6.760   0.957   3.131 -1.4030  0.1568 -0.9005
   73MOL   H25423438   6.819   1.122   3.080  2.5706  0.7482 -2.8132
   73MOL   H25523439   6.930   1.007   3.154 -0.9066  1.4294 -0.0178
   73MOL   H25623440   6.779   0.851   2.795 -0.1449 -0.6854 -0.6152
   73MOL   H25723441   6.697   0.835   2.965  0.3159 -0.2849 -0.3023
   73MOL   C25823442   6.901   1.143   2.767  0.1151 -0.5768 -0.1240
   73MOL   C25923443   6.827   1.091   2.642  0.4182  0.2397  0.3930
   73MOL   C26023444   6.978   1.282   2.732  0.1794 -0.0028 -0.2214
   73MOL   C26123445   7.053   1.344   2.856  0.4759  0.0194 -0.3298
   73MOL   C26223446   6.960   1.402   2.959  0.1959 -0.0862 -0.1940
   73MOL   C26323447   7.184   1.357   2.867 -1.1304 -0.4701 -0.6762
   73MOL   H26423448   6.813   1.175   2.821  1.2165  0.7060  0.9553
   73MOL   H26523449   6.902   1.057   2.570 -0.7214 -0.6821 -0.3767
   73MOL   H26623450   6.759   1.158   2.588 -0.4117 -0.0381  1.0817
   73MOL   H26723451   6.773   1.003   2.675  0.9767  0.0797  0.8898
   73MOL   H26823452   7.072   1.259   2.683  1.6738 -0.2963  2.6893
   73MOL   H26923453   6.895   1.336   3.017 -0.3389 -0.9028 -1.6857
   73MOL   H27023454   6.893   1.477   2.914 -0.7748 -0.6624  0.2917
   73MOL   H27123455   7.019   1.451   3.036 -1.2831 -0.1819  1.0113
   73MOL   H27223456   7.251   1.326   2.788  1.3732  3.8678 -0.3532
   73MOL   H27323457   7.239   1.406   2.946 -3.6746 -0.0843  0.9235
   73MOL   C27423458   6.916   1.391   2.638 -0.0109  0.0277 -0.2779
   73MOL   C27523459   6.765   1.418   2.673  0.5007 -0.0213  0.1216
   73MOL   C27623460   6.943   1.364   2.482  1.2191  0.3097 -0.2727
   73MOL   C27723461   7.069   1.296   2.447  0.4420 -0.7807  0.3103
   73MOL   C27823462   7.209   1.360   2.483  0.2417  0.2707  0.4731
   73MOL   C27923463   7.065   1.177   2.381 -0.1738 -0.1663  0.0086
   73MOL   H28023464   6.965   1.485   2.664  1.4482 -0.9860  0.6339
   73MOL   H28123465   6.737   1.429   2.778 -3.3386 -0.3905 -0.7631
   73MOL   H28223466   6.686   1.354   2.633 -0.7774  1.3427  0.4200
   73MOL   H28323467   6.743   1.519   2.638 -0.5955 -0.4499 -0.4584
   73MOL   H28423468   6.862   1.297   2.454  2.9809 -1.5253 -1.0780
   73MOL   H28523469   7.241   1.439   2.415  3.1550  0.0447  1.5089
   73MOL   H28623470   7.286   1.284   2.490 -0.4754 -0.4391  0.6447
   73MOL   H28723471   7.208   1.413   2.579  1.1600 -0.1528  0.7173
   73MOL   H28823472   6.982   1.119   2.344 -0.2313 -1.0567  1.4796
   73MOL   H28923473   7.160   1.129   2.360 -0.8166 -1.8173  0.7954
   73MOL   C29023474   6.919   1.490   2.383  0.9673  0.5328  1.0513
   73MOL   C29123475   6.987   1.615   2.440 -0.2936  0.0786  0.9721
   73MOL   C29223476   6.770   1.516   2.336  0.2547 -0.5705  0.5251
   73MOL   C29323477   6.702   1.393   2.265  0.1547 -0.2686  0.2134
   73MOL   C29423478   6.563   1.356   2.322 -0.9556 -0.7441  0.0758
   73MOL   C29523479   6.752   1.328   2.154  0.0634 -0.7077 -0.0781
   73MOL   H29623480   6.972   1.458   2.293  0.4414  0.9770  0.5800
   73MOL   H29723481   6.936   1.643   2.532  0.5785  1.9139  0.8993
   73MOL   H29823482   6.985   1.702   2.375  1.3028  0.2649  1.1687
   73MOL   H29923483   7.092   1.605   2.464 -0.1009  1.1997  0.6219
   73MOL   H30023484   6.712   1.531   2.427  0.3759 -0.1698  0.5369
   73MOL   H30123485   6.506   1.448   2.318  1.6543  0.9817  1.1563
   73MOL   H30223486   6.563   1.327   2.427  0.5538  0.4862  0.4349
   73MOL   H30323487   6.506   1.280   2.269 -0.4314 -1.4604  0.5284
   73MOL   H30423488   6.837   1.351   2.092  0.0569  0.6061  0.3905
   73MOL   H30523489   6.701   1.240   2.118 -0.4082 -0.1115 -0.9038
   73MOL   C30623490   6.745   1.647   2.255  0.0129  0.2978 -0.0958
   73MOL   C30723491   6.600   1.687   2.228  0.3096 -0.2713 -0.1360
   73MOL   C30823492   6.832   1.665   2.133  0.2649 -0.3161 -0.3198
   73MOL   C30923493   6.840   1.803   2.090  0.8315  0.6156  0.6656
   73MOL   C31023494   6.944   1.892   2.157 -0.3599  0.3265  0.0123
   73MOL   C31123495   6.757   1.858   1.994 -0.1479  0.6953  0.3935
   73MOL   H31223496   6.773   1.730   2.319 -0.9144 -1.1996  2.3142
   73MOL   H31323497   6.562   1.657   2.130 -1.5004  2.1821 -0.2513
   73MOL   H31423498   6.586   1.794   2.216  0.6168 -0.0643  1.2723
   73MOL   H31523499   6.527   1.659   2.304  0.2717  0.9649  0.2931
   73MOL   H31623500   6.935   1.636   2.152  0.2347 -0.7628 -0.8077
   73MOL   H31723501   6.948   1.991   2.111  1.2642  0.6972  0.9027
   73MOL   H31823502   7.044   1.849   2.154  0.1827  1.5956 -1.4453
   73MOL   H31923503   6.919   1.906   2.262  3.6485 -1.7571  1.3041
   73MOL   H32023504   6.680   1.797   1.948  0.6451  0.1066 -0.1609
   73MOL   H32123505   6.763   1.962   1.969  1.0412  0.6652  0.5193
   73MOL   H32223506   6.797   1.605   2.048  0.3132 -2.1810  0.9568
   74MOL     C123507   3.043   2.176   0.324  0.5111  0.0828 -0.6965
   74MOL     C223508   3.004   2.039   0.381  0.3502  0.1640  0.0824
   74MOL     C323509   3.164   2.237   0.408 -0.9286  0.7910  0.4562
   74MOL     C423510   3.124   2.256   0.554  0.2754 -1.0324 -0.2173
   74MOL     C523511   3.046   2.388   0.578 -0.9579  0.0494 -0.1721
   74MOL     C623512   3.147   2.164   0.651 -0.4316  0.2053  0.5053
   74MOL     H723513   3.055   2.169   0.216 -1.8845 -1.6596 -0.8970
   74MOL     H823514   2.941   1.983   0.312 -0.1645  0.3230  0.4197
   74MOL     H923515   2.968   2.034   0.484 -3.0443 -3.1923 -1.1870
   74MOL    H1023516   3.096   1.981   0.377  0.3509  0.1829 -0.2121
   74MOL    H1123517   3.234   2.154   0.393 -0.1813  1.3457  0.8664
   74MOL    H1223518   3.103   2.475   0.547 -1.5956 -0.3641 -2.6534
   74MOL    H1323519   3.018   2.384   0.683  0.5292 -0.6080  0.2012
   74MOL    H1423520   2.950   2.377   0.527 -1.3781  1.9911  0.1754
   74MOL    H1523521   3.196   2.071   0.626  0.6145  0.4736  1.4896
   74MOL    H1623522   3.113   2.186   0.752 -0.2523 -1.5702  0.9711
   74MOL    H1723523   2.952   2.234   0.339  1.0514  0.8438 -0.3439
   74MOL    C1823524   3.228   2.362   0.329 -0.3101 -0.5693 -0.0050
   74MOL    C1923525   3.278   2.324   0.183  0.3468  0.2050 -0.2077
   74MOL    C2023526   3.327   2.457   0.394  0.1148 -0.2721  0.1249
   74MOL    C2123527   3.304   2.596   0.330  0.4236  0.0030 -0.1064
   74MOL    C2223528   3.179   2.671   0.382 -0.2619  0.0433  0.1749
   74MOL    C2323529   3.379   2.639   0.233  0.1024  1.0748  0.3569
   74MOL    H2423530   3.140   2.421   0.305  0.5356 -0.2749 -2.5770
   74MOL    H2523531   3.357   2.249   0.177  0.3148  0.1146  0.4760
   74MOL    H2623532   3.301   2.412   0.123 -2.4654  1.4117  0.4052
   74MOL    H2723533   3.205   2.279   0.116 -0.0903 -0.0771  0.4609
   74MOL    H2823534   3.299   2.481   0.496  0.1325 -0.6947  0.2301
   74MOL    H2923535   3.087   2.639   0.333 -1.1002 -0.4155  2.0062
   74MOL    H3023536   3.202   2.773   0.351  1.5151 -0.8163 -1.4670
   74MOL    H3123537   3.167   2.677   0.490  3.2446  1.9163  0.5212
   74MOL    H3223538   3.458   2.577   0.195 -1.2510 -1.3480  1.4323
   74MOL    H3323539   3.354   2.736   0.191 -1.0542  0.9711  0.7857
   74MOL    C3423540   3.472   2.418   0.411  0.5373 -0.2516 -0.1204
   74MOL    C3523541   3.482   2.280   0.470 -0.4678  0.4067 -1.1028
   74MOL    C3623542   3.559   2.522   0.487 -0.3551 -0.7411  0.3228
   74MOL    C3723543   3.691   2.534   0.417  0.0408 -0.4073  0.0345
   74MOL    C3823544   3.789   2.415   0.424 -0.1079  0.3650 -0.2258
   74MOL    C3923545   3.717   2.633   0.334 -0.4953 -0.1841  0.2983
   74MOL    H4023546   3.510   2.420   0.309 -0.3179  0.6737 -0.4329
   74MOL    H4123547   3.467   2.215   0.384  0.7145 -3.1521  1.2842
   74MOL    H4223548   3.410   2.269   0.552 -0.7024  2.2166 -1.0506
   74MOL    H4323549   3.583   2.262   0.507 -1.3402 -1.6018  0.4172
   74MOL    H4423550   3.512   2.619   0.471 -1.0094 -1.0595  0.2998
   74MOL    H4523551   3.885   2.441   0.380  1.5384 -2.0722  1.8492
   74MOL    H4623552   3.757   2.325   0.371  1.0437 -0.5890  0.6808
   74MOL    H4723553   3.811   2.402   0.529 -0.5713  0.4847 -0.1087
   74MOL    H4823554   3.654   2.719   0.317 -1.1638 -0.5264  0.9770
   74MOL    H4923555   3.812   2.622   0.284  1.1537  0.4104  3.1816
   74MOL    C5023556   3.562   2.514   0.647  0.1251  0.5881 -0.2081
   74MOL    C5123557   3.425   2.506   0.708  0.5131  0.3673 -0.1553
   74MOL    C5223558   3.641   2.628   0.722 -0.4515 -0.2857  0.1267
   74MOL    C5323559   3.729   2.569   0.834 -0.2872  0.5929 -0.0654
   74MOL    C5423560   3.866   2.529   0.798  0.2830 -0.0524  0.6086
   74MOL    C5523561   3.683   2.527   0.953 -0.3515  0.0456 -0.5043
   74MOL    H5623562   3.612   2.420   0.671  0.5546  0.8416 -0.1073
   74MOL    H5723563   3.351   2.580   0.677 -0.4594  1.1539  3.7430
   74MOL    H5823564   3.435   2.519   0.816 -1.7296 -0.2077  0.1516
   74MOL    H5923565   3.372   2.411   0.702  1.7642 -0.4656  1.6334
   74MOL    H6023566   3.714   2.658   0.646 -1.4459 -1.9008 -1.4897
   74MOL    H6123567   3.928   2.545   0.887  0.2570 -1.1512  0.8310
   74MOL    H6223568   3.908   2.592   0.720  2.0919 -0.9868  0.7802
   74MOL    H6323569   3.876   2.426   0.763 -2.5918  0.3868 -1.6105
   74MOL    H6423570   3.580   2.535   0.984 -0.0243  0.6687  0.4096
   74MOL    H6523571   3.750   2.474   1.019 -0.4997  0.9750  0.3857
   74MOL    C6623572   3.560   2.760   0.763 -0.0547 -0.5204 -0.4138
   74MOL    C6723573   3.499   2.836   0.643  0.7447  0.0355  0.6026
   74MOL    C6823574   3.628   2.862   0.857  0.5230  0.1127 -0.2631
   74MOL    C6923575   3.525   2.928   0.954 -0.4155 -0.1873  0.6392
   74MOL    C7023576   3.499   2.853   1.085  0.8366  0.1719  0.5871
   74MOL    C7123577   3.464   3.047   0.930  0.3218 -0.1612  0.2725
   74MOL    H7223578   3.476   2.732   0.826  0.1950  0.0244  0.1670
   74MOL    H7323579   3.439   2.918   0.683  0.7420  0.2257  0.2036
   74MOL    H7423580   3.420   2.787   0.586  1.1824  0.3470 -0.2795
   74MOL    H7523581   3.571   2.879   0.574  0.0539  0.5912  0.2152
   74MOL    H7623582   3.688   2.801   0.925  1.4658 -2.0801 -2.9826
   74MOL    H7723583   3.422   2.895   1.150  0.3210 -0.3894  0.3539
   74MOL    H7823584   3.589   2.850   1.145  2.7172 -1.4543 -2.1836
   74MOL    H7923585   3.477   2.750   1.056  0.7863  0.9507 -2.3136
   74MOL    H8023586   3.476   3.104   0.839  0.9766 -0.6220  0.0655
   74MOL    H8123587   3.396   3.092   1.001  1.5138 -0.5690  1.7003
   74MOL    C8223588   3.724   2.959   0.796 -0.3676 -0.3296  0.1862
   74MOL    C8323589   3.832   2.894   0.702 -0.1578 -0.0980  0.0928
   74MOL    C8423590   3.788   3.073   0.894 -0.6767 -0.4068 -0.2176
   74MOL    C8523591   3.800   3.207   0.826 -0.1816  0.5597  0.5985
   74MOL    C8623592   3.688   3.303   0.861 -0.7261  0.0536 -0.0107
   74MOL    C8723593   3.896   3.246   0.747 -0.3376 -0.1277  1.2466
   74MOL    H8823594   3.661   3.014   0.726  0.3797  0.2783 -0.0278
   74MOL    H8923595   3.914   2.961   0.674  0.1418  0.1522  1.5422
   74MOL    H9023596   3.782   2.865   0.609 -2.2157 -2.4336  1.8572
   74MOL    H9123597   3.881   2.812   0.755  1.2260  0.0770 -0.8758
   74MOL    H9223598   3.718   3.079   0.978 -0.4732 -3.2510  0.1792
   74MOL    H9323599   3.584   3.280   0.838 -0.9541  2.8664 -2.1632
   74MOL    H9423600   3.710   3.400   0.816 -2.0693  1.3321  2.0371
   74MOL    H9523601   3.690   3.320   0.968  0.7398  0.0049 -0.0205
   74MOL    H9623602   3.975   3.181   0.712 -1.3371  0.2358 -1.8269
   74MOL    H9723603   3.900   3.342   0.698  0.5462 -0.2264  1.1093
   74MOL    C9823604   3.924   3.020   0.951  0.3441  0.0223 -0.0656
   74MOL    C9923605   3.911   2.883   1.034  0.2390 -0.4022  0.1082
   74MOL   C10023606   4.017   3.130   1.026  0.0206  0.1616  0.0817
   74MOL   C10123607   4.162   3.117   0.971 -0.5785  0.4818 -0.2265
   74MOL   C10223608   4.241   2.984   1.001  0.0195 -0.2003 -0.3642
   74MOL   C10323609   4.218   3.223   0.912 -0.7746 -0.7226  0.7340
   74MOL   H10423610   3.987   3.005   0.864 -1.9305 -0.3115 -1.7184
   74MOL   H10523611   3.994   2.874   1.105 -0.2818  1.9630  1.0711
   74MOL   H10623612   3.902   2.800   0.964 -2.6567 -1.3506  1.5151
   74MOL   H10723613   3.825   2.875   1.100  0.4130 -1.9261  0.1794
   74MOL   H10823614   3.983   3.224   0.985  1.4179  0.1636 -1.1018
   74MOL   H10923615   4.179   2.899   0.974 -2.4890  0.6203  2.5719
   74MOL   H11023616   4.265   2.975   1.107  1.7856  2.6454 -0.4466
   74MOL   H11123617   4.322   2.974   0.929 -0.0136 -1.1221 -0.2681
   74MOL   H11223618   4.162   3.311   0.885 -0.4305 -0.8161 -0.3008
   74MOL   H11323619   4.321   3.214   0.883 -1.2505 -2.3531 -0.5825
   74MOL   C11423620   4.002   3.133   1.184 -0.5859  0.6370  0.0941
   74MOL   C11523621   3.858   3.142   1.242  1.2646  0.9533 -0.1749
   74MOL   C11623622   4.096   3.247   1.252  0.2056 -0.6918  0.0598
   74MOL   C11723623   4.140   3.205   1.394 -0.3308  0.4313 -0.4323
   74MOL   C11823624   4.267   3.113   1.407 -0.1216 -0.9429  0.2341
   74MOL   C11923625   4.071   3.229   1.507  0.0928 -0.1237  0.8441
   74MOL   H12023626   4.050   3.040   1.215  0.2999  1.1852  0.3716
   74MOL   H12123627   3.856   3.163   1.349 -0.5737 -0.1084  0.0284
   74MOL   H12223628   3.785   3.067   1.209  1.7346  0.8400 -0.9593
   74MOL   H12323629   3.819   3.238   1.210 -0.8456  0.5824  1.1910
   74MOL   H12423630   4.192   3.243   1.201 -0.4184  1.9426 -1.3889
   74MOL   H12523631   4.358   3.171   1.388 -0.9803  0.5791  0.6757
   74MOL   H12623632   4.253   3.037   1.330  0.3458 -2.0140  1.1990
   74MOL   H12723633   4.274   3.069   1.506  0.2152 -1.1854  0.1061
   74MOL   H12823634   3.973   3.271   1.524  0.3615  0.1023  1.8615
   74MOL   H12923635   4.116   3.204   1.602  1.3838 -1.2914 -0.0609
   74MOL   C13023636   4.042   3.398   1.251  0.6939  0.5413 -0.6285
   74MOL   C13123637   4.024   3.444   1.103  0.0702 -0.6041 -0.4273
   74MOL   C13223638   4.109   3.507   1.345 -0.2409  0.3750  0.5122
   74MOL   C13323639   3.992   3.598   1.383 -0.1970  0.6552  0.2970
   74MOL   C13423640   3.903   3.545   1.494 -0.1038 -0.0163 -0.2434
   74MOL   C13523641   3.961   3.713   1.322 -0.3654 -0.2566  0.2263
   74MOL   H13623642   3.939   3.390   1.284  1.3143 -1.1399  0.9904
   74MOL   H13723643   3.998   3.550   1.110 -3.2916 -1.2315 -2.3901
   74MOL   H13823644   3.933   3.406   1.056 -0.1119 -0.9469  0.1807
   74MOL   H13923645   4.114   3.423   1.045 -0.0696  1.5190 -1.4278
   74MOL   H14023646   4.128   3.460   1.441  3.0412 -0.5672 -0.5526
   74MOL   H14123647   3.836   3.620   1.534  2.2472  1.2488  1.4282
   74MOL   H14223648   3.968   3.504   1.571 -1.1535 -0.2288  0.5327
   74MOL   H14323649   3.842   3.461   1.461  0.6027 -0.2301 -1.0264
   74MOL   H14423650   4.016   3.750   1.237 -0.4574  4.1563  1.9460
   74MOL   H14523651   3.872   3.767   1.353 -1.4012 -1.1310 -1.1905
   74MOL   C14623652   4.251   3.580   1.306 -0.1743 -0.2111  0.1403
   74MOL   C14723653   4.348   3.482   1.248  0.0330 -0.3771 -0.3430
   74MOL   C14823654   4.313   3.674   1.416 -0.6443 -0.0876 -0.1628
   74MOL   C14923655   4.291   3.617   1.559 -1.0561 -0.3767  0.0354
   74MOL   C15023656   4.366   3.491   1.596  0.1301  0.0208  0.5486
   74MOL   C15123657   4.201   3.660   1.654  0.7828  0.1834  1.1194
   74MOL   H15223658   4.229   3.647   1.224  0.3062  0.4009  0.5068
   74MOL   H15323659   4.386   3.422   1.331 -0.7739  1.6647  1.5748
   74MOL   H15423660   4.434   3.539   1.213  0.7800 -0.4157  1.3672
   74MOL   H15523661   4.311   3.412   1.173  0.2707 -0.4108 -0.4258
   74MOL   H15623662   4.420   3.670   1.397 -0.7206 -2.2474 -0.2119
   74MOL   H15723663   4.354   3.479   1.704 -1.0269 -0.4916  0.3714
   74MOL   H15823664   4.471   3.479   1.568 -0.2608  0.1615 -0.9989
   74MOL   H15923665   4.306   3.419   1.541  0.5570 -1.0454  1.4507
   74MOL   H16023666   4.133   3.740   1.630  1.3753  0.1512 -0.7688
   74MOL   H16123667   4.199   3.604   1.747 -0.1267 -0.8803  0.4755
   74MOL   C16223668   4.287   3.831   1.394  0.0154  0.2387 -0.4410
   74MOL   C16323669   4.335   3.887   1.257  0.3333  0.8039 -0.1968
   74MOL   C16423670   4.351   3.912   1.516 -0.1454  0.6439  0.3255
   74MOL   C16523671   4.275   4.049   1.532 -0.6132 -0.4296  0.4663
   74MOL   C16623672   4.161   4.041   1.629  0.0434  0.2938 -0.5023
   74MOL   C16723673   4.301   4.163   1.469 -0.4120  0.0458 -0.4899
   74MOL   H16823674   4.182   3.858   1.389 -0.7408 -2.2548  1.4048
   74MOL   H16923675   4.362   3.993   1.255  0.1155  0.8562 -0.3864
   74MOL   H17023676   4.257   3.865   1.185  0.9634 -1.6727 -0.1494
   74MOL   H17123677   4.420   3.822   1.235  0.7405  1.1899  0.2130
   74MOL   H17223678   4.324   3.865   1.610 -0.5483  1.5328  0.6581
   74MOL   H17323679   4.190   3.998   1.725 -1.1911 -0.2460 -0.3609
   74MOL   H17423680   4.073   3.985   1.596 -1.7651  1.8192  1.5176
   74MOL   H17523681   4.120   4.139   1.652 -1.3499  0.4590 -3.5071
   74MOL   H17623682   4.384   4.180   1.402 -1.5457 -0.7689 -2.1491
   74MOL   H17723683   4.233   4.245   1.487 -1.0451 -1.2595  3.6748
   74MOL   C17823684   4.509   3.926   1.518 -0.4674  0.2526 -0.7421
   74MOL   C17923685   4.594   3.791   1.492  0.2475 -0.1987 -0.1580
   74MOL   C18023686   4.569   4.017   1.641 -0.1460 -0.5311  0.2006
   74MOL   C18123687   4.675   4.111   1.595 -0.0092 -0.5069 -0.4374
   74MOL   C18223688   4.806   4.054   1.547 -0.0062  0.1359  0.1011
   74MOL   C18323689   4.662   4.243   1.599 -0.0689 -0.2321 -0.3161
   74MOL   H18423690   4.515   3.989   1.429 -0.4491 -1.0438 -1.6658
   74MOL   H18523691   4.698   3.807   1.520  0.1545  0.1626 -0.0109
   74MOL   H18623692   4.587   3.761   1.388 -3.8998  2.6738 -0.8336
   74MOL   H18723693   4.565   3.704   1.551  0.8218  0.2027  0.7374
   74MOL   H18823694   4.481   4.073   1.674  0.8827  0.7118  0.8989
   74MOL   H18923695   4.890   4.123   1.555  1.7082 -2.0132  1.5068
   74MOL   H19023696   4.800   4.019   1.444 -1.9620  0.9187 -0.0536
   74MOL   H19123697   4.842   3.968   1.605 -0.8336  0.8802  1.7528
   74MOL   H19223698   4.575   4.299   1.629  0.2017  1.4812 -2.6286
   74MOL   H19323699   4.739   4.312   1.568 -1.6598  1.1550 -1.2738
   74MOL   C19423700   4.612   3.934   1.769 -0.0484 -0.3482  0.0367
   74MOL   C19523701   4.483   3.864   1.828 -0.2027  1.0968 -0.6696
   74MOL   C19623702   4.698   4.000   1.884  0.1385 -0.2423 -0.3710
   74MOL   C19723703   4.778   3.894   1.955 -0.2369  1.1195  0.5282
   74MOL   C19823704   4.903   3.847   1.884  0.1382  0.4859  0.1727
   74MOL   C19923705   4.745   3.837   2.073 -0.0440 -0.0960 -0.4082
   74MOL   H20023706   4.683   3.859   1.735  2.4082  0.7369  2.5717
   74MOL   H20123707   4.480   3.829   1.931 -2.9393 -2.3301 -1.8140
   74MOL   H20223708   4.473   3.769   1.775  3.1705  1.3184 -1.8262
   74MOL   H20323709   4.390   3.920   1.822 -0.1104  1.1442 -1.7156
   74MOL   H20423710   4.777   4.056   1.833  1.3791  0.0054  1.7360
   74MOL   H20523711   4.963   3.774   1.940 -0.1633 -0.0425 -0.1924
   74MOL   H20623712   4.963   3.935   1.861  1.3494 -0.0267  1.2668
   74MOL   H20723713   4.887   3.803   1.786 -1.1976  1.3463  0.0104
   74MOL   H20823714   4.649   3.852   2.120  0.6564 -1.9842  1.6976
   74MOL   H20923715   4.805   3.764   2.124  0.4857 -0.9105 -2.1879
   74MOL   C21023716   4.621   4.094   1.986  0.4625  0.1561 -0.2279
   74MOL   C21123717   4.512   4.174   1.922  0.0221 -1.0276 -0.3245
   74MOL   C21223718   4.701   4.182   2.092 -0.4932 -0.1274 -0.4901
   74MOL   C21323719   4.616   4.200   2.219 -0.4653  0.5637 -0.8526
   74MOL   C21423720   4.610   4.077   2.303 -0.0753 -0.6906 -0.4683
   74MOL   C21523721   4.548   4.307   2.252  0.1946  0.1465 -0.1975
   74MOL   H21623722   4.557   4.024   2.040 -0.8168  1.4127 -0.1032
   74MOL   H21723723   4.409   4.138   1.912 -0.1365 -0.9375  0.8339
   74MOL   H21823724   4.539   4.229   1.832  0.7710  1.0839  1.1509
   74MOL   H21923725   4.481   4.257   1.986  0.1700  0.5605 -2.2746
   74MOL   H22023726   4.780   4.109   2.112  1.6844  1.8662 -1.5296
   74MOL   H22123727   4.543   4.009   2.250  0.9294 -0.5916 -1.8841
   74MOL   H22223728   4.566   4.094   2.401 -0.1919  1.3289 -0.8549
   74MOL   H22323729   4.709   4.031   2.305 -0.1365 -0.8048 -0.0010
   74MOL   H22423730   4.550   4.389   2.181 -0.0618 -0.5872 -1.0647
   74MOL   H22523731   4.486   4.313   2.340  0.5711 -0.6813  0.1263
   74MOL   C22623732   4.772   4.314   2.044  0.0961 -0.3799 -0.9642
   74MOL   C22723733   4.836   4.304   1.908 -0.1997 -0.6720  0.0006
   74MOL   C22823734   4.862   4.382   2.147  0.2324 -0.5710 -0.2413
   74MOL   C22923735   4.845   4.536   2.147  0.0096 -0.0929  0.2722
   74MOL   C23023736   4.891   4.613   2.028 -0.3966 -0.0964 -0.9834
   74MOL   C23123737   4.793   4.599   2.251 -0.0550 -0.6713  0.0717
   74MOL   H23223738   4.685   4.380   2.039  1.5762  1.6712  0.1134
   74MOL   H23323739   4.771   4.270   1.827 -0.7950 -3.6949  1.6606
   74MOL   H23423740   4.908   4.222   1.900 -0.0831 -0.4195 -1.7391
   74MOL   H23523741   4.871   4.398   1.866  0.3926 -0.3656  1.1694
   74MOL   H23623742   4.809   4.349   2.237  0.1340 -2.5590 -1.0065
   74MOL   H23723743   4.924   4.714   2.049  0.6458 -0.4293 -0.9522
   74MOL   H23823744   4.799   4.613   1.969 -1.4522 -1.5734  0.6246
   74MOL   H23923745   4.969   4.561   1.972 -0.2492 -0.4401 -0.4658
   74MOL   H24023746   4.756   4.549   2.340  1.3182  0.9392  1.5964
   74MOL   H24123747   4.781   4.706   2.251  0.2169 -0.6427 -0.2837
   74MOL   C24223748   5.011   4.329   2.164 -0.2597  0.5217 -0.4625
   74MOL   C24323749   5.026   4.174   2.170  0.1793 -0.1221 -0.6038
   74MOL   C24423750   5.090   4.391   2.285 -0.3772 -0.0789  0.1480
   74MOL   C24523751   5.231   4.392   2.229  0.4572  0.5966 -0.3130
   74MOL   C24623752   5.260   4.511   2.147  0.0433 -0.2927  0.4571
   74MOL   C24723753   5.330   4.305   2.251  0.8125 -0.4914 -0.4370
   74MOL   H24823754   5.061   4.360   2.073  1.9120  1.0081  0.8697
   74MOL   H24923755   5.126   4.140   2.196  0.9330  1.2605 -1.6667
   74MOL   H25023756   5.013   4.144   2.066 -0.2807  1.3402 -0.9859
   74MOL   H25123757   4.961   4.117   2.237  1.7825 -0.3875  0.7439
   74MOL   H25223758   5.047   4.490   2.301 -0.0588 -0.2806  2.4933
   74MOL   H25323759   5.205   4.600   2.178  0.4319 -0.3340  1.2628
   74MOL   H25423760   5.226   4.493   2.045 -1.2606 -0.1297  0.8596
   74MOL   H25523761   5.367   4.533   2.153 -0.1728  1.5244 -1.4177
   74MOL   H25623762   5.330   4.215   2.311 -1.1224 -0.4182 -0.3066
   74MOL   H25723763   5.427   4.315   2.204  1.8329 -0.7553  1.5717
   74MOL   C25823764   5.070   4.324   2.437 -0.1319 -0.3689  0.6051
   74MOL   C25923765   4.924   4.329   2.499  0.4209  0.0275 -0.4524
   74MOL   C26023766   5.167   4.371   2.544  0.2612  0.4599 -0.4218
   74MOL   C26123767   5.201   4.255   2.639  0.3915 -0.5869  0.2954
   74MOL   C26223768   5.310   4.162   2.584 -0.3349  0.1882 -0.2333
   74MOL   C26323769   5.135   4.229   2.753 -0.4479 -0.7039  0.6207
   74MOL   H26423770   5.103   4.222   2.417  2.0953  0.6115 -0.8887
   74MOL   H26523771   4.921   4.278   2.595 -0.2364  1.7074  0.4499
   74MOL   H26623772   4.847   4.277   2.442  0.9674  1.7956 -2.9062
   74MOL   H26723773   4.889   4.431   2.516  0.0385 -0.1195 -0.3665
   74MOL   H26823774   5.265   4.387   2.498  2.3091 -1.4531  3.1059
   74MOL   H26923775   5.396   4.207   2.535 -0.2777  0.9942  0.6076
   74MOL   H27023776   5.267   4.086   2.518  0.5449 -0.9833  0.5028
   74MOL   H27123777   5.352   4.117   2.674  2.6583 -1.3474 -2.2779
   74MOL   H27223778   5.056   4.280   2.805  1.0585  1.8012  0.5205
   74MOL   H27323779   5.183   4.150   2.810 -1.2771 -0.6570  1.3966
   74MOL   C27423780   5.145   4.507   2.615  1.0199 -0.4201  0.2413
   74MOL   C27523781   5.081   4.626   2.543  0.2513  0.8570  0.9214
   74MOL   C27623782   5.263   4.552   2.710 -0.6277 -0.0366  0.2159
   74MOL   C27723783   5.207   4.636   2.826  0.1580 -0.0989  0.3097
   74MOL   C27823784   5.154   4.549   2.936  0.2511 -0.3673 -0.6672
   74MOL   C27923785   5.202   4.769   2.827 -1.0513 -0.2070  0.0381
   74MOL   H28023786   5.066   4.481   2.686  0.2362 -1.5537 -1.0438
   74MOL   H28123787   4.998   4.599   2.479  0.8831  0.8188  0.0998
   74MOL   H28223788   5.150   4.675   2.473 -1.4941  1.6883 -0.2526
   74MOL   H28323789   5.051   4.706   2.611  1.3946  2.0258  0.0730
   74MOL   H28423790   5.308   4.470   2.767 -1.0555  0.6872  1.6392
   74MOL   H28523791   5.234   4.487   2.976  1.6509  2.3064  0.8010
   74MOL   H28623792   5.071   4.484   2.909 -0.3669 -0.5837  1.7135
   74MOL   H28723793   5.119   4.601   3.025  0.4451 -2.1520  0.4728
   74MOL   H28823794   5.246   4.835   2.754 -0.3069  1.5645  2.0445
   74MOL   H28923795   5.161   4.827   2.909  0.4508  0.6729  0.1936
   74MOL   C29023796   5.389   4.614   2.635 -0.4486 -0.4246 -0.2510
   74MOL   C29123797   5.436   4.550   2.500 -0.5014  0.2884  0.2422
   74MOL   C29223798   5.508   4.640   2.731  0.0946  0.2704  0.6388
   74MOL   C29323799   5.616   4.724   2.670 -0.1130 -0.2313 -0.6875
   74MOL   C29423800   5.568   4.870   2.636 -0.7061 -0.5359  0.5212
   74MOL   C29523801   5.743   4.690   2.656 -0.5525 -0.1827  0.3669
   74MOL   H29623802   5.353   4.713   2.608  0.0163  0.3913  1.9634
   74MOL   H29723803   5.458   4.443   2.502 -0.0109  0.2799 -3.2703
   74MOL   H29823804   5.521   4.609   2.468  0.2479 -0.2867  1.1559
   74MOL   H29923805   5.359   4.579   2.428 -1.4543  1.4374  1.6979
   74MOL   H30023806   5.466   4.710   2.803 -1.5942 -1.1685  1.0864
   74MOL   H30123807   5.510   4.874   2.544  1.0469 -0.4971 -0.5994
   74MOL   H30223808   5.647   4.943   2.620 -1.4275  0.4538  1.4644
   74MOL   H30323809   5.492   4.899   2.709 -0.9450  0.3275 -0.0634
   74MOL   H30423810   5.776   4.596   2.697  1.1517 -0.5544 -1.8024
   74MOL   H30523811   5.818   4.757   2.618  0.5162 -1.3109  0.4662
   74MOL   C30623812   5.552   4.520   2.831  0.2326 -0.0193 -0.2056
   74MOL   C30723813   5.653   4.560   2.936  0.0253 -0.2958 -0.3230
   74MOL   C30823814   5.566   4.378   2.771  0.0914 -0.1176  0.1691
   74MOL   C30923815   5.565   4.258   2.872  0.5222  0.0623 -0.0670
   74MOL   C31023816   5.453   4.246   2.969  0.0917  0.0695  0.0996
   74MOL   C31123817   5.678   4.179   2.869  0.3770  0.7031 -0.0906
   74MOL   H31223818   5.463   4.520   2.893  0.8112  0.9004  0.6254
   74MOL   H31323819   5.673   4.488   3.015 -0.9413 -0.9686 -0.6827
   74MOL   H31423820   5.619   4.646   2.995 -1.7517 -0.6191 -0.8266
   74MOL   H31523821   5.755   4.570   2.900  0.3277 -1.0045  0.3236
   74MOL   H31623822   5.488   4.355   2.698 -1.1845  0.8197  1.2147
   74MOL   H31723823   5.456   4.322   3.048  0.1985 -0.8609  1.0021
   74MOL   H31823824   5.443   4.148   3.016 -0.0644  1.0368  2.1336
   74MOL   H31923825   5.355   4.249   2.920 -0.0061 -0.9417  0.2129
   74MOL   H32023826   5.760   4.189   2.799 -0.2890  1.3259 -0.7801
   74MOL   H32123827   5.677   4.099   2.942  0.0766 -0.4148 -1.2930
   74MOL   H32223828   5.654   4.366   2.708  0.7946 -0.5573  1.2221
   75MOL     C123829   3.850   2.812   5.529 -0.0158  0.0877  0.2826
   75MOL     C223830   3.868   2.962   5.557 -0.5781 -0.7980  0.1329
   75MOL     C323831   3.965   2.714   5.549  0.1265 -0.2857  0.3801
   75MOL     C423832   4.085   2.765   5.471  0.1370  0.3537  0.0234
   75MOL     C523833   4.190   2.844   5.546  0.0961  0.5019  0.3002
   75MOL     C623834   4.117   2.745   5.340 -0.1407  0.0900  0.1819
   75MOL     H723835   3.771   2.771   5.592 -1.9978  2.3621 -0.6509
   75MOL     H823836   3.782   3.023   5.529  0.3282 -0.3304 -1.7607
   75MOL     H923837   3.943   3.000   5.487 -1.6388 -1.2994 -1.3139
   75MOL    H1023838   3.904   2.984   5.657  4.5937 -3.7699 -0.8905
   75MOL    H1123839   3.988   2.714   5.655 -0.0537 -1.6825  0.4249
   75MOL    H1223840   4.233   2.776   5.619 -1.1784 -0.3565  0.2771
   75MOL    H1323841   4.140   2.915   5.612 -1.9418  1.1814 -1.8882
   75MOL    H1423842   4.259   2.905   5.488 -1.3816 -0.0710 -2.1404
   75MOL    H1523843   4.048   2.682   5.286 -4.0677  2.5320  2.1107
   75MOL    H1623844   4.202   2.791   5.292 -1.3172  2.4451  0.2641
   75MOL    H1723845   3.802   2.805   5.432 -0.9710 -5.0404  1.0106
   75MOL    C1823846   3.935   2.569   5.510 -0.2176 -0.2725 -0.2212
   75MOL    C1923847   3.822   2.516   5.600  0.3399 -0.4448 -0.1932
   75MOL    C2023848   4.055   2.470   5.524 -0.4200  0.2834  0.0135
   75MOL    C2123849   4.035   2.353   5.420  0.1934  0.6827  0.1268
   75MOL    C2223850   4.099   2.376   5.286  0.1027 -0.4265 -0.6262
   75MOL    C2323851   3.971   2.230   5.447 -0.3954  0.6805 -0.7287
   75MOL    H2423852   3.903   2.566   5.406 -2.2026 -2.9979  0.4116
   75MOL    H2523853   3.825   2.555   5.702 -0.0571 -2.5053  0.6344
   75MOL    H2623854   3.816   2.407   5.602 -2.6022 -0.2994  1.2103
   75MOL    H2723855   3.727   2.544   5.555  0.0065 -1.6488 -0.2464
   75MOL    H2823856   4.150   2.517   5.498  0.5116 -2.0592 -0.9938
   75MOL    H2923857   4.188   2.439   5.283 -1.8821  2.5664  0.4399
   75MOL    H3023858   4.031   2.406   5.207 -0.2161 -0.4194 -0.3486
   75MOL    H3123859   4.146   2.282   5.258 -0.5179 -1.3798  1.4005
   75MOL    H3223860   3.927   2.195   5.539 -0.3185  1.4288 -0.4025
   75MOL    H3323861   3.949   2.164   5.365  1.5431  1.7465 -2.1648
   75MOL    C3423862   4.091   2.410   5.668  0.0278 -0.3007 -1.3274
   75MOL    C3523863   4.104   2.526   5.771 -0.2308  0.5424 -0.0366
   75MOL    C3623864   4.215   2.309   5.678 -0.4606 -0.0823 -0.0534
   75MOL    C3723865   4.187   2.197   5.780 -0.2168  0.1443 -0.1860
   75MOL    C3823866   4.191   2.223   5.928 -1.0833  0.8431  0.6355
   75MOL    C3923867   4.152   2.066   5.749 -0.0817 -0.5196 -0.0216
   75MOL    H4023868   3.998   2.359   5.693 -0.3531  0.4145 -1.2517
   75MOL    H4123869   4.014   2.556   5.825 -0.2558  0.3935  0.0036
   75MOL    H4223870   4.153   2.617   5.736 -2.5937  1.2976 -1.4506
   75MOL    H4323871   4.172   2.495   5.851 -1.2339 -1.2976  0.1294
   75MOL    H4423872   4.233   2.267   5.580  2.3308  1.0002 -0.0475
   75MOL    H4523873   4.256   2.309   5.947  0.6895 -0.2775 -0.2408
   75MOL    H4623874   4.225   2.133   5.980  2.5149  0.8357 -1.5847
   75MOL    H4723875   4.090   2.229   5.969 -0.6766  2.1812  1.5059
   75MOL    H4823876   4.136   2.030   5.648 -1.6867  2.7917 -0.9968
   75MOL    H4923877   4.150   1.988   5.824  0.5723 -1.4019 -0.8905
   75MOL    C5023878   4.361   2.374   5.683 -1.1127 -0.6387  0.7248
   75MOL    C5123879   4.392   2.470   5.565 -0.3538  0.6577 -0.2348
   75MOL    C5223880   4.475   2.282   5.717  0.3357 -0.3012  0.8318
   75MOL    C5323881   4.577   2.349   5.815  0.0779  0.4517  0.5216
   75MOL    C5423882   4.561   2.317   5.960 -0.1257  0.3787 -0.3802
   75MOL    C5523883   4.670   2.438   5.773 -0.1584 -0.2034  0.6074
   75MOL    H5623884   4.360   2.441   5.769 -1.0625  1.8302 -1.1826
   75MOL    H5723885   4.348   2.567   5.590 -0.4022 -0.1541  3.1694
   75MOL    H5823886   4.341   2.430   5.478  0.9869  3.0775 -2.1940
   75MOL    H5923887   4.493   2.481   5.527 -0.2744 -2.3094 -0.9880
   75MOL    H6023888   4.442   2.197   5.776 -0.1548 -1.1824 -0.6929
   75MOL    H6123889   4.617   2.394   6.014  2.5752 -1.8610  0.1575
   75MOL    H6223890   4.604   2.220   5.987 -1.3967  0.1801  1.0297
   75MOL    H6323891   4.457   2.312   5.992 -0.3691  1.8184 -0.9031
   75MOL    H6423892   4.682   2.464   5.669  1.5032  0.3163  0.9107
   75MOL    H6523893   4.739   2.480   5.845  1.4912 -0.3918 -0.8206
   75MOL    C6623894   4.549   2.219   5.592  0.3504 -0.0850 -0.0815
   75MOL    C6723895   4.465   2.142   5.489  0.2053 -0.3980 -0.1376
   75MOL    C6823896   4.682   2.138   5.626  0.1841  0.9669 -0.3744
   75MOL    C6923897   4.797   2.160   5.521  0.3301  0.3571  0.8306
   75MOL    C7023898   4.780   2.079   5.393  0.0589  0.4868  0.5421
   75MOL    C7123899   4.901   2.244   5.540 -0.5257  0.4412 -0.5562
   75MOL    H7223900   4.587   2.299   5.529 -2.6169  2.4230  1.1961
   75MOL    H7323901   4.519   2.093   5.407  2.4740  1.6631  0.0804
   75MOL    H7423902   4.388   2.207   5.449  2.2406  1.4762 -1.0944
   75MOL    H7523903   4.415   2.059   5.541 -1.5198  1.6731  1.6064
   75MOL    H7623904   4.726   2.184   5.715  1.2952 -1.9410  0.6360
   75MOL    H7723905   4.759   1.972   5.396  0.9159  0.2965 -0.1200
   75MOL    H7823906   4.870   2.106   5.339  0.2941 -1.5758 -0.1398
   75MOL    H7923907   4.701   2.119   5.329 -2.6532 -3.8438  0.9833
   75MOL    H8023908   4.908   2.292   5.637 -0.2870 -1.2468  0.2870
   75MOL    H8123909   4.983   2.267   5.474  2.5744 -2.1248  2.2199
   75MOL    C8223910   4.670   1.987   5.680 -0.6966 -0.6864  0.0404
   75MOL    C8323911   4.571   1.956   5.788  0.3856 -0.8323 -0.4982
   75MOL    C8423912   4.805   1.906   5.710  0.2239 -0.3381 -0.2591
   75MOL    C8523913   4.783   1.758   5.682 -0.1863 -0.3092  0.5210
   75MOL    C8623914   4.801   1.721   5.538 -0.2099 -0.0159 -0.3982
   75MOL    C8723915   4.755   1.661   5.768 -0.0080 -0.2064  0.0015
   75MOL    H8823916   4.618   1.932   5.601 -0.1435  0.3976 -1.1066
   75MOL    H8923917   4.592   2.007   5.882 -0.0283 -1.5888  0.0145
   75MOL    H9023918   4.572   1.851   5.816 -0.6622  0.2121  3.7641
   75MOL    H9123919   4.472   1.976   5.747 -0.0798 -0.6924  0.6848
   75MOL    H9223920   4.883   1.941   5.643 -0.1236 -2.5712 -1.9082
   75MOL    H9323921   4.720   1.772   5.485 -2.0053 -1.1478  1.2045
   75MOL    H9423922   4.800   1.614   5.519  1.2023 -0.3577  1.3690
   75MOL    H9523923   4.897   1.759   5.501  0.4914 -1.5136 -0.1660
   75MOL    H9623924   4.745   1.680   5.874  1.0731  0.0403  0.0693
   75MOL    H9723925   4.738   1.559   5.737 -1.6522 -0.2315  0.9118
   75MOL    C9823926   4.868   1.930   5.853  0.1254 -1.0576  0.4280
   75MOL    C9923927   4.867   2.075   5.904  0.9393 -0.1300  0.3575
   75MOL   C10023928   5.011   1.863   5.888 -1.1369 -0.7971  0.0081
   75MOL   C10123929   5.013   1.787   6.023 -0.7057 -0.4572  0.0978
   75MOL   C10223930   5.005   1.866   6.149 -0.6529  0.0470  0.1219
   75MOL   C10323931   5.008   1.655   6.017 -0.4741  0.4853  0.1216
   75MOL   H10423932   4.788   1.892   5.917 -0.4808 -1.9773 -0.8499
   75MOL   H10523933   4.766   2.116   5.910  1.4513  1.0262  1.5071
   75MOL   H10623934   4.937   2.146   5.859  0.1549  1.2038  1.1770
   75MOL   H10723935   4.897   2.085   6.009  1.4044  0.5911  0.1591
   75MOL   H10823936   5.015   1.787   5.810 -0.5356  1.6407 -2.3984
   75MOL   H10923937   5.076   1.949   6.146  0.8211 -1.2146 -0.7807
   75MOL   H11023938   5.040   1.795   6.224  1.4328  0.3118 -0.5398
   75MOL   H11123939   4.904   1.899   6.169 -0.7883  1.1711 -2.2113
   75MOL   H11223940   5.014   1.602   5.922  3.6647 -2.9866  2.1144
   75MOL   H11323941   4.998   1.595   6.107  2.5520 -0.4067 -0.0715
   75MOL   C11423942   5.138   1.955   5.868 -0.0755 -0.5542 -0.0330
   75MOL   C11523943   5.149   1.999   5.716 -0.1152 -0.1555  0.2757
   75MOL   C11623944   5.278   1.918   5.930  0.1294  0.0209 -0.0083
   75MOL   C11723945   5.359   2.052   5.956  0.0041 -0.0599  0.6217
   75MOL   C11823946   5.338   2.117   6.086  0.1465 -0.2524  0.3948
   75MOL   C11923947   5.443   2.109   5.869  0.4163  0.5257  0.3276
   75MOL   H12023948   5.113   2.044   5.925 -0.4590 -1.1373  0.7201
   75MOL   H12123949   5.166   1.918   5.645  1.5549  0.3516  0.0808
   75MOL   H12223950   5.229   2.068   5.691  2.2422 -2.7184  0.4950
   75MOL   H12323951   5.050   2.042   5.696  0.1160 -0.1356 -0.8718
   75MOL   H12423952   5.267   1.875   6.030  5.1836  2.3969  1.7328
   75MOL   H12523953   5.233   2.107   6.111 -1.0535  2.7834 -3.0599
   75MOL   H12623954   5.367   2.222   6.086 -3.5285  0.8274  0.4206
   75MOL   H12723955   5.410   2.079   6.159  1.1591 -0.4058 -0.6693
   75MOL   H12823956   5.465   2.065   5.772  0.5508  0.2681  0.4759
   75MOL   H12923957   5.488   2.203   5.895 -1.7742  2.2995 -1.9809
   75MOL   C13023958   5.367   1.813   5.853  0.4323 -0.1674 -0.8943
   75MOL   C13123959   5.279   1.702   5.794 -0.4052 -0.5663  0.9594
   75MOL   C13223960   5.482   1.743   5.942  0.3362 -0.8708  0.2299
   75MOL   C13323961   5.573   1.841   6.010  0.5554 -0.0863 -0.3496
   75MOL   C13423962   5.673   1.915   5.921 -0.2031  0.4836 -1.0040
   75MOL   C13523963   5.580   1.856   6.147  0.3395 -0.1030  0.2521
   75MOL   H13623964   5.414   1.858   5.765  1.3191  2.0098  0.6562
   75MOL   H13723965   5.328   1.628   5.731 -2.8094 -0.0156 -1.7269
   75MOL   H13823966   5.201   1.742   5.729 -1.8401 -1.3968  2.1247
   75MOL   H13923967   5.216   1.660   5.873 -1.3953 -0.5508  0.2007
   75MOL   H14023968   5.420   1.716   6.027 -1.7523  0.2615 -0.8838
   75MOL   H14123969   5.711   2.009   5.961  0.8791 -1.0037  1.5688
   75MOL   H14223970   5.653   1.924   5.814  2.9215  0.3183 -1.6621
   75MOL   H14323971   5.764   1.856   5.934 -2.5656 -2.6460  2.2365
   75MOL   H14423972   5.516   1.808   6.219 -0.6398 -0.8257 -1.0831
   75MOL   H14523973   5.649   1.923   6.196 -0.3515  1.0624 -0.3575
   75MOL   C14623974   5.564   1.620   5.897  0.2775 -0.3175 -0.1174
   75MOL   C14723975   5.601   1.621   5.740  0.1798 -1.0276  0.6582
   75MOL   C14823976   5.496   1.483   5.937  0.0737  0.3151  0.1202
   75MOL   C14923977   5.431   1.481   6.081 -0.4995 -0.7316 -0.5919
   75MOL   C15023978   5.520   1.506   6.208 -0.2657  0.3426  0.4211
   75MOL   C15123979   5.300   1.462   6.097 -0.1075  0.6485  0.1560
   75MOL   H15223980   5.663   1.636   5.941  0.0319 -2.0529  1.1038
   75MOL   H15323981   5.629   1.725   5.721  0.6436 -1.2114  0.3292
   75MOL   H15423982   5.527   1.573   5.677 -0.4573  0.3632  0.3363
   75MOL   H15523983   5.688   1.560   5.717  0.7079  0.3290 -1.0002
   75MOL   H15623984   5.411   1.486   5.869 -0.7485  0.7629  1.1708
   75MOL   H15723985   5.456   1.515   6.296  1.4772 -2.9614  2.1590
   75MOL   H15823986   5.588   1.591   6.204  0.7067 -0.4141  0.6581
   75MOL   H15923987   5.578   1.420   6.241  0.5821  0.2591 -1.2679
   75MOL   H16023988   5.239   1.447   6.009 -0.9333 -0.4197  0.8987
   75MOL   H16123989   5.252   1.464   6.194 -0.9415 -0.7142 -0.2214
   75MOL   C16223990   5.590   1.357   5.926 -0.3843  0.9537 -0.9589
   75MOL   C16323991   5.738   1.393   5.954 -0.5760 -0.7312 -0.0584
   75MOL   C16423992   5.562   1.274   5.800  0.4531  0.1902 -0.4494
   75MOL   C16523993   5.407   1.250   5.778 -0.7899 -0.2818  0.0863
   75MOL   C16623994   5.346   1.154   5.874 -0.0201 -0.2033 -0.4076
   75MOL   C16723995   5.345   1.299   5.671 -0.5313  0.2587  0.2812
   75MOL   H16823996   5.561   1.294   6.011 -0.3039  3.2387  0.8286
   75MOL   H16923997   5.800   1.305   5.973  0.0850 -0.4913 -1.0762
   75MOL   H17023998   5.755   1.461   6.038 -0.4923 -0.0473 -0.6325
   75MOL   H17123999   5.777   1.437   5.863 -0.9411 -0.6222 -0.1623
   75MOL   H17224000   5.591   1.342   5.720  0.4660 -1.1560 -1.6198
   75MOL   H17324001   5.361   1.161   5.981  0.5253  1.0009 -0.5487
   75MOL   H17424002   5.363   1.049   5.850 -0.2434 -0.6196  1.2261
   75MOL   H17524003   5.244   1.188   5.856 -0.0737 -1.0012 -1.6870
   75MOL   H17624004   5.394   1.350   5.589 -0.6705  0.8827  0.5799
   75MOL   H17724005   5.238   1.292   5.665 -0.4161 -1.5099  0.1048
   75MOL   C17824006   5.643   1.144   5.775 -0.3297  0.3766  0.0525
   75MOL   C17924007   5.664   1.052   5.906 -0.3795 -0.1991 -0.2055
   75MOL   C18024008   5.789   1.171   5.703 -0.6587 -0.3496  0.1075
   75MOL   C18124009   5.776   1.257   5.578  1.1483 -0.6424  0.4243
   75MOL   C18224010   5.875   1.364   5.556 -0.5040 -0.1323  0.2748
   75MOL   C18324011   5.684   1.227   5.478  0.5089 -0.4113 -0.7910
   75MOL   H18424012   5.585   1.078   5.710 -1.9458  0.8717  0.9521
   75MOL   H18524013   5.742   1.085   5.975  0.3094 -0.0816 -1.0316
   75MOL   H18624014   5.676   0.947   5.879 -0.0502  0.0589 -1.0573
   75MOL   H18724015   5.581   1.058   5.976 -0.5833  1.5663 -0.5580
   75MOL   H18824016   5.846   1.235   5.771  1.1148  0.2287 -1.8537
   75MOL   H18924017   5.840   1.437   5.483  0.5300  0.2772  0.1816
   75MOL   H19024018   5.966   1.313   5.523 -1.0078  0.0747 -1.4562
   75MOL   H19124019   5.900   1.399   5.656  1.1819  0.1192 -0.2117
   75MOL   H19224020   5.610   1.148   5.483 -1.2264  1.3083  3.4757
   75MOL   H19324021   5.674   1.284   5.387 -0.9522  0.3491 -0.1712
   75MOL   C19424022   5.886   1.056   5.663 -0.2978  0.1125 -1.0773
   75MOL   C19524023   5.808   0.931   5.611  0.6451  0.2909  1.3421
   75MOL   C19624024   5.982   1.024   5.789 -0.3435 -0.2917  0.2586
   75MOL   C19724025   6.077   1.150   5.820  0.4281 -0.6424  0.1210
   75MOL   C19824026   6.098   1.187   5.965  0.0168 -0.5420  0.5081
   75MOL   C19924027   6.128   1.225   5.724 -0.2515 -0.6400  0.2559
   75MOL   H20024028   5.953   1.085   5.582  0.7546 -1.2474 -0.7119
   75MOL   H20124029   5.860   0.837   5.590  1.9273  1.2858 -0.0700
   75MOL   H20224030   5.763   0.958   5.516  0.3540  0.9554  1.6687
   75MOL   H20324031   5.718   0.905   5.667  0.0367 -0.1796  0.1631
   75MOL   H20424032   5.923   1.007   5.880 -2.5448 -2.0639 -1.4388
   75MOL   H20524033   6.001   1.192   6.016  0.2606 -1.1351  1.0213
   75MOL   H20624034   6.142   1.287   5.974 -2.0474  0.6835 -2.0325
   75MOL   H20724035   6.158   1.120   6.026  0.5847 -1.0739 -0.6362
   75MOL   H20824036   6.116   1.201   5.620 -0.3896 -1.1650  0.3908
   75MOL   H20924037   6.178   1.318   5.747  1.1244 -1.4195  0.4541
   75MOL   C21024038   6.074   0.899   5.777 -0.6080 -0.2312 -0.2423
   75MOL   C21124039   6.150   0.876   5.641  0.3823 -0.4711  0.7209
   75MOL   C21224040   6.001   0.768   5.834 -0.7806 -0.7065 -0.3380
   75MOL   C21324041   5.981   0.784   5.986  0.0522 -0.0344 -0.8451
   75MOL   C21424042   6.112   0.800   6.070 -0.2232 -0.6333 -0.1868
   75MOL   C21524043   5.860   0.788   6.043  0.8609 -0.5627 -0.8606
   75MOL   H21624044   6.162   0.917   5.840 -1.0821  0.7038  0.1598
   75MOL   H21724045   6.205   0.964   5.610 -0.1805 -0.7405 -1.1515
   75MOL   H21824046   6.089   0.841   5.557  0.8601  0.2419  0.0742
   75MOL   H21924047   6.229   0.803   5.660  1.0220 -0.2519 -1.0059
   75MOL   H22024048   5.898   0.771   5.800 -0.9766  1.6579  0.3407
   75MOL   H22124049   6.093   0.784   6.176 -1.7876 -0.2790 -0.3956
   75MOL   H22224050   6.153   0.899   6.052 -0.1299 -0.6878 -0.2754
   75MOL   H22324051   6.197   0.733   6.060 -0.7875 -1.8828  2.8591
   75MOL   H22424052   5.775   0.784   5.977 -1.1418 -1.9272  1.6877
   75MOL   H22524053   5.832   0.805   6.146 -0.2572  0.3596 -1.3129
   75MOL   C22624054   6.052   0.623   5.791  0.5065  0.2329  0.1389
   75MOL   C22724055   6.029   0.592   5.644 -0.4324 -0.4433 -0.5104
   75MOL   C22824056   6.010   0.503   5.889  0.4442  0.1676 -0.3131
   75MOL   C22924057   6.123   0.398   5.903  0.1375 -0.0779 -0.0440
   75MOL   C23024058   6.167   0.315   5.780 -0.2592 -0.5239 -0.0922
   75MOL   C23124059   6.196   0.391   6.016 -0.2844  0.6333  0.0506
   75MOL   H23224060   6.159   0.631   5.811  0.4164  1.9738 -0.0142
   75MOL   H23324061   6.113   0.616   5.579 -0.3438  0.8679  0.0764
   75MOL   H23424062   5.937   0.631   5.600 -0.4720  1.0055  0.8124
   75MOL   H23524063   6.015   0.485   5.630 -2.5178 -0.0917 -1.3511
   75MOL   H23624064   5.986   0.537   5.990  1.1999 -1.7537  0.5466
   75MOL   H23724065   6.201   0.381   5.700 -1.4992  0.0465 -0.1606
   75MOL   H23824066   6.093   0.250   5.733 -1.3954  1.7764 -1.5794
   75MOL   H23924067   6.243   0.248   5.821 -0.3046  0.3366  1.4338
   75MOL   H24024068   6.172   0.460   6.096 -1.6108 -2.2928  2.2771
   75MOL   H24124069   6.279   0.322   6.025 -1.9029 -1.4651 -0.7717
   75MOL   C24224070   5.873   0.432   5.850  0.2604 -0.6944  0.4496
   75MOL   C24324071   5.751   0.524   5.802  0.6151 -0.1471 -0.1205
   75MOL   C24424072   5.823   0.319   5.952 -0.5547  0.2817  0.0385
   75MOL   C24524073   5.782   0.194   5.875  0.3676 -0.3421 -0.0065
   75MOL   C24624074   5.664   0.208   5.780  0.1695  0.8046 -0.0988
   75MOL   C24724075   5.845   0.076   5.886 -0.0710  0.5540  0.3964
   75MOL   H24824076   5.891   0.366   5.765 -2.8836 -1.9263  0.6764
   75MOL   H24924077   5.774   0.593   5.721  0.7555  1.2367  1.0775
   75MOL   H25024078   5.723   0.592   5.882 -0.0267  1.2452 -1.4848
   75MOL   H25124079   5.663   0.464   5.780  0.9366 -1.1415  1.2495
   75MOL   H25224080   5.909   0.281   6.008 -0.2741  0.0223 -0.5547
   75MOL   H25324081   5.594   0.285   5.811 -1.0922 -0.1969 -0.4137
   75MOL   H25424082   5.612   0.113   5.771  1.6020 -0.1142  1.1323
   75MOL   H25524083   5.700   0.225   5.678 -1.9131 -2.6156 -1.5124
   75MOL   H25624084   5.934   0.077   5.947 -0.9493 -1.4714  1.7491
   75MOL   H25724085   5.818   7.875   5.839  0.1587  1.5399 -1.7607
   75MOL   C25824086   5.727   0.360   6.066 -0.7988 -0.0174 -0.0484
   75MOL   C25924087   5.790   0.474   6.145 -0.5313 -0.4082 -0.0030
   75MOL   C26024088   5.661   0.253   6.161  0.5431  0.9417  0.2843
   75MOL   C26124089   5.511   0.284   6.190 -0.8680 -0.4550 -0.2380
   75MOL   C26224090   5.479   0.403   6.282 -0.0019 -0.2021  0.1467
   75MOL   C26324091   5.416   0.220   6.117  0.1699 -0.2682  0.7185
   75MOL   H26424092   5.639   0.390   6.010 -1.4764 -2.1261 -0.1503
   75MOL   H26524093   5.892   0.452   6.175 -0.6649 -0.7343  0.2264
   75MOL   H26624094   5.721   0.499   6.225 -1.5295  0.8992 -1.2550
   75MOL   H26724095   5.781   0.557   6.076  3.1892 -0.4449 -0.6348
   75MOL   H26824096   5.649   0.163   6.101  1.5874 -0.3833  2.0353
   75MOL   H26924097   5.552   0.404   6.363 -1.4915  1.3460  1.5218
   75MOL   H27024098   5.376   0.398   6.316 -0.5995  0.8582 -1.4484
   75MOL   H27124099   5.490   0.500   6.233 -1.3285 -0.3144 -0.3729
   75MOL   H27224100   5.446   0.144   6.046 -1.7146 -1.7131  1.4215
   75MOL   H27324101   5.313   0.250   6.128  0.0908 -0.2013 -0.1952
   75MOL   C27424102   5.746   0.217   6.290 -0.2245  0.1042 -0.3400
   75MOL   C27524103   5.894   0.179   6.256  0.4659  0.3421 -0.3385
   75MOL   C27624104   5.679   0.113   6.384 -0.0572  0.0874  0.0639
   75MOL   C27724105   5.696   0.147   6.530 -0.2871 -0.5705  0.0587
   75MOL   C27824106   5.824   0.102   6.595  0.5106 -0.3452 -0.2705
   75MOL   C27924107   5.610   0.228   6.592  0.0115 -0.3019  0.3147
   75MOL   H28024108   5.747   0.307   6.352  0.6954 -0.9403  1.1694
   75MOL   H28124109   5.938   0.142   6.348 -0.5422 -1.9844 -0.7605
   75MOL   H28224110   5.961   0.256   6.218 -2.4066  2.7249 -0.7438
   75MOL   H28324111   5.899   0.101   6.179 -0.1468  0.4127 -0.4564
   75MOL   H28424112   5.573   0.129   6.363 -0.1192 -0.1105  0.2197
   75MOL   H28524113   5.805   0.072   6.698  1.3320  2.3312  0.6971
   75MOL   H28624114   5.902   0.178   6.588 -0.9642  1.2035 -0.0877
   75MOL   H28724115   5.850   0.005   6.554 -0.6874 -0.4304 -0.8549
   75MOL   H28824116   5.523   0.274   6.547  0.2248 -0.7063 -0.5211
   75MOL   H28924117   5.622   0.255   6.696  0.1872 -1.7037  0.6744
   75MOL   C29024118   5.707   7.850   6.355  0.9676  0.2154  0.8920
   75MOL   C29124119   5.686   7.813   6.201 -0.2673 -0.2063 -0.7510
   75MOL   C29224120   5.643   7.739   6.452  0.3138  0.0363  0.4743
   75MOL   C29324121   5.741   7.627   6.490 -0.2412  0.3191 -0.0920
   75MOL   C29424122   5.836   7.569   6.385 -0.1619 -0.2716  0.4989
   75MOL   C29524123   5.752   7.590   6.621 -0.3969 -1.2060 -0.4742
   75MOL   H29624124   5.815   7.837   6.360  0.6829 -2.1047  1.5985
   75MOL   H29724125   5.580   7.817   6.178 -0.9533 -1.4751  2.0395
   75MOL   H29824126   5.722   7.712   6.183  1.7561  0.4149 -0.3673
   75MOL   H29924127   5.729   7.879   6.125  0.6661  0.9720  0.7724
   75MOL   H30024128   5.636   7.784   6.551 -2.4239 -0.3322  0.4840
   75MOL   H30124129   5.899   7.488   6.420  1.1436  1.3398  1.9760
   75MOL   H30224130   5.912   7.644   6.360 -0.5467  0.4634  1.4902
   75MOL   H30324131   5.771   7.539   6.303 -0.7706  0.7402  0.5958
   75MOL   H30424132   5.695   7.641   6.697 -0.8499  0.0195 -1.6266
   75MOL   H30524133   5.816   7.508   6.650 -0.9136 -1.8998 -1.2786
   75MOL   C30624134   5.501   7.694   6.422 -0.6488 -0.1751  0.2713
   75MOL   C30724135   5.422   7.670   6.555 -0.0774  0.3760 -0.0576
   75MOL   C30824136   5.478   7.571   6.328 -0.8108 -0.3096 -0.5445
   75MOL   C30924137   5.336   7.560   6.267  0.4710  0.3202  0.3594
   75MOL   C31024138   5.276   7.674   6.185 -0.4014 -0.7153  0.0822
   75MOL   C31124139   5.263   7.445   6.274  0.0905  0.2234  0.3084
   75MOL   H31224140   5.453   7.782   6.380 -1.5844  0.1281  1.9458
   75MOL   H31324141   5.463   7.588   6.614 -0.0073 -0.7006 -1.5719
   75MOL   H31424142   5.315   7.662   6.539  0.2310 -0.9392 -1.6268
   75MOL   H31524143   5.429   7.753   6.626 -1.5625  0.6413 -0.2010
   75MOL   H31624144   5.548   7.585   6.246  0.1530 -1.0748  0.1414
   75MOL   H31724145   5.232   7.633   6.093  1.9832 -1.2887 -0.8512
   75MOL   H31824146   5.349   7.746   6.149  0.4486 -0.5394  2.1107
   75MOL   H31924147   5.196   7.716   6.245  1.0774  1.4795  0.5708
   75MOL   H32024148   5.321   7.365   6.318  0.9386 -0.3385 -1.7596
   75MOL   H32124149   5.164   7.437   6.232  0.8335  1.0985 -1.6766
   75MOL   H32224150   5.487   7.479   6.385 -0.6620 -0.3738 -0.6722
   76MOL     C124151   0.804   3.103   5.168  0.1776 -0.0238 -0.2831
   76MOL     C224152   0.654   3.123   5.189 -0.1380 -0.5664 -0.2291
   76MOL     C324153   0.865   3.240   5.107 -0.8105  0.0287  0.4520
   76MOL     C424154   0.994   3.200   5.041 -0.7067 -0.3562  0.7242
   76MOL     C524155   1.047   3.289   4.932  0.0900  0.7073 -0.2159
   76MOL     C624156   1.062   3.087   5.071  0.2828 -0.1642 -0.1176
   76MOL     H724157   0.848   3.089   5.267  3.7532 -0.7534 -1.8945
   76MOL     H824158   0.592   3.161   5.108 -1.5651 -2.0282  0.1660
   76MOL     H924159   0.640   3.174   5.284  1.1926  0.7497 -0.7192
   76MOL    H1024160   0.622   3.021   5.211  0.6328 -0.9581 -0.9069
   76MOL    H1124161   0.797   3.276   5.029 -1.0366 -0.7517  0.2920
   76MOL    H1224162   1.112   3.233   4.865 -1.7344 -0.8551 -0.7052
   76MOL    H1324163   1.103   3.371   4.977  1.7791 -0.6401  0.1815
   76MOL    H1424164   0.954   3.311   4.879  0.0096  1.8518  0.3743
   76MOL    H1524165   1.035   3.022   5.153 -2.0211 -1.6188 -1.9654
   76MOL    H1624166   1.153   3.061   5.019  0.1762 -0.2278 -0.2736
   76MOL    H1724167   0.808   3.014   5.104  1.3367 -1.0065  1.1219
   76MOL    C1824168   0.908   3.355   5.210 -0.0857  0.2373  0.9086
   76MOL    C1924169   0.983   3.290   5.330 -0.1223  0.1159 -0.1545
   76MOL    C2024170   0.790   3.449   5.253 -0.0512 -0.4834  0.4846
   76MOL    C2124171   0.713   3.504   5.129 -0.3170  0.1926 -0.0077
   76MOL    C2224172   0.774   3.610   5.042  0.1392 -0.0287 -0.1565
   76MOL    C2324173   0.588   3.470   5.103 -0.6801  0.8527  0.3943
   76MOL    H2424174   0.986   3.414   5.162  0.9126 -1.0875  0.8584
   76MOL    H2524175   0.916   3.258   5.410  0.6373  1.2255  0.9430
   76MOL    H2624176   1.031   3.371   5.385 -0.1312  1.9620 -2.7834
   76MOL    H2724177   1.050   3.206   5.314 -1.1047 -0.3769 -1.8550
   76MOL    H2824178   0.712   3.381   5.289 -1.4324  0.8766  0.1379
   76MOL    H2924179   0.842   3.574   4.964 -0.7905  1.4922 -1.6988
   76MOL    H3024180   0.826   3.680   5.107  1.1284  0.7814 -1.7706
   76MOL    H3124181   0.691   3.663   4.995 -0.6553 -0.0038  1.2490
   76MOL    H3224182   0.528   3.404   5.163 -0.3899 -0.1801 -0.4351
   76MOL    H3324183   0.532   3.499   5.015 -1.4383  0.0602  0.6055
   76MOL    C3424184   0.807   3.565   5.354 -0.1793  0.5058  0.0356
   76MOL    C3524185   0.955   3.629   5.345 -0.4358  0.3924 -0.3819
   76MOL    C3624186   0.764   3.536   5.507 -0.5341  0.0444 -0.2241
   76MOL    C3724187   0.634   3.461   5.526  0.1299 -0.0143  0.3669
   76MOL    C3824188   0.644   3.332   5.605 -0.5072 -0.0456  0.3611
   76MOL    C3924189   0.515   3.495   5.474  0.1280  0.0016 -0.4842
   76MOL    H4024190   0.750   3.648   5.312  1.6524  0.3408 -2.8963
   76MOL    H4124191   0.953   3.737   5.356  1.0932  0.2723  1.2697
   76MOL    H4224192   0.989   3.605   5.244  0.3318  0.8931 -0.2418
   76MOL    H4324193   1.025   3.581   5.412 -1.0770  2.1478  1.5897
   76MOL    H4424194   0.838   3.464   5.544  2.8827  2.8794 -1.2968
   76MOL    H4524195   0.678   3.353   5.707  0.3567 -0.2300  0.1128
   76MOL    H4624196   0.719   3.264   5.565 -1.0790 -0.4226 -0.0768
   76MOL    H4724197   0.548   3.284   5.623  0.4187 -2.0475  0.1766
   76MOL    H4824198   0.504   3.585   5.416 -2.2196 -0.6159 -1.0371
   76MOL    H4924199   0.421   3.445   5.491  0.0739 -0.1608 -1.2557
   76MOL    C5024200   0.769   3.661   5.611  0.1606  0.7504 -0.2813
   76MOL    C5124201   0.707   3.789   5.550 -0.1717 -0.0038  0.8301
   76MOL    C5224202   0.913   3.692   5.675 -0.2043  0.2242 -0.9528
   76MOL    C5324203   0.967   3.570   5.751  0.7717 -0.1795 -0.0222
   76MOL    C5424204   1.107   3.528   5.719 -0.4054  0.1767 -0.0553
   76MOL    C5524205   0.897   3.500   5.838  0.2096  0.3779  0.6625
   76MOL    H5624206   0.703   3.628   5.691  0.7337 -1.1897 -0.5761
   76MOL    H5724207   0.617   3.769   5.493 -0.2748  2.4133  0.0771
   76MOL    H5824208   0.772   3.843   5.481 -0.5880 -0.4597  0.0838
   76MOL    H5924209   0.675   3.864   5.623 -1.1881 -0.2789  0.6725
   76MOL    H6024210   0.986   3.707   5.595 -0.3861 -1.3706 -1.4306
   76MOL    H6124211   1.140   3.429   5.753  0.3318 -0.2440 -1.9302
   76MOL    H6224212   1.178   3.604   5.751  0.3824 -0.7918  0.5482
   76MOL    H6324213   1.113   3.519   5.611 -1.8606 -2.1712  0.0011
   76MOL    H6424214   0.794   3.516   5.864 -0.6858 -0.2631 -2.2998
   76MOL    H6524215   0.939   3.418   5.894 -0.6255  1.5803  3.1540
   76MOL    C6624216   0.935   3.815   5.767 -0.2536 -0.2915 -0.3368
   76MOL    C6724217   0.811   3.822   5.858 -0.0698 -0.3251 -0.1523
   76MOL    C6824218   0.967   3.946   5.701 -0.9987 -0.0469 -0.5543
   76MOL    C6924219   1.079   3.936   5.596 -0.2085 -0.1783 -0.1496
   76MOL    C7024220   1.223   3.895   5.646  0.2089  0.2211  0.5528
   76MOL    C7124221   1.061   3.984   5.470 -0.1827 -0.6541 -0.1100
   76MOL    H7224222   1.013   3.786   5.838 -0.8580  0.1217  0.5006
   76MOL    H7324223   0.728   3.881   5.819  0.0769  2.1102  3.0148
   76MOL    H7424224   0.829   3.876   5.950 -0.6294  1.8675 -1.2948
   76MOL    H7524225   0.773   3.725   5.890  2.7714 -1.4393 -0.0280
   76MOL    H7624226   0.878   3.976   5.646 -1.4449  0.4697  0.4331
   76MOL    H7724227   1.273   3.980   5.692 -0.1653 -0.2933  1.9555
   76MOL    H7824228   1.282   3.858   5.562  1.2922  4.0942 -0.4995
   76MOL    H7924229   1.202   3.824   5.727 -2.5197 -0.4061 -0.6701
   76MOL    H8024230   0.964   4.013   5.432 -0.1426 -1.2783 -0.6869
   76MOL    H8124231   1.136   3.985   5.392 -0.8134  0.0597 -0.7174
   76MOL    C8224232   0.993   4.072   5.790  0.4866 -0.0658  0.4375
   76MOL    C8324233   1.086   4.029   5.913  0.8978 -0.4341 -0.2965
   76MOL    C8424234   0.867   4.164   5.831 -0.6669 -0.1253  0.3109
   76MOL    C8524235   0.780   4.203   5.711  0.1182 -0.0457  0.3263
   76MOL    C8624236   0.836   4.284   5.599  0.2918  0.0679 -0.4785
   76MOL    C8724237   0.647   4.160   5.703 -0.1818 -0.3061 -0.3569
   76MOL    H8824238   1.061   4.131   5.729  0.1638 -0.7981 -0.6493
   76MOL    H8924239   1.028   3.996   5.999  0.0920 -0.2794 -0.7716
   76MOL    H9024240   1.157   4.110   5.932  0.9427 -0.5351 -0.0403
   76MOL    H9124241   1.154   3.947   5.891  0.0990 -0.6249 -2.1663
   76MOL    H9224242   0.806   4.093   5.886 -0.6203 -0.3742  0.0393
   76MOL    H9324243   0.771   4.260   5.515 -0.7222 -0.1244  0.3520
   76MOL    H9424244   0.933   4.250   5.564  0.3510 -1.9510  1.5308
   76MOL    H9524245   0.835   4.392   5.610 -0.3330  0.1848 -1.6830
   76MOL    H9624246   0.599   4.105   5.782 -0.4820 -1.5625 -1.3947
   76MOL    H9724247   0.580   4.182   5.620  0.8024  0.7256 -0.8946
   76MOL    C9824248   0.897   4.289   5.925  0.2693  0.2284  0.4622
   76MOL    C9924249   1.024   4.369   5.887  0.2331  0.2366  0.0143
   76MOL   C10024250   0.902   4.261   6.076  0.4478  0.0017 -0.7940
   76MOL   C10124251   0.780   4.172   6.117  0.0912  0.6015 -0.3872
   76MOL   C10224252   0.645   4.225   6.093  0.6028 -0.8583  0.0037
   76MOL   C10324253   0.801   4.059   6.191 -0.0142  0.0245 -0.5774
   76MOL   H10424254   0.817   4.362   5.910  0.0307 -0.3605 -1.2868
   76MOL   H10524255   1.043   4.386   5.781 -0.7566 -2.5590 -0.6349
   76MOL   H10624256   1.116   4.317   5.914  0.8441  1.9068  1.3039
   76MOL   H10724257   1.017   4.471   5.925  1.7751  0.8874 -1.3847
   76MOL   H10824258   0.980   4.184   6.077  0.8123  0.3363  2.4754
   76MOL   H10924259   0.624   4.312   6.155  0.4742 -2.1121  1.7572
   76MOL   H11024260   0.570   4.158   6.133 -0.7722  0.1803 -0.7875
   76MOL   H11124261   0.621   4.251   5.990 -0.8272  0.8939  0.7543
   76MOL   H11224262   0.900   4.030   6.221 -0.8094 -2.8105 -0.5618
   76MOL   H11324263   0.714   3.998   6.211 -0.6744  1.2825  0.4731
   76MOL   C11424264   0.934   4.366   6.188  1.2240  0.0990  0.2400
   76MOL   C11524265   0.842   4.496   6.157 -0.7407  0.9733 -0.1532
   76MOL   C11624266   1.086   4.396   6.209  0.1461 -0.2249  0.2977
   76MOL   C11724267   1.168   4.263   6.224  0.9609  0.3707 -0.3120
   76MOL   C11824268   1.128   4.169   6.347 -0.2962 -0.6184  0.4378
   76MOL   C11924269   1.260   4.226   6.132 -0.5750  0.2923  0.0765
   76MOL   H12024270   0.896   4.335   6.286 -0.3233  0.1806 -0.3156
   76MOL   H12124271   0.833   4.562   6.243 -1.9244 -0.1517  0.6067
   76MOL   H12224272   0.737   4.473   6.136 -0.6874 -2.2183  2.7024
   76MOL   H12324273   0.879   4.551   6.071 -1.8661 -0.4933 -1.6119
   76MOL   H12424274   1.123   4.434   6.113  1.5021  0.4595  1.0756
   76MOL   H12524275   1.193   4.083   6.364  0.1890 -0.1401  1.0208
   76MOL   H12624276   1.027   4.129   6.351 -0.3675 -0.5289 -0.5669
   76MOL   H12724277   1.144   4.227   6.438  1.3077 -0.8926  0.3483
   76MOL   H12824278   1.286   4.287   6.046  0.4651 -0.3417 -0.0626
   76MOL   H12924279   1.316   4.135   6.141 -2.7320 -1.0590  0.3113
   76MOL   C13024280   1.129   4.511   6.309 -0.2854 -0.4272  0.0125
   76MOL   C13124281   1.026   4.525   6.423 -0.2989 -0.2096  0.1937
   76MOL   C13224282   1.160   4.644   6.238 -0.1229  0.5052  0.1559
   76MOL   C13324283   1.268   4.638   6.128 -0.5628  0.5417 -0.5845
   76MOL   C13424284   1.238   4.731   6.011  0.8910 -0.1002  0.2489
   76MOL   C13524285   1.374   4.558   6.143 -0.6779 -0.1459  0.5264
   76MOL   H13624286   1.219   4.488   6.366  0.8637  1.0114 -1.1791
   76MOL   H13724287   0.984   4.433   6.465  0.4851 -0.9561 -0.6509
   76MOL   H13824288   0.948   4.596   6.395  2.1103  2.3912 -0.1317
   76MOL   H13924289   1.069   4.563   6.516 -0.6186 -2.6672  1.3957
   76MOL   H14024290   1.075   4.662   6.172 -0.0135 -1.9480 -0.7177
   76MOL   H14124291   1.325   4.767   5.956 -0.2086  1.2083 -0.6888
   76MOL   H14224292   1.200   4.824   6.054  1.3858 -0.1690  0.8408
   76MOL   H14324293   1.160   4.684   5.951  0.1302  0.0572  1.1001
   76MOL   H14424294   1.380   4.499   6.233 -0.2216 -2.5598 -1.0481
   76MOL   H14524295   1.459   4.553   6.077 -0.2393  0.8179  0.9948
   76MOL   C14624296   1.174   4.771   6.336  0.5163 -0.2199 -0.3547
   76MOL   C14724297   1.053   4.865   6.316 -0.2186  0.0376 -0.1258
   76MOL   C14824298   1.310   4.848   6.331  0.6916  0.3029 -0.3996
   76MOL   C14924299   1.433   4.763   6.369 -0.5404  0.4883  0.2324
   76MOL   C15024300   1.559   4.792   6.303 -0.3818 -0.1902 -0.0097
   76MOL   C15124301   1.430   4.669   6.468 -0.5656 -0.2273  0.0555
   76MOL   H15224302   1.161   4.740   6.440 -0.4102  2.8344  0.4969
   76MOL   H15324303   0.956   4.816   6.311 -0.7831  0.7887  2.4448
   76MOL   H15424304   1.057   4.916   6.219  1.1126 -1.9303 -1.1187
   76MOL   H15524305   1.037   4.931   6.402 -0.6549  1.1517 -1.0423
   76MOL   H15624306   1.337   4.883   6.231  0.1277  0.7661 -0.3926
   76MOL   H15724307   1.552   4.787   6.194 -1.6423 -2.7790  0.1532
   76MOL   H15824308   1.638   4.728   6.343  0.0493  0.5839  0.3916
   76MOL   H15924309   1.588   4.892   6.333  1.9513 -0.4629 -1.1545
   76MOL   H16024310   1.335   4.658   6.518 -0.4425  0.5480  0.4567
   76MOL   H16124311   1.516   4.608   6.491 -0.3746  0.3224  0.7998
   76MOL   C16224312   1.325   4.984   6.415  0.1766  0.0735 -0.4906
   76MOL   C16324313   1.278   4.987   6.567  0.0896 -0.6354 -0.1656
   76MOL   C16424314   1.283   5.111   6.323 -0.3385 -0.3773  1.1110
   76MOL   C16524315   1.368   5.119   6.194  0.4559 -0.4020  0.0078
   76MOL   C16624316   1.517   5.157   6.209 -0.2640 -0.2733  0.0809
   76MOL   C16724317   1.311   5.115   6.072  0.3605  0.4599  0.0545
   76MOL   H16824318   1.432   4.997   6.428  0.3881  0.9019 -2.8027
   76MOL   H16924319   1.248   5.088   6.597  0.0800 -0.2306 -1.5189
   76MOL   H17024320   1.346   4.959   6.647 -1.1761 -0.0240  1.1647
   76MOL   H17124321   1.198   4.914   6.575  0.1830 -0.3628  4.9091
   76MOL   H17224322   1.179   5.091   6.298 -0.6582  0.6872  1.5220
   76MOL   H17324323   1.581   5.132   6.125  1.5334  2.3770  0.6049
   76MOL   H17424324   1.565   5.104   6.291 -0.7268 -0.4374  0.2451
   76MOL   H17524325   1.540   5.262   6.229 -2.4221  0.3498 -0.4749
   76MOL   H17624326   1.203   5.113   6.066  0.5181 -1.7952 -3.7923
   76MOL   H17724327   1.372   5.118   5.983  1.7137 -2.6541  0.8136
   76MOL   C17824328   1.286   5.256   6.383  0.7003  0.1066 -0.1297
   76MOL   C17924329   1.402   5.293   6.482 -0.6537  0.5697  0.0120
   76MOL   C18024330   1.141   5.303   6.435  0.4063  0.2137  0.3564
   76MOL   C18124331   1.040   5.302   6.323 -0.1395 -0.2877  0.4907
   76MOL   C18224332   0.896   5.276   6.353  0.3495 -0.6986 -0.1535
   76MOL   C18324333   1.068   5.311   6.187  0.2276  0.1495 -0.3503
   76MOL   H18424334   1.307   5.339   6.315 -0.0280  1.0335  0.7569
   76MOL   H18524335   1.498   5.256   6.447 -1.2555 -0.5140 -0.5110
   76MOL   H18624336   1.404   5.247   6.581  2.8733 -0.6442 -0.5546
   76MOL   H18724337   1.417   5.401   6.472 -1.2934  0.6441 -0.1623
   76MOL   H18824338   1.097   5.230   6.502  0.0795  0.6470  0.6198
   76MOL   H18924339   0.899   5.187   6.416 -2.5586  0.2204  1.3729
   76MOL   H19024340   0.827   5.252   6.271 -0.2909 -1.9019  0.7270
   76MOL   H19124341   0.848   5.353   6.412  0.5095  0.6198 -1.7028
   76MOL   H19224342   1.166   5.323   6.144  0.4371 -0.6566 -0.1203
   76MOL   H19324343   0.978   5.310   6.127 -0.5638 -2.3422  0.7842
   76MOL   C19424344   1.128   5.443   6.516  0.0602  0.2365  0.1906
   76MOL   C19524345   1.189   5.558   6.436  0.1054  0.1392 -0.0446
   76MOL   C19624346   1.177   5.447   6.663  0.1110  0.1720 -0.3786
   76MOL   C19724347   1.109   5.331   6.741 -0.8976  0.0008  0.0037
   76MOL   C19824348   1.197   5.251   6.834 -0.1369 -0.6229  0.1896
   76MOL   C19924349   0.975   5.310   6.752  0.0220 -0.3733 -0.4953
   76MOL   H20024350   1.023   5.466   6.532  0.2766  0.5497  1.2352
   76MOL   H20124351   1.297   5.550   6.421  0.2771 -0.8509  1.6308
   76MOL   H20224352   1.168   5.649   6.491 -1.9346  0.5022 -1.3342
   76MOL   H20324353   1.146   5.573   6.337 -0.5208 -0.4209  0.1363
   76MOL   H20424354   1.279   5.409   6.662  0.2501  0.5529 -1.1514
   76MOL   H20524355   1.299   5.230   6.801  1.1593  0.9270  3.0796
   76MOL   H20624356   1.148   5.156   6.859  0.4511 -0.3241  2.5500
   76MOL   H20724357   1.210   5.300   6.930  1.3187 -0.3725 -0.1224
   76MOL   H20824358   0.908   5.372   6.693  0.7511  0.6568 -0.2550
   76MOL   H20924359   0.932   5.231   6.811  0.0655  0.2786  0.4276
   76MOL   C21024360   1.181   5.576   6.748 -0.0149  0.0032  0.4612
   76MOL   C21124361   1.055   5.672   6.736 -0.6216  0.1127 -0.6546
   76MOL   C21224362   1.314   5.661   6.725  0.6553 -0.0393  0.4983
   76MOL   C21324363   1.442   5.582   6.742 -0.4661 -0.0049  0.3637
   76MOL   C21424364   1.477   5.528   6.881  0.1832  0.1212 -0.0205
   76MOL   C21524365   1.528   5.550   6.646  0.1296  0.1898 -0.0048
   76MOL   H21624366   1.185   5.529   6.847  1.0531  0.2556  0.5477
   76MOL   H21724367   1.021   5.722   6.827 -1.0651  0.5245 -1.0399
   76MOL   H21824368   0.973   5.606   6.709 -1.1647  0.4204  0.1847
   76MOL   H21924369   1.056   5.746   6.656 -0.3549  1.2276  0.3722
   76MOL   H22024370   1.317   5.687   6.619 -0.9504  0.0689  0.4679
   76MOL   H22124371   1.387   5.487   6.928  1.3036 -1.0468  1.1758
   76MOL   H22224372   1.499   5.608   6.952 -0.2721 -1.7754  2.3209
   76MOL   H22324373   1.566   5.465   6.887  1.0613  1.2472 -1.1431
   76MOL   H22424374   1.517   5.578   6.542  0.5730 -1.0668 -0.3901
   76MOL   H22524375   1.614   5.486   6.654 -0.7598 -1.0078  0.0008
   76MOL   C22624376   1.330   5.804   6.787 -0.3984 -0.1817 -0.6716
   76MOL   C22724377   1.273   5.811   6.926 -0.1697 -0.4229 -0.7656
   76MOL   C22824378   1.292   5.926   6.701  0.3753  0.5908  0.2572
   76MOL   C22924379   1.352   5.921   6.560 -0.3598 -0.6359  0.4491
   76MOL   C23024380   1.256   5.967   6.451 -0.5046 -0.1393 -0.2678
   76MOL   C23124381   1.474   5.874   6.528  0.0294  0.2974 -0.1405
   76MOL   H23224382   1.438   5.815   6.801 -0.4082  0.1782 -0.8519
   76MOL   H23324383   1.317   5.887   6.990 -0.5933 -0.9108  0.1120
   76MOL   H23424384   1.294   5.726   6.990  1.4077  2.4965  2.7663
   76MOL   H23524385   1.164   5.824   6.928 -0.4178 -2.4931  1.8700
   76MOL   H23624386   1.184   5.914   6.691  0.1520 -0.4889  3.6024
   76MOL   H23724387   1.171   5.899   6.446 -1.4903  0.9497  1.2138
   76MOL   H23824388   1.325   5.962   6.367 -1.1234  0.3548 -0.8059
   76MOL   H23924389   1.216   6.067   6.465 -1.5520 -0.1609 -3.0001
   76MOL   H24024390   1.544   5.846   6.605  0.7521  0.9735 -0.5449
   76MOL   H24124391   1.518   5.863   6.430  1.8974 -0.0879  0.7256
   76MOL   C24224392   1.314   6.064   6.766 -0.1621 -0.1314 -0.5387
   76MOL   C24324393   1.448   6.074   6.836 -0.4049  1.1357 -0.6064
   76MOL   C24424394   1.185   6.136   6.822 -0.0905 -0.0605 -0.5449
   76MOL   C24524395   1.092   6.166   6.700  0.3188 -0.0105  0.5437
   76MOL   C24624396   0.964   6.084   6.692  0.2400  0.0906 -0.5273
   76MOL   C24724397   1.118   6.269   6.611  0.2706 -0.1583 -0.0163
   76MOL   H24824398   1.338   6.127   6.680 -0.4332 -0.5155 -0.8981
   76MOL   H24924399   1.464   6.167   6.890 -1.4385 -0.8978  3.4052
   76MOL   H25024400   1.530   6.052   6.767 -0.9762  1.3913 -1.3698
   76MOL   H25124401   1.466   6.002   6.916  1.2680  3.3208  1.0474
   76MOL   H25224402   1.150   6.052   6.882  0.8989  0.0828  0.2301
   76MOL   H25324403   0.880   6.129   6.639  0.7565  1.0541 -0.5305
   76MOL   H25424404   0.915   6.066   6.788  0.3873  1.8613 -0.1033
   76MOL   H25524405   0.981   5.987   6.645 -0.2430 -0.3685  0.2254
   76MOL   H25624406   1.203   6.336   6.615 -2.0432  3.1206 -2.6023
   76MOL   H25724407   1.042   6.288   6.536 -0.3926 -2.2126  0.1206
   76MOL   C25824408   1.210   6.251   6.928  0.2417  0.0726 -0.0943
   76MOL   C25924409   1.258   6.199   7.062  0.2443  0.0939 -0.3529
   76MOL   C26024410   1.099   6.359   6.950  0.7412  0.0575  0.0021
   76MOL   C26124411   0.951   6.318   6.949 -0.0580  0.4753 -0.0832
   76MOL   C26224412   0.914   6.220   7.056  0.1393  0.8773  0.4261
   76MOL   C26324413   0.859   6.360   6.859  0.0930  0.2743  0.7073
   76MOL   H26424414   1.296   6.294   6.876  0.8218  0.4140  1.1355
   76MOL   H26524415   1.179   6.171   7.132 -0.5431  0.3923 -1.1012
   76MOL   H26624416   1.309   6.282   7.111 -2.0518  1.1747  0.3188
   76MOL   H26724417   1.317   6.108   7.058  0.4407  0.1995  0.2077
   76MOL   H26824418   1.107   6.392   7.054 -0.7936  0.9320 -0.1357
   76MOL   H26924419   0.807   6.200   7.048  0.2887 -0.6825  2.0345
   76MOL   H27024420   0.923   6.270   7.153 -1.9902 -0.6221  1.4450
   76MOL   H27124421   0.967   6.125   7.056 -0.2726  0.6141  2.5994
   76MOL   H27224422   0.887   6.425   6.777  1.0372 -0.1193  0.7132
   76MOL   H27324423   0.753   6.341   6.856  0.2489 -0.4586 -1.0238
   76MOL   C27424424   1.132   6.501   6.882  0.6000  0.0797 -0.8026
   76MOL   C27524425   1.279   6.546   6.877 -0.5317 -0.4874  1.1344
   76MOL   C27624426   1.035   6.619   6.929 -0.8565 -0.4289 -0.2652
   76MOL   C27724427   0.971   6.691   6.803 -0.4624 -0.1856 -0.2010
   76MOL   C27824428   1.059   6.756   6.702  0.5689  0.4485 -0.1245
   76MOL   C27924429   0.841   6.682   6.788  0.4348 -0.4893  0.4284
   76MOL   H28024430   1.112   6.493   6.776 -1.4924  2.8658 -0.6656
   76MOL   H28124431   1.318   6.536   6.978 -0.3991  3.0313  1.5225
   76MOL   H28224432   1.288   6.649   6.842 -2.3729 -1.5338 -2.7108
   76MOL   H28324433   1.334   6.482   6.807 -1.0100  1.7875 -1.4264
   76MOL   H28424434   0.961   6.565   6.988  0.0884 -2.0826 -0.5536
   76MOL   H28524435   1.013   6.822   6.630 -0.6448 -0.8461 -0.5553
   76MOL   H28624436   1.117   6.687   6.640  0.3876 -0.4912  0.7379
   76MOL   H28724437   1.137   6.815   6.751 -0.4799  1.9466 -0.2147
   76MOL   H28824438   0.774   6.635   6.858  1.2966 -3.2282 -0.5168
   76MOL   H28924439   0.783   6.725   6.707 -3.5357 -1.8242  2.4438
   76MOL   C29024440   1.083   6.723   7.036  0.8409  0.6158 -0.3667
   76MOL   C29124441   1.142   6.660   7.159  0.0919 -0.5955  0.7037
   76MOL   C29224442   0.976   6.841   7.066  0.2830 -0.2963  0.3351
   76MOL   C29324443   1.045   6.964   7.011 -0.2028 -0.2717  0.0257
   76MOL   C29424444   1.166   7.017   7.092 -0.0620 -0.1141  0.3775
   76MOL   C29524445   0.997   7.030   6.900 -0.3962 -0.5591  0.2293
   76MOL   H29624446   1.167   6.759   6.977  2.3061 -0.1602  1.2150
   76MOL   H29724447   1.185   6.740   7.220 -0.2509  0.9019 -0.9694
   76MOL   H29824448   1.225   6.591   7.149 -0.5018 -1.6674  2.8802
   76MOL   H29924449   1.070   6.610   7.224 -1.4951 -1.3195 -1.5633
   76MOL   H30024450   0.894   6.841   6.994 -0.3197  1.0938  0.9889
   76MOL   H30124451   1.247   6.943   7.096 -0.9214 -1.1298 -0.7222
   76MOL   H30224452   1.134   7.045   7.192  1.5160 -1.1269  1.1976
   76MOL   H30324453   1.210   7.096   7.031 -3.1278 -0.8980 -3.0455
   76MOL   H30424454   0.912   7.006   6.839  0.2218 -1.1954 -0.4030
   76MOL   H30524455   1.047   7.120   6.866 -0.6475 -0.7135 -0.5573
   76MOL   C30624456   0.912   6.849   7.212 -0.5751 -0.8455  0.3376
   76MOL   C30724457   0.822   6.727   7.240 -0.0664  0.5114 -0.2395
   76MOL   C30824458   0.834   6.981   7.241  0.0704  0.6505 -0.5796
   76MOL   C30924459   0.809   7.012   7.387  0.4333  0.5575 -0.5111
   76MOL   C31024460   0.691   6.937   7.439  0.2049 -0.1058 -0.1507
   76MOL   C31124461   0.894   7.089   7.459  0.0180  0.0634 -0.1221
   76MOL   H31224462   0.998   6.852   7.278  0.3180 -1.7405 -0.7616
   76MOL   H31324463   0.849   6.644   7.175  2.1826  0.3924  0.8027
   76MOL   H31424464   0.718   6.757   7.229 -0.0853  0.5372  0.0043
   76MOL   H31524465   0.830   6.692   7.343 -1.9297  1.1306  0.1245
   76MOL   H31624466   0.899   7.064   7.210  1.1355 -0.3602 -1.0910
   76MOL   H31724467   0.705   6.829   7.442 -1.4789 -0.4714 -3.0207
   76MOL   H31824468   0.595   6.959   7.392 -1.3236 -0.2190  2.7491
   76MOL   H31924469   0.672   6.965   7.543  2.4694 -1.3107  0.6273
   76MOL   H32024470   0.978   7.128   7.404 -1.8838  0.9482 -2.4893
   76MOL   H32124471   0.877   7.112   7.563  0.4424  0.8888 -0.2276
   76MOL   H32224472   0.744   7.000   7.182  0.6008  0.9937 -1.2983
   77MOL     C124473   1.430   7.473   2.036 -0.1753  0.1181  0.0150
   77MOL     C224474   1.355   7.522   2.158  0.1590 -0.1945  0.2945
   77MOL     C324475   1.412   7.542   1.904 -0.0916  0.3201 -0.6622
   77MOL     C424476   1.267   7.592   1.900 -0.2261  0.3257  0.6167
   77MOL     C524477   1.162   7.491   1.879  0.1976  0.1586  0.4202
   77MOL     C624478   1.235   7.719   1.912 -0.3071 -0.5500 -0.1202
   77MOL     H724479   1.535   7.478   2.066  0.1979  0.4402 -1.3176
   77MOL     H824480   1.250   7.497   2.142  0.1359 -0.8248  1.4018
   77MOL     H924481   1.361   7.631   2.161  3.7769 -0.3343  0.3164
   77MOL    H1024482   1.386   7.490   2.257 -0.9647 -1.8564  0.1184
   77MOL    H1124483   1.472   7.633   1.913  0.1879  0.0980 -0.2674
   77MOL    H1224484   1.070   7.520   1.930  0.6439 -0.3826  1.5434
   77MOL    H1324485   1.194   7.391   1.905  0.6758 -0.5346 -2.5979
   77MOL    H1424486   1.128   7.484   1.775  1.4923 -0.0422 -0.0017
   77MOL    H1524487   1.317   7.789   1.917 -2.3353  1.9128 -0.0519
   77MOL    H1624488   1.135   7.759   1.920  0.7099  2.4932 -1.7626
   77MOL    H1724489   1.407   7.372   2.004 -3.4912  0.4524  1.1215
   77MOL    C1824490   1.463   7.469   1.773 -0.3487  0.5271  0.1635
   77MOL    C1924491   1.613   7.440   1.782 -0.0933  0.3705  0.1480
   77MOL    C2024492   1.415   7.539   1.637  0.7418  0.1600 -0.2128
   77MOL    C2124493   1.375   7.435   1.527 -0.4411  0.0590  0.1560
   77MOL    C2224494   1.229   7.403   1.523 -0.5554  0.3198 -0.1140
   77MOL    C2324495   1.464   7.380   1.445  0.1135 -0.3332  0.6353
   77MOL    H2424496   1.414   7.371   1.772 -1.3616  1.0501 -1.6787
   77MOL    H2524497   1.643   7.368   1.706 -2.9221  0.6477 -1.2916
   77MOL    H2624498   1.645   7.396   1.877  1.2715 -1.4217 -1.1147
   77MOL    H2724499   1.685   7.519   1.757 -1.2029  1.5993  0.7513
   77MOL    H2824500   1.324   7.590   1.668 -0.4743 -1.2646 -1.3940
   77MOL    H2924501   1.180   7.498   1.541  0.2551  0.5371  0.9855
   77MOL    H3024502   1.197   7.341   1.607  2.2024  2.3043  2.5086
   77MOL    H3124503   1.199   7.357   1.429  0.7189  0.6739 -0.7147
   77MOL    H3224504   1.567   7.409   1.457  0.6235 -1.4706 -0.8756
   77MOL    H3324505   1.423   7.307   1.377  0.9311 -2.2650  2.1662
   77MOL    C3424506   1.503   7.652   1.581  0.9565 -0.1752 -0.3997
   77MOL    C3524507   1.520   7.761   1.685 -0.2782 -0.4494  0.3523
   77MOL    C3624508   1.480   7.703   1.434 -0.2864  0.1210  0.1430
   77MOL    C3724509   1.616   7.742   1.374  0.1803  0.0581  0.8037
   77MOL    C3824510   1.668   7.883   1.383  0.1320  0.2938  0.0588
   77MOL    C3924511   1.689   7.649   1.309  0.3315  0.0782  0.0637
   77MOL    H4024512   1.603   7.610   1.573  1.4786  0.7359  1.1898
   77MOL    H4124513   1.573   7.730   1.775 -0.2872 -0.6765  0.2800
   77MOL    H4224514   1.428   7.805   1.725  1.1761  1.4689  1.7066
   77MOL    H4324515   1.583   7.840   1.645 -0.7339 -0.3323 -0.1390
   77MOL    H4424516   1.446   7.622   1.370 -0.4306 -0.6502  1.1901
   77MOL    H4524517   1.733   0.008   1.298 -0.4257 -1.4167 -0.7438
   77MOL    H4624518   1.730   7.890   1.473 -0.5889 -0.6114  0.6346
   77MOL    H4724519   1.589   0.065   1.391  0.4679  0.5288  1.2709
   77MOL    H4824520   1.668   7.544   1.290  2.4921  0.1243 -2.9140
   77MOL    H4924521   1.785   7.679   1.270  0.1476  0.3818 -0.1558
   77MOL    C5024522   1.364   7.802   1.404  0.2833  0.0983 -0.8977
   77MOL    C5124523   1.224   7.745   1.436 -0.1586 -0.3727  0.4929
   77MOL    C5224524   1.358   7.885   1.268  0.6199 -0.7235 -0.8893
   77MOL    C5324525   1.284   0.127   1.293 -0.4532  0.2421 -0.8992
   77MOL    C5424526   1.362   0.237   1.366  0.0780 -0.0966 -0.2910
   77MOL    C5524527   1.159   0.151   1.260 -0.1563 -0.3201  0.4857
   77MOL    H5624528   1.376   7.888   1.470 -0.1757  0.8367 -1.7581
   77MOL    H5724529   1.214   7.729   1.544 -0.6838  0.1971  0.5382
   77MOL    H5824530   1.188   7.658   1.381  1.7675  0.1056 -1.5630
   77MOL    H5924531   1.151   7.816   1.396  2.7774  1.3169 -2.0443
   77MOL    H6024532   1.462   0.015   1.245  0.3380 -0.8004 -2.2340
   77MOL    H6124533   1.413   0.206   1.457  0.5092  0.0934 -0.4660
   77MOL    H6224534   1.295   0.318   1.393 -0.3235  0.2890 -2.4134
   77MOL    H6324535   1.443   0.276   1.305  0.3459 -2.9218 -1.8268
   77MOL    H6424536   1.092   0.075   1.221 -0.4483  0.2525 -0.1451
   77MOL    H6524537   1.114   0.249   1.265 -0.1426 -0.1630 -1.9796
   77MOL    C6624538   1.301   7.805   1.140  0.3938 -0.2602 -0.4475
   77MOL    C6724539   1.338   7.652   1.134  0.4817  0.2287  0.3000
   77MOL    C6824540   1.328   7.881   1.004  0.7613 -0.1264 -0.3192
   77MOL    C6924541   1.205   7.857   0.913 -0.4227 -0.2887 -0.9693
   77MOL    C7024542   1.082   0.056   0.932  0.3911 -0.2674 -0.0284
   77MOL    C7124543   1.198   7.767   0.816  0.5697 -0.7761 -0.1179
   77MOL    H7224544   1.193   7.802   1.147  0.4662  0.3758  1.0551
   77MOL    H7324545   1.446   7.637   1.130  0.7579  2.1184  0.1251
   77MOL    H7424546   1.309   7.611   1.037  1.9420 -0.5403  0.1695
   77MOL    H7524547   1.289   7.574   1.193  1.4532 -0.8752 -0.3225
   77MOL    H7624548   1.325   0.095   1.027  2.1263  0.2178 -1.5867
   77MOL    H7724549   1.118   0.156   0.958  3.3735 -1.3207  0.0405
   77MOL    H7824550   1.014   0.035   1.015 -0.0038 -0.0433 -0.2931
   77MOL    H7924551   1.016   0.059   0.845 -1.3831 -0.4024  1.2629
   77MOL    H8024552   1.284   7.702   0.805 -0.2613 -1.8637 -0.3297
   77MOL    H8124553   1.115   7.762   0.748 -0.2804  0.5705  0.7928
   77MOL    C8224554   1.465   7.869   0.930 -0.6425  0.5807  0.0297
   77MOL    C8324555   1.595   7.868   1.010 -0.9432  0.3992  0.3776
   77MOL    C8424556   1.471   0.082   0.799 -0.1802  0.1286 -0.1087
   77MOL    C8524557   1.508   0.005   0.668  0.2006 -0.1523 -0.4747
   77MOL    C8624558   1.647   7.841   0.653 -0.0711  0.0491 -0.0637
   77MOL    C8724559   1.414   7.884   0.571 -0.4971  0.7797  0.0249
   77MOL    H8824560   1.471   7.767   0.890 -0.6615  1.1310 -1.4160
   77MOL    H8924561   1.682   7.856   0.945 -1.2469 -2.1010  0.3747
   77MOL    H9024562   1.597   7.791   1.087  2.6400  0.9411  0.8972
   77MOL    H9124563   1.615   0.058   1.077  1.7156  1.4211 -1.6056
   77MOL    H9224564   1.366   0.111   0.787  0.0114  0.9752  0.2178
   77MOL    H9324565   1.652   7.764   0.730  0.6424  0.2828  0.1251
   77MOL    H9424566   1.718   0.031   0.659  2.1799 -1.6909 -1.7606
   77MOL    H9524567   1.674   7.784   0.563  1.6764  1.4747 -0.4698
   77MOL    H9624568   1.314   0.031   0.581 -0.7344 -0.3593  2.3768
   77MOL    H9724569   1.440   7.842   0.475  2.6801  1.0167  0.7541
   77MOL    C9824570   1.556   0.207   0.814 -0.0953  0.6232  0.2717
   77MOL    C9924571   1.506   0.294   0.934 -0.1714  0.2910  0.3535
   77MOL   C10024572   1.586   0.301   0.686 -0.0193  0.9712 -0.0049
   77MOL   C10124573   1.731   0.363   0.691  0.4548  0.3155 -0.0581
   77MOL   C10224574   1.770   0.449   0.812  0.1259 -0.2573 -0.1534
   77MOL   C10324575   1.824   0.330   0.597 -0.1789 -0.2585 -1.5732
   77MOL   H10424576   1.658   0.180   0.843 -0.1619 -0.7599 -0.6904
   77MOL   H10524577   1.557   0.386   0.962  0.8995  0.1200 -0.9783
   77MOL   H10624578   1.498   0.235   1.026  3.8929 -3.1097 -1.3091
   77MOL   H10724579   1.403   0.322   0.914 -0.0826  0.4183  0.0820
   77MOL   H10824580   1.591   0.245   0.593  0.4840  3.1995 -1.3443
   77MOL   H10924581   1.703   0.534   0.823  1.7690  1.2225 -1.2425
   77MOL   H11024582   1.862   0.505   0.792 -2.1829  3.0358 -2.0853
   77MOL   H11124583   1.778   0.393   0.905  0.5547 -1.1742 -0.7378
   77MOL   H11224584   1.821   0.256   0.518 -1.4887  0.0997 -1.8769
   77MOL   H11324585   1.923   0.373   0.606 -0.0943 -0.4311 -1.6755
   77MOL   C11424586   1.484   0.411   0.655  0.1963 -0.3785  0.5122
   77MOL   C11524587   1.343   0.351   0.643 -0.3317 -0.5355  0.1463
   77MOL   C11624588   1.519   0.520   0.539 -0.1234  0.4958  0.5458
   77MOL   C11724589   1.592   0.647   0.595 -0.0693  0.5648  0.5973
   77MOL   C11824590   1.707   0.696   0.506  1.0097  0.2443 -0.0475
   77MOL   C11924591   1.551   0.720   0.704  0.0885 -0.1935 -0.6778
   77MOL   H12024592   1.484   0.477   0.742  4.4231  1.2061 -0.5652
   77MOL   H12124593   1.370   0.261   0.588 -0.5229 -1.3889  1.4349
   77MOL   H12224594   1.268   0.400   0.581  0.7866 -0.5084 -1.2281
   77MOL   H12324595   1.287   0.308   0.726  0.2580 -2.1860 -0.2976
   77MOL   H12424596   1.595   0.462   0.486 -2.5388 -0.9929 -1.4326
   77MOL   H12524597   1.780   0.616   0.494 -0.1910 -0.8009 -0.4931
   77MOL   H12624598   1.763   0.778   0.552  1.7986  0.6335 -1.6660
   77MOL   H12724599   1.667   0.716   0.407  0.5844  0.4124  0.1589
   77MOL   H12824600   1.470   0.696   0.771  0.7990 -1.9724 -0.4100
   77MOL   H12924601   1.616   0.801   0.729 -0.1164 -1.2150  3.4381
   77MOL   C13024602   1.412   0.557   0.420  0.8657 -0.3598  0.5945
   77MOL   C13124603   1.298   0.642   0.471 -0.5021 -0.2647 -0.0619
   77MOL   C13224604   1.367   0.439   0.323  0.0401 -0.2845 -0.5643
   77MOL   C13324605   1.491   0.363   0.284 -0.0640  0.3685 -0.4268
   77MOL   C13424606   1.481   0.212   0.280 -0.4739  0.8901  0.0951
   77MOL   C13524607   1.604   0.428   0.251 -0.2984  0.0494 -0.1162
   77MOL   H13624608   1.470   0.625   0.358 -0.9833 -0.0204 -0.8480
   77MOL   H13724609   1.331   0.741   0.502 -2.5590  0.8512 -1.3382
   77MOL   H13824610   1.251   0.599   0.560 -0.2001 -1.8931 -0.6811
   77MOL   H13924611   1.225   0.671   0.395 -0.6362 -0.4194  0.0061
   77MOL   H14024612   1.313   0.366   0.383  1.0864  0.1841  0.9675
   77MOL   H14124613   1.583   0.172   0.282 -1.2452 -1.0650  1.0803
   77MOL   H14224614   1.441   0.185   0.182 -0.9460  2.1612 -0.0609
   77MOL   H14324615   1.430   0.167   0.365  0.0968  0.4751  0.2189
   77MOL   H14424616   1.611   0.535   0.247 -1.5997  0.1192 -0.9034
   77MOL   H14524617   1.700   0.381   0.232 -0.6065 -0.4682 -0.4104
   77MOL   C14624618   1.284   0.478   0.195 -0.0767  0.5773 -0.4278
   77MOL   C14724619   1.349   0.602   0.114 -0.1610 -0.2122 -0.0024
   77MOL   C14824620   1.132   0.472   0.217  0.3579  0.5728  0.3903
   77MOL   C14924621   1.085   0.373   0.315 -0.0432 -0.3410 -0.0714
   77MOL   C15024622   1.091   0.226   0.276  0.2177  0.3138  0.2384
   77MOL   C15124623   1.026   0.399   0.436  0.0576 -0.2424 -0.3476
   77MOL   H15224624   1.296   0.390   0.132  0.1852  0.1906  0.1573
   77MOL   H15324625   1.326   0.700   0.155  0.4766 -0.3016  0.5728
   77MOL   H15424626   1.328   0.616   0.008  1.6698 -0.5728 -0.4358
   77MOL   H15524627   1.457   0.589   0.116 -0.0182  0.9035 -0.3033
   77MOL   H15624628   1.098   0.562   0.268 -0.2284  0.1639  0.7242
   77MOL   H15724629   1.016   0.216   0.196  1.4124  0.2883 -0.8922
   77MOL   H15824630   1.075   0.164   0.364  0.8851 -1.1780 -0.6800
   77MOL   H15924631   1.188   0.210   0.229 -1.1108 -0.7254 -2.2868
   77MOL   H16024632   1.019   0.497   0.480 -0.1787  0.0935 -1.1354
   77MOL   H16124633   0.993   0.318   0.501  0.7123 -1.9604 -2.1009
   77MOL   C16224634   1.046   0.467   0.085 -0.3542  0.1677  0.2147
   77MOL   C16324635   1.108   0.372   7.871 -0.1824 -0.0465  0.1289
   77MOL   C16424636   1.007   0.613   0.036  0.0440 -0.4316  0.9783
   77MOL   C16524637   0.920   0.700   0.129  0.8496 -0.0406  0.2315
   77MOL   C16624638   0.946   0.846   0.121 -0.2538  0.0389  0.7992
   77MOL   C16724639   0.827   0.652   0.208 -0.4860  0.2931  0.0604
   77MOL   H16824640   0.949   0.426   0.114 -1.4531  1.6916 -1.2095
   77MOL   H16924641   1.056   0.319   7.792 -1.2178 -0.1340  0.8639
   77MOL   H17024642   1.161   0.287   0.022 -2.0883  0.2216  3.1415
   77MOL   H17124643   1.182   0.426   7.811 -0.7842  0.5213 -0.1035
   77MOL   H17224644   1.101   0.668   0.039  0.0080 -0.4443  2.4416
   77MOL   H17324645   0.905   0.888   0.029  2.3808 -0.9025 -0.8520
   77MOL   H17424646   1.054   0.858   0.134 -0.3802  1.6273  0.5334
   77MOL   H17524647   0.899   0.900   0.204 -0.4763 -0.7273  1.1726
   77MOL   H17624648   0.806   0.546   0.219  0.4954  0.2827  2.0110
   77MOL   H17724649   0.765   0.711   0.274 -1.0267 -0.0750 -0.1125
   77MOL   C17824650   0.935   0.625   7.784  0.5378  0.5232  0.6791
   77MOL   C17924651   0.829   0.515   7.774  0.3665 -0.0597  0.5273
   77MOL   C18024652   1.032   0.640   7.662 -0.5775  0.1634 -0.2864
   77MOL   C18124653   1.138   0.741   7.691 -0.7333  0.4608 -0.3812
   77MOL   C18224654   1.278   0.703   7.641  0.1209 -0.2864  0.5058
   77MOL   C18324655   1.118   0.863   7.739 -0.0807 -0.2873 -0.4317
   77MOL   H18424656   0.889   0.723   7.774  1.4190  0.8151 -0.6315
   77MOL   H18524657   0.774   0.536   7.866 -0.4886 -3.0626  0.7481
   77MOL   H18624658   0.861   0.413   7.794  0.7033 -0.3124 -1.2349
   77MOL   H18724659   0.770   0.510   7.682  0.7845  1.7618  0.1387
   77MOL   H18824660   1.077   0.541   7.657 -4.1014 -1.4113 -2.3877
   77MOL   H18924661   1.322   0.609   7.673 -0.1806 -0.6618 -0.1882
   77MOL   H19024662   1.348   0.786   7.658 -2.0663  1.8388 -0.5000
   77MOL   H19124663   1.269   0.698   7.533 -1.3899 -1.7584  0.6885
   77MOL   H19224664   1.023   0.904   7.769 -0.9073 -1.8391 -0.8867
   77MOL   H19324665   1.198   0.933   7.759 -1.3463  1.1763 -0.3645
   77MOL   C19424666   0.964   0.657   7.520 -0.4551  0.2121  0.4287
   77MOL   C19524667   1.049   0.616   7.394  0.5157 -0.2291 -0.1807
   77MOL   C19624668   0.872   0.788   7.501  0.5119  0.6314  0.0338
   77MOL   C19724669   0.731   0.738   7.479 -0.7091 -0.2063  0.3035
   77MOL   C19824670   0.636   0.762   7.595 -0.6323 -0.7000  0.1504
   77MOL   C19924671   0.690   0.688   7.369  0.0733  0.2301 -0.4999
   77MOL   H20024672   0.898   0.570   7.518 -0.3759  0.1485  0.5556
   77MOL   H20124673   0.986   0.593   7.308 -2.1424 -0.4685  1.7780
   77MOL   H20224674   1.100   0.521   7.412 -2.7704 -2.6710 -3.1396
   77MOL   H20324675   1.130   0.679   7.358 -0.3896  1.7495  1.2011
   77MOL   H20424676   0.873   0.848   7.592 -0.2116  1.7339 -0.6713
   77MOL   H20524677   0.609   0.866   7.612 -1.6777 -0.7532 -1.0958
   77MOL   H20624678   0.670   0.716   7.688  0.5979 -4.7895 -2.1955
   77MOL   H20724679   0.545   0.707   7.568 -0.6126 -1.2537  1.1936
   77MOL   H20824680   0.747   0.668   7.280 -0.5838  1.0515 -1.1177
   77MOL   H20924681   0.586   0.660   7.360 -0.0270  0.5331 -0.3285
   77MOL   C21024682   0.915   0.896   7.390 -0.2236  0.4307  0.6123
   77MOL   C21124683   1.053   0.962   7.406  0.2553  0.3686 -0.3752
   77MOL   C21224684   0.812   1.010   7.353  0.2961 -0.2931 -0.3325
   77MOL   C21324685   0.807   1.018   7.201  0.1995 -0.2841 -0.2226
   77MOL   C21424686   0.737   0.906   7.126 -0.0902 -0.4433 -0.7160
   77MOL   C21524687   0.850   1.125   7.125 -0.4621  0.0378 -0.0560
   77MOL   H21624688   0.925   0.840   7.297  0.1267  2.3870 -0.5782
   77MOL   H21724689   1.135   0.893   7.388 -0.8499 -0.7046 -1.3612
   77MOL   H21824690   1.064   1.011   7.503  0.7350 -1.3872  0.4808
   77MOL   H21924691   1.069   1.040   7.332  1.9718  1.1000  0.7217
   77MOL   H22024692   0.712   0.978   7.381  1.4779 -1.6015  2.6195
   77MOL   H22124693   0.712   0.914   7.021  1.2275  0.4848 -0.9609
   77MOL   H22224694   0.643   0.882   7.176  0.5676 -0.0220  0.7533
   77MOL   H22324695   0.802   0.818   7.128  1.0450  0.3987  0.5967
   77MOL   H22424696   0.892   1.211   7.175  0.4664 -0.8208  0.6652
   77MOL   H22524697   0.839   1.119   7.018 -2.7053 -3.9584  0.2894
   77MOL   C22624698   0.814   1.148   7.434 -0.3307  0.1242  0.2006
   77MOL   C22724699   0.803   1.123   7.583 -0.1369  0.0533 -0.3374
   77MOL   C22824700   0.718   1.264   7.391  0.0672  0.2092 -0.9250
   77MOL   C22924701   0.773   1.403   7.421 -1.0755 -0.1295  0.3446
   77MOL   C23024702   0.867   1.467   7.315  0.0654 -0.0882  0.1605
   77MOL   C23124703   0.757   1.470   7.538  0.1659 -0.5266  0.1392
   77MOL   H23224704   0.910   1.191   7.405 -0.3039 -1.3529 -1.9999
   77MOL   H23324705   0.886   1.067   7.627 -0.8496  1.8289  3.5079
   77MOL   H23424706   0.709   1.070   7.600  0.4909 -1.0907 -0.3990
   77MOL   H23524707   0.806   1.215   7.641 -0.9039  1.2351 -2.1567
   77MOL   H23624708   0.700   1.263   7.284 -2.0552 -1.7611 -0.5894
   77MOL   H23724709   0.969   1.428   7.308 -0.4411 -1.3110 -0.5938
   77MOL   H23824710   0.864   1.576   7.320  1.8115 -0.1078  2.5383
   77MOL   H23924711   0.823   1.453   7.217 -0.5322  0.5053  0.3402
   77MOL   H24024712   0.698   1.429   7.618 -1.6172  1.9092  0.1214
   77MOL   H24124713   0.802   1.567   7.557 -0.5609 -0.0788 -0.4057
   77MOL   C24224714   0.570   1.242   7.434  0.6631 -0.2244  0.5738
   77MOL   C24324715   0.506   1.113   7.381  0.0796 -0.7610 -0.1134
   77MOL   C24424716   0.472   1.360   7.394 -0.9259 -0.4868 -0.3193
   77MOL   C24524717   0.361   1.369   7.505 -0.4440 -0.2058  0.3227
   77MOL   C24624718   0.404   1.457   7.617 -0.4007  0.1939 -0.1552
   77MOL   C24724719   0.238   1.309   7.499  0.0444 -0.0454  0.0094
   77MOL   H24824720   0.570   1.242   7.543  0.2794 -2.4030  0.5994
   77MOL   H24924721   0.526   1.032   7.451 -0.3579 -0.3926  0.4409
   77MOL   H25024722   0.542   1.091   7.280  3.1450  1.7941  0.3128
   77MOL   H25124723   0.399   1.122   7.397  0.3109 -1.3628  1.9571
   77MOL   H25224724   0.520   1.457   7.412  0.3502 -0.3737 -3.8085
   77MOL   H25324725   0.311   1.457   7.675 -0.3454  1.1901 -0.0559
   77MOL   H25424726   0.426   1.558   7.584 -1.8852  0.7016  0.3431
   77MOL   H25524727   0.487   1.425   7.680 -1.2353 -0.7918  0.4657
   77MOL   H25624728   0.218   1.261   7.405  1.6672  0.6702 -0.7274
   77MOL   H25724729   0.160   1.322   7.573 -0.2832  0.8733 -0.4815
   77MOL   C25824730   0.419   1.357   7.249 -0.0394  0.3788  0.1673
   77MOL   C25924731   0.522   1.325   7.127  0.3272  1.0856 -0.1508
   77MOL   C26024732   0.338   1.488   7.221  0.1500  0.2220  0.4221
   77MOL   C26124733   0.213   1.469   7.126  0.5820  0.7922 -0.2016
   77MOL   C26224734   0.233   1.436   6.980  0.3902  0.0112 -0.9727
   77MOL   C26324735   0.091   1.495   7.171  0.6158 -0.7952 -0.1523
   77MOL   H26424736   0.340   1.282   7.244  0.0499  0.3970 -1.8317
   77MOL   H26524737   0.484   1.351   7.028  0.7187  1.3245 -0.2360
   77MOL   H26624738   0.564   1.225   7.137 -1.7468  0.0018 -1.7241
   77MOL   H26724739   0.611   1.386   7.139  0.8118  0.2286  0.6452
   77MOL   H26824740   0.295   1.512   7.318 -0.8876 -2.4132  0.6336
   77MOL   H26924741   0.299   1.511   6.935  1.5271 -1.1807 -1.3222
   77MOL   H27024742   0.136   1.439   6.931  0.2864 -0.0175 -0.7664
   77MOL   H27124743   0.274   1.338   6.956 -0.0503 -0.6503  0.9294
   77MOL   H27224744   0.076   1.518   7.276  1.7171  1.0802 -0.3901
   77MOL   H27324745   0.003   1.481   7.111  2.0805 -0.4433 -2.4130
   77MOL   C27424746   0.430   1.612   7.164  0.5329  0.5322 -0.3104
   77MOL   C27524747   0.556   1.650   7.234 -0.3330  0.7144 -0.7614
   77MOL   C27624748   0.353   1.739   7.118  0.6181  0.0079  0.7653
   77MOL   C27724749   0.435   1.805   7.003 -0.2658  0.4215 -0.8823
   77MOL   C27824750   0.443   1.742   6.863 -0.3935 -0.4379 -0.4291
   77MOL   C27924751   0.516   1.908   7.015 -0.3433  0.3726  0.0260
   77MOL   H28024752   0.472   1.567   7.074 -0.0275  2.1884 -1.4326
   77MOL   H28124753   0.535   1.702   7.328  1.7661 -0.4747  0.4142
   77MOL   H28224754   0.629   1.705   7.174  2.1373  0.2238  1.6866
   77MOL   H28324755   0.616   1.569   7.277 -3.9685 -0.2798  2.7021
   77MOL   H28424756   0.260   1.712   7.067  0.3349  1.1739  0.6447
   77MOL   H28524757   0.530   1.676   6.859 -0.2111 -0.3234  1.1941
   77MOL   H28624758   0.463   1.805   6.777 -1.6957 -1.9300 -1.8714
   77MOL   H28724759   0.351   1.690   6.836  1.1158 -4.7501  2.1232
   77MOL   H28824760   0.520   1.964   7.107 -3.4358 -0.8763  0.9871
   77MOL   H28924761   0.574   1.946   6.932 -0.0581  1.8713  0.9006
   77MOL   C29024762   0.315   1.840   7.230 -1.0753 -0.5123 -0.6290
   77MOL   C29124763   0.258   1.778   7.357 -0.7303 -0.4462 -0.2859
   77MOL   C29224764   0.235   1.968   7.178 -0.3971  0.0230  0.3361
   77MOL   C29324765   0.284   2.105   7.239 -0.6790 -0.5389  1.2569
   77MOL   C29424766   0.310   2.212   7.132 -0.0976 -0.1211 -0.5489
   77MOL   C29524767   0.305   2.119   7.371  0.4028  0.0375  0.3370
   77MOL   H29624768   0.407   1.884   7.269 -1.8343  1.7002 -1.2592
   77MOL   H29724769   0.334   1.715   7.405 -1.1448 -0.6196  0.1484
   77MOL   H29824770   0.172   1.715   7.334 -0.6581 -0.1929 -1.2619
   77MOL   H29924771   0.223   1.841   7.439 -1.2529  0.5282 -1.2537
   77MOL   H30024772   0.284   1.973   7.081  2.8479  1.4716  1.9743
   77MOL   H30124773   0.224   2.235   7.069 -1.1891  1.4404  1.4458
   77MOL   H30224774   0.391   2.172   7.071  0.4802  0.5240 -0.2155
   77MOL   H30324775   0.349   2.305   7.174 -2.4215  1.5054 -1.8425
   77MOL   H30424776   0.270   2.043   7.440  0.2695  0.6868  0.9889
   77MOL   H30524777   0.355   2.201   7.420 -0.5577  0.8421 -0.0049
   77MOL   C30624778   0.076   1.959   7.148  0.4309  0.4890 -0.4856
   77MOL   C30724779   0.001   1.957   7.279 -0.2389 -0.2806 -0.3017
   77MOL   C30824780   0.018   1.856   7.053  0.4962  0.1802 -0.2255
   77MOL   C30924781   0.066   1.865   6.909  0.0999 -0.5141 -0.1570
   77MOL   C31024782   0.044   1.737   6.837  0.0726 -1.3227  0.2080
   77MOL   C31124783   0.115   1.978   6.854  0.0446 -0.1080 -0.4489
   77MOL   H31224784   0.057   2.056   7.102 -0.1114  0.5206 -0.2012
   77MOL   H31324785   0.032   2.038   7.346  0.0627 -0.2015 -0.5362
   77MOL   H31424786   0.013   1.859   7.325  0.3982  0.2113  0.6021
   77MOL   H31524787   7.788   1.980   7.262 -0.3443  1.4916  2.4813
   77MOL   H31624788   0.037   1.756   7.092  0.6955 -0.3446 -1.6169
   77MOL   H31724789   0.057   1.750   6.730 -1.1054  0.8780  0.3161
   77MOL   H31824790   7.838   1.693   6.850 -0.6742  0.3015  0.1464
   77MOL   H31924791   0.118   1.665   6.874  0.1890 -0.3031  2.0385
   77MOL   H32024792   0.127   2.072   6.906 -1.4342 -0.0065 -0.2644
   77MOL   H32124793   0.153   1.971   6.753  1.3983  0.4899  0.0104
   77MOL   H32224794   7.802   1.867   7.052  0.3030 -1.4758  0.3647
   78MOL     C124795   1.067   6.344   7.460  0.6308  0.7114 -0.5083
   78MOL     C224796   1.199   6.313   7.383  0.2422  0.2108 -1.0654
   78MOL     C324797   1.057   6.261   7.590 -0.3860 -0.0253 -0.2143
   78MOL     C424798   1.008   6.117   7.569 -0.3208  0.2728 -0.1808
   78MOL     C524799   1.035   6.024   7.687  0.2676 -1.4207  0.8334
   78MOL     C624800   0.950   6.071   7.454  0.2950 -0.5299  0.4749
   78MOL     H724801   1.061   6.447   7.497 -1.2323  0.9703 -1.4567
   78MOL     H824802   1.212   6.209   7.354 -3.8214 -0.2897 -1.4376
   78MOL     H924803   1.280   6.332   7.454  0.5816  1.8269 -1.8545
   78MOL    H1024804   1.231   6.383   7.306  1.1206  2.0051  0.8788
   78MOL    H1124805   1.158   6.238   7.623  0.3058  1.4854 -1.1847
   78MOL    H1224806   1.131   6.051   7.732  1.1262 -0.8425 -1.3186
   78MOL    H1324807   1.033   5.920   7.656 -0.9202 -1.2397  0.2556
   78MOL    H1424808   0.959   6.027   7.766 -0.9277  3.2272 -0.3632
   78MOL    H1524809   0.928   6.133   7.369 -0.1378 -0.0271  0.9502
   78MOL    H1624810   0.925   5.967   7.438 -1.9421  0.1469 -0.6050
   78MOL    H1724811   0.981   6.343   7.392 -0.5817  1.7381  0.9787
   78MOL    C1824812   0.975   6.319   7.711 -0.3570 -0.1607 -0.4847
   78MOL    C1924813   0.832   6.344   7.660 -0.0196  0.2673  0.2883
   78MOL    C2024814   1.048   6.446   7.769 -0.3698  0.0664  0.0029
   78MOL    C2124815   1.197   6.424   7.799  0.2967  0.3337 -0.9583
   78MOL    C2224816   1.292   6.514   7.720  0.2914  0.5942 -0.0347
   78MOL    C2324817   1.243   6.331   7.886  0.3369 -0.7795 -0.1244
   78MOL    H2424818   0.964   6.248   7.793 -1.3432  0.8628  0.2904
   78MOL    H2524819   0.824   6.433   7.597  0.2147  1.4199  1.8621
   78MOL    H2624820   0.767   6.359   7.746 -0.3379  0.3368  0.0392
   78MOL    H2724821   0.787   6.259   7.609  1.0471  0.2468 -0.6294
   78MOL    H2824822   1.043   6.529   7.698  0.1414  0.3191  0.2621
   78MOL    H2924823   1.384   6.458   7.699 -0.6085 -0.4727 -1.2216
   78MOL    H3024824   1.339   6.595   7.775  1.7220 -1.2214  1.5169
   78MOL    H3124825   1.251   6.545   7.624  1.8376  0.8244 -0.6345
   78MOL    H3224826   1.176   6.263   0.044  0.0511 -1.2047 -1.0576
   78MOL    H3324827   1.350   6.328   0.009  0.5245  1.7893 -0.7417
   78MOL    C3424828   0.972   6.509   7.891  0.3298  0.2101  0.6196
   78MOL    C3524829   0.923   6.404   0.100 -0.1874 -0.4548  0.4414
   78MOL    C3624830   0.871   6.628   7.845 -0.7083 -0.9917  0.1461
   78MOL    C3724831   0.945   6.734   7.760 -0.5444 -1.1011  0.6002
   78MOL    C3824832   1.062   6.809   7.818 -0.0511 -0.1330 -0.2075
   78MOL    C3924833   0.910   6.755   7.634 -0.1565  0.2015  0.5129
   78MOL    H4024834   1.039   6.562   0.066 -2.1021  3.4999  0.5851
   78MOL    H4124835   0.845   6.337   0.063 -1.2692  0.3161  1.3060
   78MOL    H4224836   0.884   6.448   0.191  1.9075  0.4941  0.9110
   78MOL    H4324837   1.002   6.343   0.144  0.4163  0.6353  0.8776
   78MOL    H4424838   0.794   6.589   7.778 -2.3984  1.5775  0.5303
   78MOL    H4524839   1.137   6.740   7.856  2.6753  3.1325  0.5206
   78MOL    H4624840   1.041   6.882   0.004 -0.0760 -1.1599  0.7475
   78MOL    H4724841   1.109   6.867   7.738 -3.3872 -0.4257 -2.4748
   78MOL    H4824842   0.832   6.700   7.583 -1.3019 -0.7602  3.2224
   78MOL    H4924843   0.966   6.827   7.578  1.0622 -0.1394  1.2760
   78MOL    C5024844   0.795   6.705   0.073 -0.4124 -0.2317  0.2110
   78MOL    C5124845   0.891   6.747   0.190  0.2306 -0.9410 -0.2146
   78MOL    C5224846   0.662   6.638   0.117  0.0781 -0.1811 -0.9502
   78MOL    C5324847   0.567   6.601   7.889 -0.0256 -0.2510 -0.2623
   78MOL    C5424848   0.503   6.712   7.817 -0.5359  0.3804 -0.1364
   78MOL    C5524849   0.538   6.477   7.851 -0.3379  0.2963 -0.5758
   78MOL    H5624850   0.763   6.801   0.032  1.3695  1.1065  1.8321
   78MOL    H5724851   0.863   6.825   0.261  2.1206  1.0845 -1.6409
   78MOL    H5824852   0.990   6.780   0.161 -0.9379  1.6924 -1.4431
   78MOL    H5924853   0.912   6.661   0.252 -1.0408 -1.5449 -0.5966
   78MOL    H6024854   0.688   6.536   0.145 -0.8599 -0.2966 -0.4890
   78MOL    H6124855   0.438   6.766   7.887 -2.2234 -2.0740  0.2357
   78MOL    H6224856   0.441   6.663   7.743 -0.1610 -1.9229  1.0433
   78MOL    H6324857   0.572   6.787   7.778 -0.5698 -0.0492 -1.0254
   78MOL    H6424858   0.577   6.389   0.009 -0.5669  1.6646  2.0680
   78MOL    H6524859   0.472   6.456   7.769 -1.6610  0.6481  0.3764
   78MOL    C6624860   0.579   6.715   0.233 -0.5297  0.0308 -0.0791
   78MOL    C6724861   0.581   6.865   0.209  0.0654 -0.9121  0.1720
   78MOL    C6824862   0.612   6.665   0.381  0.4647  0.1118 -0.0562
   78MOL    C6924863   0.629   6.516   0.390 -0.2693  0.2714 -1.0227
   78MOL    C7024864   0.755   6.468   0.467  0.0660 -0.1242  0.1932
   78MOL    C7124865   0.533   6.427   0.350  0.0935  0.3886 -0.8310
   78MOL    H7224866   0.477   6.685   0.210 -0.1269 -0.0647 -1.8896
   78MOL    H7324867   0.678   6.907   0.233  0.4250 -0.1889 -2.3665
   78MOL    H7424868   0.506   6.911   0.273  0.9316  0.9767 -0.1617
   78MOL    H7524869   0.550   6.900   0.110 -0.0558 -0.3038  0.4226
   78MOL    H7624870   0.713   6.704   0.399  0.4011  0.5267 -0.5692
   78MOL    H7724871   0.791   6.541   0.539  0.4272  0.6006 -0.7119
   78MOL    H7824872   0.823   6.434   0.389 -0.1143  0.8585 -0.4032
   78MOL    H7924873   0.738   6.386   0.536  0.8983 -1.0611 -0.7139
   78MOL    H8024874   0.438   6.460   0.310  0.1514  0.5104 -0.8677
   78MOL    H8124875   0.549   6.321   0.359 -1.2151  0.2213 -0.2645
   78MOL    C8224876   0.538   6.718   0.508 -0.4658  0.0210  0.6292
   78MOL    C8324877   0.386   6.713   0.473  0.1209  0.1893  0.4783
   78MOL    C8424878   0.586   6.861   0.563  0.7953  0.2317 -0.0195
   78MOL    C8524879   0.734   6.857   0.609 -0.1590 -0.6656  0.3972
   78MOL    C8624880   0.824   6.949   0.538  0.3036 -0.6533  0.5919
   78MOL    C8724881   0.780   6.766   0.699  0.1114  0.3223 -0.7724
   78MOL    H8824882   0.560   6.643   0.584 -0.9761 -2.9767 -2.0483
   78MOL    H8924883   0.327   6.720   0.565  0.4921 -0.3038  0.7618
   78MOL    H9024884   0.361   6.616   0.428 -0.8172  0.2689  0.8032
   78MOL    H9124885   0.362   6.804   0.419  1.4829  0.4555  0.3213
   78MOL    H9224886   0.584   6.928   0.477 -0.6143  0.8993  0.5062
   78MOL    H9324887   0.779   7.016   0.465  0.7886  0.2586  1.1167
   78MOL    H9424888   0.883   6.878   0.480  0.4033 -0.4161  0.3997
   78MOL    H9524889   0.889   6.996   0.612 -2.5678  0.3853  2.5356
   78MOL    H9624890   0.726   6.680   0.736  2.0876 -1.2812 -1.4926
   78MOL    H9724891   0.884   6.769   0.730  0.3512 -0.3003 -1.4864
   78MOL    C9824892   0.500   6.933   0.674  0.1551 -0.4057  0.1236
   78MOL    C9924893   0.481   6.833   0.795 -0.2271 -0.3850  0.0427
   78MOL   C10024894   0.370   7.019   0.634 -0.1579  0.3183  0.8255
   78MOL   C10124895   0.380   7.074   0.494  0.3712 -0.6524 -0.9430
   78MOL   C10224896   0.486   7.182   0.469  0.3349  0.0533  0.3138
   78MOL   C10324897   0.288   7.065   0.394  0.3253 -0.2945 -0.3278
   78MOL   H10424898   0.567   7.009   0.715 -0.3078  0.4229 -0.6453
   78MOL   H10524899   0.431   6.741   0.763  0.9371 -0.8617 -0.4396
   78MOL   H10624900   0.414   6.871   0.872  1.6313  1.1439  0.9429
   78MOL   H10724901   0.574   6.806   0.844  0.7802  0.9439 -1.1277
   78MOL   H10824902   0.288   6.946   0.635 -0.8016  1.0137 -0.3060
   78MOL   H10924903   0.466   7.285   0.498  0.1213  0.8488 -2.4604
   78MOL   H11024904   0.540   7.188   0.374 -0.1973  1.6785  0.0945
   78MOL   H11124905   0.570   7.152   0.531  0.5725 -0.7914 -0.3974
   78MOL   H11224906   0.199   7.005   0.406  0.8288 -0.8782  0.6202
   78MOL   H11324907   0.298   7.128   0.307 -1.6752  1.6572  0.8145
   78MOL   C11424908   0.317   7.124   0.735  1.2189  0.2660  0.2518
   78MOL   C11524909   0.348   7.096   0.886  0.0262 -0.0506  0.4193
   78MOL   C11624910   0.163   7.164   0.722  0.1452  0.5725 -0.2522
   78MOL   C11724911   0.151   7.313   0.739  0.0154  0.1553  0.4203
   78MOL   C11824912   0.167   7.405   0.615 -0.4823 -0.4897  1.0751
   78MOL   C11924913   0.131   7.372   0.857 -0.6213  0.0506  0.1185
   78MOL   H12024914   0.381   7.211   0.718 -2.2653  3.2225  1.6791
   78MOL   H12124915   0.331   7.181   0.953  2.0290  0.2587  0.5695
   78MOL   H12224916   0.457   7.093   0.891  0.0804 -0.4782 -0.9701
   78MOL   H12324917   0.289   7.017   0.931  0.5192  0.6453  2.3603
   78MOL   H12424918   0.144   7.162   0.615  1.0267  0.4372 -0.4122
   78MOL   H12524919   0.167   7.507   0.652  2.3343 -0.2441  0.5256
   78MOL   H12624920   0.087   7.388   0.542  2.2302 -3.4887 -1.3715
   78MOL   H12724921   0.267   7.384   0.577 -0.5775  1.6587 -0.4057
   78MOL   H12824922   0.128   7.315   0.949  1.2303  1.2454  0.9219
   78MOL   H12924923   0.116   7.478   0.872 -1.1450 -0.3606  2.6320
   78MOL   C13024924   0.044   7.073   0.793 -0.1947  0.1414 -0.0582
   78MOL   C13124925   0.062   6.921   0.760 -0.0843  0.5269  0.0474
   78MOL   C13224926   7.788   7.115   0.766 -0.1687  0.2473 -0.1191
   78MOL   C13324927   7.705   7.105   0.892 -0.4080 -0.0930  0.7768
   78MOL   C13424928   7.728   7.204   1.004  1.2039  0.4522 -0.2892
   78MOL   C13524929   7.628   6.995   0.906 -0.3000  0.4546 -0.1875
   78MOL   H13624930   0.059   7.086   0.901 -0.2636  3.3115 -0.3625
   78MOL   H13724931   0.149   6.882   0.813 -0.1880 -0.2952 -0.3792
   78MOL   H13824932   0.068   6.906   0.652  0.2409  0.0041  0.1353
   78MOL   H13924933   7.867   6.874   0.804 -0.3033  1.3703  0.5092
   78MOL   H14024934   7.798   7.223   0.752  0.1157 -0.1512 -3.3569
   78MOL   H14124935   7.666   7.293   1.013  0.4783  0.0431 -1.2088
   78MOL   H14224936   7.829   7.246   1.000  0.8459  1.4066  0.6036
   78MOL   H14324937   7.709   7.157   1.100  1.3817  1.3454  0.1931
   78MOL   H14424938   7.608   6.931   0.820 -1.0460 -0.0593  0.3624
   78MOL   H14524939   7.583   6.974   1.002 -0.2752 -0.3124 -0.3333
   78MOL   C14624940   7.723   7.086   0.627 -0.0718  0.3879 -0.8357
   78MOL   C14724941   7.811   7.098   0.495  0.2856  0.2135 -0.0297
   78MOL   C14824942   7.576   7.143   0.598  0.2746 -0.0218  0.4815
   78MOL   C14924943   7.493   7.038   0.513  0.0531  0.1521 -0.3939
   78MOL   C15024944   7.433   6.922   0.591 -0.3146  0.1864 -0.0177
   78MOL   C15124945   7.477   7.043   0.383 -0.1755 -0.2381 -0.2230
   78MOL   H15224946   7.707   6.979   0.638 -1.7855  0.7746  0.5995
   78MOL   H15324947   7.832   7.199   0.460  2.5100  0.1129  0.9161
   78MOL   H15424948   7.749   7.056   0.417 -2.4474  1.4839  1.3700
   78MOL   H15524949   0.007   7.034   0.496  0.7912  0.9026  1.1563
   78MOL   H15624950   7.524   7.145   0.694 -0.9314  0.6456 -0.1714
   78MOL   H15724951   7.505   6.859   0.644  0.1870  1.4971  0.8864
   78MOL   H15824952   7.360   6.860   0.537 -1.8034  0.9003  1.1333
   78MOL   H15924953   7.380   6.975   0.670 -0.4400  0.0000  0.0248
   78MOL   H16024954   7.512   7.128   0.327 -1.0365 -0.8070 -1.6478
   78MOL   H16124955   7.422   6.967   0.329 -1.7423  0.6082  0.1414
   78MOL   C16224956   7.555   7.290   0.551 -0.5607 -0.0509  0.2782
   78MOL   C16324957   7.646   7.391   0.634 -0.1692 -0.3387  0.3102
   78MOL   C16424958   7.407   7.332   0.534 -0.6324 -0.3160  0.0369
   78MOL   C16524959   7.399   7.394   0.392  0.2752 -0.5489  0.1925
   78MOL   C16624960   7.451   7.529   0.372  0.3035  0.0951 -0.1717
   78MOL   C16724961   7.338   7.326   0.286 -0.2041 -0.0120 -0.4657
   78MOL   H16824962   7.604   7.283   0.454  1.4423  0.2513  1.2482
   78MOL   H16924963   7.637   7.361   0.738  1.5183 -1.0413  0.2684
   78MOL   H17024964   7.616   7.494   0.613 -0.0192 -0.5212 -0.8600
   78MOL   H17124965   7.751   7.376   0.611  0.7510  2.5791  2.3149
   78MOL   H17224966   7.344   7.243   0.528  0.1625 -0.9633  1.1448
   78MOL   H17324967   7.422   7.596   0.453 -0.7690 -0.8435  0.2355
   78MOL   H17424968   7.419   7.570   0.276 -0.2084  1.9766  0.7876
   78MOL   H17524969   7.560   7.526   0.372  0.3372  1.1290 -1.2069
   78MOL   H17624970   7.301   7.226   0.307 -1.9396  0.9931  1.4251
   78MOL   H17724971   7.324   7.361   0.185 -1.6356 -1.8072 -0.9241
   78MOL   C17824972   7.337   7.421   0.646 -0.7733 -0.0940 -0.7840
   78MOL   C17924973   7.337   7.353   0.786 -0.5723 -0.4742  0.1323
   78MOL   C18024974   7.199   7.485   0.612 -0.0376  0.1107  0.1144
   78MOL   C18124975   7.185   7.608   0.696  0.0489 -1.0888 -0.7194
   78MOL   C18224976   7.264   7.729   0.655 -0.2207  1.0467 -0.4629
   78MOL   C18324977   7.119   7.616   0.813 -0.1485 -0.2051  0.9530
   78MOL   H18424978   7.400   7.510   0.653  0.5608 -0.9453 -1.7416
   78MOL   H18524979   7.274   7.263   0.779  0.1250 -0.9159 -0.4584
   78MOL   H18624980   7.309   7.414   0.872  0.8763  3.0791 -1.8252
   78MOL   H18724981   7.430   7.308   0.819  1.1822  2.7643 -0.3293
   78MOL   H18824982   7.201   7.515   0.508 -1.8471  1.1926  0.3789
   78MOL   H18924983   7.371   7.716   0.670 -0.3194 -0.4038 -0.9216
   78MOL   H19024984   7.238   7.817   0.714 -0.7594  0.1739  0.6109
   78MOL   H19124985   7.242   7.748   0.550 -1.0258  0.1101 -0.4743
   78MOL   H19224986   7.058   7.534   0.849 -0.8534 -0.3320 -0.4781
   78MOL   H19324987   7.109   7.712   0.863  1.0387 -0.0568  0.9086
   78MOL   C19424988   7.069   7.386   0.611 -0.4506  0.0712 -0.0358
   78MOL   C19524989   7.080   7.244   0.547  0.1517  0.3468  0.0701
   78MOL   C19624990   6.930   7.459   0.574 -0.0415  0.8568 -0.0768
   78MOL   C19724991   6.829   7.417   0.682  0.4741 -0.2060  0.2059
   78MOL   C19824992   6.769   7.277   0.693  0.2563  0.4305 -0.1404
   78MOL   C19924993   6.784   7.504   0.772  0.3322  0.1851  0.5699
   78MOL   H20024994   7.060   7.361   0.717 -1.2612 -1.8374 -0.5452
   78MOL   H20124995   7.155   7.187   0.602 -0.2421  0.4693  0.7286
   78MOL   H20224996   7.116   7.253   0.444  0.1784 -0.1374  0.0367
   78MOL   H20324997   6.989   7.185   0.552  0.0286  0.2240 -2.7505
   78MOL   H20424998   6.942   7.567   0.576  0.7998  0.7651  0.1325
   78MOL   H20524999   6.833   7.200   0.735 -1.1414 -0.1053  1.0298
   78MOL   H20625000   6.757   7.239   0.591  0.5484  0.5996 -0.2393
   78MOL   H20725001   6.667   7.277   0.731  1.0598  1.9453  2.1542
   78MOL   H20825002   6.819   7.607   0.773  1.1015 -0.0620 -0.2885
   78MOL   H20925003   6.707   7.477   0.843 -2.2558  0.1677 -2.1239
   78MOL   C21025004   6.884   7.429   0.426 -0.5765 -0.6107  0.3782
   78MOL   C21125005   6.981   7.491   0.327  0.3781  0.0325  0.4231
   78MOL   C21225006   6.733   7.463   0.392 -0.0150  0.2304 -0.3807
   78MOL   C21325007   6.683   7.354   0.298  0.5055 -0.6986  0.3657
   78MOL   C21425008   6.735   7.350   0.157  0.3322 -0.0047 -0.0652
   78MOL   C21525009   6.604   7.255   0.342 -0.6771 -0.3991  0.3446
   78MOL   H21625010   6.898   7.324   0.402  0.9974 -0.5140  0.8374
   78MOL   H21725011   7.087   7.467   0.335  0.1383 -0.6071  1.7055
   78MOL   H21825012   6.976   7.600   0.329 -0.6897  0.0313 -1.4428
   78MOL   H21925013   6.949   7.462   0.227 -0.5640 -0.8543  0.9808
   78MOL   H22025014   6.676   7.449   0.484 -2.0216  0.0096 -1.6317
   78MOL   H22125015   6.748   7.451   0.118  0.0681  0.1224  0.1810
   78MOL   H22225016   6.664   7.296   0.095  0.8724 -0.0300 -0.6648
   78MOL   H22325017   6.831   7.297   0.157  0.6973  0.6300 -1.0051
   78MOL   H22425018   6.564   7.257   0.443 -1.2656  1.0507  0.0979
   78MOL   H22525019   6.574   7.180   0.271  0.3243  1.8683 -2.5915
   78MOL   C22625020   6.693   7.612   0.354  0.6579  0.3999  0.3504
   78MOL   C22725021   6.705   7.712   0.477  0.6897 -0.5787  0.2937
   78MOL   C22825022   6.562   7.639   0.263  0.7773  0.2018  0.6997
   78MOL   C22925023   6.583   7.756   0.167  0.0423  0.0484 -0.0813
   78MOL   C23025024   6.625   0.000   0.226 -0.3242 -0.6694 -0.0746
   78MOL   C23125025   6.570   7.736   0.034 -0.2440 -0.4634  0.8941
   78MOL   H23225026   6.770   7.631   0.279  1.8652 -0.0951  1.4395
   78MOL   H23325027   6.806   7.752   0.486  0.1388  1.1974 -1.2020
   78MOL   H23425028   6.675   7.676   0.576  1.6118 -0.3587  0.6582
   78MOL   H23525029   6.634   7.793   0.459  2.8597  1.0874 -0.9296
   78MOL   H23625030   6.555   7.549   0.201 -1.5821  0.0547  1.1165
   78MOL   H23725031   6.729   7.881   0.257  0.5609  1.3265 -2.1207
   78MOL   H23825032   6.555   0.033   0.303  0.2217  0.0891  0.1051
   78MOL   H23925033   6.623   0.068   0.140  0.0320  0.3868  0.7350
   78MOL   H24025034   6.550   7.638   7.887  1.7011 -2.0111  3.5853
   78MOL   H24125035   6.583   7.810   7.849  0.1858 -0.8597  0.5790
   78MOL   C24225036   6.419   7.650   0.325  0.0966 -0.4410 -0.5328
   78MOL   C24325037   6.402   7.558   0.444 -0.8627  0.4513 -0.2030
   78MOL   C24425038   6.295   7.645   0.220  0.1453  0.5973  0.5255
   78MOL   C24525039   6.175   7.722   0.279  0.1915  0.7415  0.7569
   78MOL   C24625040   6.172   7.866   0.228 -0.4002  0.5741 -0.4916
   78MOL   C24725041   6.085   7.675   0.369 -0.7417 -0.6681 -0.3206
   78MOL   H24825042   6.427   7.751   0.366 -0.7354  0.0507 -1.5462
   78MOL   H24925043   6.469   7.583   0.526 -0.8366  1.6765 -0.5771
   78MOL   H25025044   6.431   7.458   0.413  1.9884  1.0952  0.2567
   78MOL   H25125045   6.303   7.557   0.488 -0.1376  0.2387  1.4440
   78MOL   H25225046   6.318   7.705   0.132 -1.4181  0.0246 -0.2860
   78MOL   H25325047   6.270   0.021   0.215 -0.2053  0.1066 -0.7313
   78MOL   H25425048   6.106   0.033   0.292 -1.0354  0.4320 -1.0129
   78MOL   H25525049   6.137   7.881   0.126  2.8978  1.7904 -1.5134
   78MOL   H25625050   6.083   7.571   0.401  1.1656 -0.6757 -0.2075
   78MOL   H25725051   6.006   7.730   0.418 -1.2314 -2.1375  0.5706
   78MOL   C25825052   6.248   7.498   0.167 -0.1729 -0.4106 -0.3234
   78MOL   C25925053   6.362   7.408   0.109  0.1802 -0.1935  0.5364
   78MOL   C26025054   6.113   7.483   0.085 -0.2827 -0.4611  0.2336
   78MOL   C26125055   6.032   7.362   0.137 -0.5853  0.6505 -0.2300
   78MOL   C26225056   6.108   7.221   0.141  0.1887  0.3151 -0.1186
   78MOL   C26325057   5.909   7.369   0.188 -0.2421 -0.5499 -0.7937
   78MOL   H26425058   6.233   7.444   0.261 -0.9867 -1.8358 -1.2515
   78MOL   H26525059   6.439   7.466   0.057 -1.2427  1.7243  0.4990
   78MOL   H26625060   6.332   7.332   0.036  0.1704  2.1926 -2.0369
   78MOL   H26725061   6.409   7.352   0.189 -2.3166 -3.0376  0.1101
   78MOL   H26825062   6.047   7.565   0.112 -1.8182 -0.8026 -2.3666
   78MOL   H26925063   6.182   7.214   0.222  0.9978 -0.6649 -0.9207
   78MOL   H27025064   6.167   7.202   0.051  1.8526  0.8505  0.8280
   78MOL   H27125065   6.032   7.144   0.158  0.3397  0.3611  0.8220
   78MOL   H27225066   5.853   7.461   0.193 -1.1648 -1.1912  0.9840
   78MOL   H27325067   5.857   7.285   0.231 -2.0524  1.1876  0.4854
   78MOL   C27425068   6.134   7.493   7.819 -0.4181 -1.0138  0.0141
   78MOL   C27525069   6.190   7.632   7.779 -0.6031  0.3948 -0.0039
   78MOL   C27625070   6.013   7.441   7.732  0.7962 -0.8917 -0.4048
   78MOL   C27725071   6.074   7.342   7.633 -0.3946 -0.4995  0.3113
   78MOL   C27825072   6.157   7.407   7.515 -0.7210  0.6297  0.0915
   78MOL   C27925073   6.061   7.209   7.647 -0.0399 -0.5922 -0.0400
   78MOL   H28025074   6.215   7.423   7.802  2.6631  2.3120  0.2195
   78MOL   H28125075   6.294   7.654   7.802  0.6899 -1.6192 -3.6032
   78MOL   H28225076   6.130   7.719   7.807  2.4523  2.7803 -0.6469
   78MOL   H28325077   6.181   7.638   7.671 -1.1254 -3.2804 -0.2324
   78MOL   H28425078   5.950   7.376   7.792 -0.3773  0.4018 -0.2254
   78MOL   H28525079   6.261   7.418   7.546 -0.2214  0.7461 -1.5643
   78MOL   H28625080   6.133   7.510   7.493 -0.7071  0.7668  0.7235
   78MOL   H28725081   6.159   7.341   7.427 -0.1876  1.1152 -0.2604
   78MOL   H28825082   5.994   7.175   7.725 -1.2849  1.4142 -0.2010
   78MOL   H28925083   6.113   7.145   7.577  0.7796 -1.3629  1.2391
   78MOL   C29025084   5.914   7.550   7.671  0.5274  0.0746 -0.3294
   78MOL   C29125085   5.846   7.649   7.772  0.0661 -0.1855  0.7060
   78MOL   C29225086   5.813   7.501   7.562 -0.4316 -0.2094 -0.1538
   78MOL   C29325087   5.816   7.584   7.433  0.1329  0.2744 -0.3818
   78MOL   C29425088   5.802   7.737   7.447  0.1683 -0.2725  0.4836
   78MOL   C29525089   5.852   7.537   7.309 -0.5311  0.2411  0.0554
   78MOL   H29625090   5.969   7.624   7.614 -0.0953  0.6002 -0.2508
   78MOL   H29725091   5.781   7.716   7.715 -2.0055 -2.3279  0.4691
   78MOL   H29825092   5.925   7.702   7.825  1.7047 -0.2944 -1.5408
   78MOL   H29925093   5.786   7.597   7.847 -0.2879 -1.7605 -0.6563
   78MOL   H30025094   5.852   7.402   7.540 -0.3197  0.1395 -1.5410
   78MOL   H30125095   5.698   7.761   7.473  0.8280  0.6800  2.3778
   78MOL   H30225096   5.837   7.801   7.366  0.5658  2.2254  2.5423
   78MOL   H30325097   5.863   7.781   7.526  1.2811  0.1636 -0.6102
   78MOL   H30425098   5.895   7.439   7.296  2.2076  1.4055 -0.1595
   78MOL   H30525099   5.848   7.591   7.216  3.0587  1.9751  0.8258
   78MOL   C30625100   5.666   7.477   7.610  0.5477  0.5664 -0.1363
   78MOL   C30725101   5.648   7.381   7.729  0.1458  0.4468  0.8869
   78MOL   C30825102   5.568   7.423   7.497 -0.2271  0.1174 -0.5054
   78MOL   C30925103   5.418   7.454   7.525  0.2641 -0.0017 -0.1117
   78MOL   C31025104   5.367   7.591   7.503  0.2666 -0.2736  0.2960
   78MOL   C31125105   5.334   7.354   7.573  0.0861  0.4889  0.1338
   78MOL   H31225106   5.625   7.574   7.638  0.2139  0.1193  0.9679
   78MOL   H31325107   5.663   7.278   7.695  0.2419  1.2020 -1.4364
   78MOL   H31425108   5.551   7.389   7.777 -0.1440 -1.2619  0.6459
   78MOL   H31525109   5.729   7.394   7.800  2.1996  0.2004 -1.3480
   78MOL   H31625110   5.568   7.455   7.393  1.8167 -0.9635 -0.8672
   78MOL   H31725111   5.393   7.664   7.579  2.8282 -1.5297  0.6981
   78MOL   H31825112   5.258   7.586   7.499  0.2187  0.2717  0.9537
   78MOL   H31925113   5.402   7.625   7.406 -0.3922  1.1421  0.5464
   78MOL   H32025114   5.360   7.255   7.604 -2.3729  0.0072  0.8220
   78MOL   H32125115   5.230   7.379   7.592 -0.1164 -0.5342  0.4109
   78MOL   H32225116   5.584   7.316   7.489 -0.0073  0.2585 -2.1071
   79MOL     C125117   0.819   5.759   5.841  0.1645  0.0201  0.3605
   79MOL     C225118   0.911   5.677   5.751 -0.1087 -0.2286  0.3385
   79MOL     C325119   0.773   5.703   5.977 -0.8250 -0.0416  0.0895
   79MOL     C425120   0.708   5.562   5.953  0.0766  0.2807 -0.6177
   79MOL     C525121   0.585   5.560   5.855 -0.0027  0.1985  0.0384
   79MOL     C625122   0.757   5.456   6.016 -0.5067  0.1273  0.4925
   79MOL     H725123   0.879   5.848   5.862  0.6306  0.0879 -1.2448
   79MOL     H825124   0.953   5.716   5.659 -0.4737 -2.4395 -0.8149
   79MOL     H925125   0.850   5.594   5.715 -1.0121  0.6857 -0.2756
   79MOL    H1025126   0.993   5.636   5.809  1.2975  2.8184  0.5780
   79MOL    H1125127   0.867   5.690   6.030 -1.8271  0.4510  2.0457
   79MOL    H1225128   0.532   5.465   5.856 -2.1796  1.3670  2.3376
   79MOL    H1325129   0.630   5.565   5.756  0.2349 -0.4859  0.1110
   79MOL    H1425130   0.513   5.641   5.870  0.0085  0.6165 -2.0686
   79MOL    H1525131   0.830   5.467   6.094 -1.8224 -0.7466  1.8688
   79MOL    H1625132   0.711   5.363   5.989 -3.1255  1.6029 -0.3557
   79MOL    H1725133   0.739   5.804   5.783 -0.5046 -0.8293  0.6092
   79MOL    C1825134   0.686   5.808   6.054 -0.4620 -0.0424 -0.1291
   79MOL    C1925135   0.762   5.938   6.079 -0.5313 -0.7301 -0.3083
   79MOL    C2025136   0.589   5.755   6.167 -0.7467  0.2347  0.1037
   79MOL    C2125137   0.444   5.808   6.153 -0.3834 -0.0436 -0.0013
   79MOL    C2225138   0.420   5.952   6.154 -0.1448 -0.1342  0.5441
   79MOL    C2325139   0.339   5.720   6.141 -0.0204 -0.0545 -0.5826
   79MOL    H2425140   0.622   5.835   5.971  0.8884 -0.6418 -1.3788
   79MOL    H2525141   0.856   5.931   6.134 -0.7119 -0.4134  0.0414
   79MOL    H2625142   0.710   6.020   6.127  1.7205  0.1383  0.6896
   79MOL    H2725143   0.802   5.973   5.983  3.2406 -0.0092  1.4264
   79MOL    H2825144   0.579   5.648   6.149  0.6005  0.3226 -1.2441
   79MOL    H2925145   0.489   6.013   6.212  0.5627 -1.0462  0.6705
   79MOL    H3025146   0.317   5.975   6.182 -0.2110  0.9979 -0.6154
   79MOL    H3125147   0.428   5.990   6.052 -1.6613 -1.4583 -0.0914
   79MOL    H3225148   0.367   5.616   6.149  0.6542  0.0384 -1.6031
   79MOL    H3325149   0.236   5.755   6.136 -0.1470 -0.3872 -0.3391
   79MOL    C3425150   0.653   5.774   6.315  0.1401  0.2891  0.0808
   79MOL    C3525151   0.793   5.712   6.330  0.3973 -0.0798  0.1704
   79MOL    C3625152   0.567   5.730   6.439 -0.1722  0.3187  0.5682
   79MOL    C3725153   0.571   5.827   6.554 -0.1379 -0.4593  0.0726
   79MOL    C3825154   0.694   5.832   6.645  0.0819 -0.0538  1.1683
   79MOL    C3925155   0.469   5.907   6.581 -0.8700 -0.1259 -0.7389
   79MOL    H4025156   0.655   5.882   6.326 -1.8170  0.2080  1.5394
   79MOL    H4125157   0.869   5.776   6.285  1.2099 -0.4254  1.0178
   79MOL    H4225158   0.800   5.612   6.285 -2.5988 -1.0676  1.7519
   79MOL    H4325159   0.820   5.702   6.435  0.6235  0.0215  0.1223
   79MOL    H4425160   0.470   5.740   6.390  0.0909  2.6763  0.4588
   79MOL    H4525161   0.751   5.907   6.590 -1.3751 -0.1239 -0.5004
   79MOL    H4625162   0.748   5.738   6.649  1.0554  0.4657  0.5453
   79MOL    H4725163   0.671   5.861   6.748  3.7099  0.8190  1.8038
   79MOL    H4825164   0.376   5.903   6.527 -1.6030  1.5111  0.3459
   79MOL    H4925165   0.468   5.981   6.660 -0.7154 -0.1803 -0.6861
   79MOL    C5025166   0.574   5.576   6.479  0.4704  0.0259  0.7493
   79MOL    C5125167   0.544   5.474   6.357 -0.1068  0.5127  0.0845
   79MOL    C5225168   0.497   5.521   6.607 -0.6464  0.3600  0.3933
   79MOL    C5325169   0.595   5.420   6.682 -0.5239  0.6734  0.3007
   79MOL    C5425170   0.665   5.469   6.805 -0.0118  0.3936 -0.0799
   79MOL    C5525171   0.603   5.288   6.644 -0.4703  0.0308 -0.1124
   79MOL    H5625172   0.680   5.571   6.503  0.6997  1.3459  0.0392
   79MOL    H5725173   0.631   5.465   6.293  0.3685 -0.8733  0.9124
   79MOL    H5825174   0.459   5.510   6.299 -2.7031 -3.1258  1.4258
   79MOL    H5925175   0.547   5.373   6.398 -0.9808 -0.3633 -1.9917
   79MOL    H6025176   0.487   5.602   6.679 -1.3780 -0.5985  1.3831
   79MOL    H6125177   0.729   5.547   6.763 -0.9153  0.9001 -0.5453
   79MOL    H6225178   0.721   5.380   6.832  2.5293  0.9785 -3.1022
   79MOL    H6325179   0.597   5.505   6.883 -0.0921 -0.0774  0.0690
   79MOL    H6425180   0.550   5.240   6.563  2.6117 -0.4855 -1.8723
   79MOL    H6525181   0.669   5.230   6.707 -0.6086 -2.7992 -2.4464
   79MOL    C6625182   0.350   5.471   6.585 -1.1316 -0.0739  0.2250
   79MOL    C6725183   0.260   5.580   6.522 -0.1225  0.7111 -0.1949
   79MOL    C6825184   0.282   5.403   6.708  0.1313  0.5958 -0.7738
   79MOL    C6925185   0.213   5.275   6.652  0.9394  0.4173 -0.2443
   79MOL    C7025186   0.112   5.292   6.540  0.0251 -0.0459 -0.6760
   79MOL    C7125187   0.232   5.160   6.705 -0.1828 -0.1957  0.0204
   79MOL    H7225188   0.350   5.394   6.508  0.6899 -0.4043  0.5407
   79MOL    H7325189   0.253   5.670   6.583  1.7908  1.4169 -0.9880
   79MOL    H7425190   0.156   5.550   6.508 -0.4245  1.5999  0.1242
   79MOL    H7525191   0.302   5.610   6.426  2.0447  2.2016  1.1728
   79MOL    H7625192   0.367   5.367   6.767 -0.7387  1.9673  1.3459
   79MOL    H7725193   0.040   5.371   6.565 -0.1670 -0.2753 -0.4953
   79MOL    H7825194   0.057   5.200   6.520  2.1571 -1.7677  1.2057
   79MOL    H7925195   0.157   5.324   6.447  2.9079  0.8563  0.9720
   79MOL    H8025196   0.302   5.159   6.787 -1.3220  0.6858  1.0161
   79MOL    H8125197   0.190   5.062   6.686 -2.4554  0.9617 -1.2094
   79MOL    C8225198   0.193   5.488   6.805 -0.2577 -0.6596  0.1381
   79MOL    C8325199   0.259   5.611   6.872  0.3872 -0.5176  0.2025
   79MOL    C8425200   0.109   5.411   6.922 -0.3983  0.3903  1.0956
   79MOL    C8525201   7.874   5.502   6.946  0.3333 -0.0041 -0.0044
   79MOL    C8625202   7.759   5.484   6.846 -0.0628 -0.0550 -0.3038
   79MOL    C8725203   7.870   5.588   7.048  0.0026 -0.3582 -0.2335
   79MOL    H8825204   0.119   5.528   6.735 -0.5046 -0.9967  0.2025
   79MOL    H8925205   0.352   5.581   6.921  0.3839 -0.5582  0.1831
   79MOL    H9025206   0.189   5.673   6.928 -0.3729 -1.6549  0.5133
   79MOL    H9125207   0.301   5.677   6.796  1.8293  0.1945  1.5702
   79MOL    H9225208   0.072   5.314   6.891  1.9298  0.0171 -0.6513
   79MOL    H9325209   7.799   5.513   6.749  0.2778  0.3770 -0.0363
   79MOL    H9425210   7.680   5.555   6.871 -0.3285 -0.7507  0.8505
   79MOL    H9525211   7.724   5.381   6.842 -0.8898  0.1955  0.5076
   79MOL    H9625212   0.059   5.589   7.120 -0.5615 -0.3062  0.4112
   79MOL    H9725213   7.783   5.652   7.055 -0.9576 -1.4762 -1.6504
   79MOL    C9825214   0.201   5.379   7.048  0.5464  0.2335 -0.6334
   79MOL    C9925215   0.343   5.309   7.030 -0.4247 -0.0077 -0.0197
   79MOL   C10025216   0.117   5.313   7.175  0.1224  0.3063 -0.6825
   79MOL   C10125217   0.210   5.317   7.299  0.0456  0.4302  0.1330
   79MOL   C10225218   0.241   5.446   7.365 -0.0824 -1.0226  0.0492
   79MOL   C10325219   0.272   5.210   7.353  0.0385  0.0004 -0.2707
   79MOL   H10425220   0.229   5.474   7.093 -0.8437 -0.1728  1.1596
   79MOL   H10525221   0.411   5.376   6.976 -0.4383 -0.2584 -0.3468
   79MOL   H10625222   0.340   5.215   6.975  2.1345 -0.0568 -0.1393
   79MOL   H10725223   0.383   5.275   7.126  1.7127  0.8104 -0.5709
   79MOL   H10825224   0.038   5.382   7.205 -0.0352  0.2195 -0.9000
   79MOL   H10925225   0.269   5.529   7.300  0.8266 -0.4228  1.1925
   79MOL   H11025226   0.318   5.430   7.440  0.5983  1.1530 -0.1644
   79MOL   H11125227   0.153   5.474   7.424  0.6984  0.3379  0.5921
   79MOL   H11225228   0.259   5.112   7.310 -1.0460  1.1064 -2.5480
   79MOL   H11325229   0.341   5.225   7.434 -1.0532 -0.5713  0.7917
   79MOL   C11425230   0.051   5.174   7.161  0.2828  0.6206  0.6283
   79MOL   C11525231   0.120   5.081   7.056  0.9052 -0.1971  0.5367
   79MOL   C11625232   7.787   5.182   7.140  0.2032  1.1763 -0.1075
   79MOL   C11725233   7.713   5.265   7.245  0.1600 -0.3742 -0.1324
   79MOL   C11825234   7.588   5.346   7.202 -0.4296  0.1145 -0.1450
   79MOL   C11925235   7.769   5.287   7.367  0.1937  0.5941 -0.1588
   79MOL   H12025236   0.061   5.124   7.258  0.5279  1.5759  1.1081
   79MOL   H12125237   0.109   5.123   6.956 -0.7055  1.2464  1.2775
   79MOL   H12225238   0.086   4.978   7.064  0.9246 -0.2031  0.5323
   79MOL   H12325239   0.222   5.057   7.087  1.6853  2.8876  0.5044
   79MOL   H12425240   7.774   5.249   7.056  0.1809 -0.3796 -1.3611
   79MOL   H12525241   7.522   5.300   7.127 -0.9377 -2.1351  1.6217
   79MOL   H12625242   7.626   5.436   7.153  1.0787 -0.9360 -0.9622
   79MOL   H12725243   7.518   5.372   7.281 -0.0134  1.5642 -0.2335
   79MOL   H12825244   7.853   5.234   7.410  1.4606  0.5414 -2.6577
   79MOL   H12925245   7.725   5.357   7.438 -0.1500  0.1631  0.0545
   79MOL   C13025246   7.707   5.048   7.131 -0.0176 -0.4554 -0.0669
   79MOL   C13125247   7.762   4.949   7.234  0.4792 -0.6917  0.3871
   79MOL   C13225248   7.709   4.979   6.990  0.7005 -0.1672 -1.0091
   79MOL   C13325249   7.677   5.079   6.873 -0.5531  0.0434 -0.4926
   79MOL   C13425250   7.767   5.070   6.751 -0.0517 -0.3339 -0.4678
   79MOL   C13525251   7.579   5.170   6.880 -0.1728  0.1694 -0.2733
   79MOL   H13625252   7.604   5.070   7.162 -0.5269 -2.0443 -0.5710
   79MOL   H13725253   7.703   4.857   7.236 -0.8230  0.0421 -1.6781
   79MOL   H13825254   7.760   4.996   7.332  2.6891  1.1025 -0.3824
   79MOL   H13925255   7.863   4.913   7.218  0.0481 -1.3278 -1.0337
   79MOL   H14025256   7.812   4.965   6.957  0.9695  1.6089 -0.9238
   79MOL   H14125257   7.807   4.969   6.737  0.8666  0.2055 -1.9041
   79MOL   H14225258   7.846   5.141   6.776  0.1023 -0.8769  0.6438
   79MOL   H14325259   7.719   5.110   6.662  1.1737 -1.0764 -1.4842
   79MOL   H14425260   7.516   5.176   6.967  2.1490  1.2996  1.3914
   79MOL   H14525261   7.554   5.239   6.800 -0.5235 -0.3313 -0.6012
   79MOL   C14625262   7.616   4.851   6.959 -0.4732 -0.3837  0.9412
   79MOL   C14725263   7.479   4.875   7.015  0.3777  0.6169  0.5960
   79MOL   C14825264   7.669   4.708   6.988 -0.2446  0.7460  0.6172
   79MOL   C14925265   7.811   4.683   6.946  0.9417  0.4189 -0.1589
   79MOL   C15025266   0.009   4.641   7.057  0.2410 -0.5279  0.1234
   79MOL   C15125267   7.850   4.702   6.820 -0.3866 -0.4810  0.2328
   79MOL   H15225268   7.606   4.846   6.850  1.5658  0.0987  0.7060
   79MOL   H15325269   7.451   4.972   6.973 -1.7730 -1.1378 -2.2601
   79MOL   H15425270   7.467   4.867   7.123 -1.1220 -1.0489  0.3340
   79MOL   H15525271   7.402   4.805   6.982  1.7319  0.3222 -2.1312
   79MOL   H15625272   7.677   4.707   7.097  0.8430  2.3303  0.5634
   79MOL   H15725273   0.111   4.628   7.022  0.6838  2.9131 -0.0519
   79MOL   H15825274   7.874   4.548   7.108 -1.3926  0.0588  0.3433
   79MOL   H15925275   7.890   4.720   7.131  1.9149 -0.7656  0.6582
   79MOL   H16025276   7.778   4.727   6.744 -1.0206 -1.6916  0.4312
   79MOL   H16125277   0.061   4.691   6.790 -0.5431  2.3378 -1.5137
   79MOL   C16225278   7.576   4.587   6.947 -0.0374  0.2042  1.0833
   79MOL   C16325279   7.500   4.605   6.809 -0.8054  0.4645 -0.5080
   79MOL   C16425280   7.473   4.537   7.059 -0.2661 -0.2783  0.6132
   79MOL   C16525281   7.548   4.512   7.194  0.0038 -0.0444  1.1648
   79MOL   C16625282   7.632   4.390   7.196  0.5223 -0.6082  0.3801
   79MOL   C16725283   7.532   4.594   7.300  0.1003  0.0334  0.5265
   79MOL   H16825284   7.645   4.506   6.925  1.4594  1.1524  2.1938
   79MOL   H16925285   7.444   4.698   6.797  0.7158  1.4216 -0.3762
   79MOL   H17025286   7.429   4.524   6.790 -0.2712 -0.6972  2.1423
   79MOL   H17125287   7.572   4.602   6.728  0.1419 -1.6845  0.3573
   79MOL   H17225288   7.413   4.628   7.070  1.1592  0.8702 -0.7908
   79MOL   H17325289   7.697   4.389   7.284 -2.3360 -1.0814  2.5582
   79MOL   H17425290   7.708   4.382   7.119  0.5126  0.4426  0.2555
   79MOL   H17525291   7.572   4.299   7.197 -1.6340  0.7797  1.5632
   79MOL   H17625292   7.476   4.683   7.277 -0.0819 -0.1782  0.1486
   79MOL   H17725293   7.584   4.577   7.393  0.7456  0.7285  0.2984
   79MOL   C17825294   7.381   4.416   7.025 -0.1573 -0.5134 -0.8057
   79MOL   C17925295   7.450   4.304   6.948  0.6031  0.3498 -0.3667
   79MOL   C18025296   7.230   4.463   6.984  0.6285  0.0344  0.4175
   79MOL   C18125297   7.161   4.514   7.114  0.9144  0.6772 -0.1130
   79MOL   C18225298   7.108   4.407   7.211 -0.2246  0.1663 -0.5807
   79MOL   C18325299   7.143   4.643   7.146 -0.2621  0.6821 -0.5399
   79MOL   H18425300   7.370   4.357   7.116  1.7619  0.9440  0.4062
   79MOL   H18525301   7.553   4.297   6.982  0.8197 -1.5475 -1.3096
   79MOL   H18625302   7.457   4.318   6.840 -2.9064  2.3571 -0.3957
   79MOL   H18725303   7.399   4.208   6.946 -1.3619  1.3320  1.0337
   79MOL   H18825304   7.247   4.552   6.923  1.1013  0.7153  1.5253
   79MOL   H18925305   7.001   4.401   7.228 -0.4756  3.1862 -0.7870
   79MOL   H19025306   7.157   4.426   7.307  0.3840  1.3872 -1.1183
   79MOL   H19125307   7.148   4.313   7.172 -3.0643 -0.6477 -1.6079
   79MOL   H19225308   7.170   4.729   7.088 -0.0486  2.0045  1.4593
   79MOL   H19325309   7.088   4.659   7.238  0.8316  1.1191  0.0461
   79MOL   C19425310   7.132   4.377   6.889 -0.4741  0.7160 -0.0082
   79MOL   C19525311   7.193   4.325   6.753  0.6238  0.3855 -0.9560
   79MOL   C19625312   6.985   4.430   6.869 -0.5742 -0.4510  0.4197
   79MOL   C19725313   6.884   4.317   6.899 -1.1238  0.3491 -0.3880
   79MOL   C19825314   6.892   4.192   6.817 -0.0638 -0.1344  0.6011
   79MOL   C19925315   6.797   4.321   6.999 -0.6471  0.1130 -0.2681
   79MOL   H20025316   7.119   4.290   6.954  2.2590 -0.8301 -1.4203
   79MOL   H20125317   7.242   4.396   6.687  0.8607 -1.9158 -3.3405
   79MOL   H20225318   7.124   4.267   6.691  2.8688 -1.6534 -1.6336
   79MOL   H20325319   7.276   4.257   6.773  0.2356 -0.4019 -1.9484
   79MOL   H20425320   6.964   4.506   6.945  4.8649  0.3912  1.2314
   79MOL   H20525321   6.893   4.226   6.714 -2.5308 -0.6225  0.3844
   79MOL   H20625322   6.803   4.130   6.832  0.7969 -1.3346  0.7371
   79MOL   H20725323   6.987   4.145   6.840  0.5094 -0.3305 -2.0601
   79MOL   H20825324   6.789   4.402   7.070 -2.7797 -0.1258 -0.1893
   79MOL   H20925325   6.739   4.232   7.015  0.1189 -0.2094  0.7523
   79MOL   C21025326   6.949   4.501   6.735 -0.1179  0.0608  0.2522
   79MOL   C21125327   7.044   4.625   6.702  0.5430  0.6070  0.1900
   79MOL   C21225328   6.803   4.548   6.719  0.6241  0.2548  0.1686
   79MOL   C21325329   6.763   4.523   6.577  0.3443  0.0065 -0.6722
   79MOL   C21425330   6.685   4.394   6.560  0.2269 -0.0148  0.3588
   79MOL   C21525331   6.791   4.602   6.472  0.0683  0.4053  0.2036
   79MOL   H21625332   6.971   4.426   6.659 -0.0078  0.5965 -0.2482
   79MOL   H21725333   7.018   4.686   6.616  0.1704  1.4670  0.9083
   79MOL   H21825334   7.144   4.590   6.677  1.1898  2.0682  0.6701
   79MOL   H21925335   7.054   4.688   6.790 -1.0817  0.2754  0.6151
   79MOL   H22025336   6.726   4.482   6.760  0.4657 -0.5600 -1.3712
   79MOL   H22125337   6.749   4.317   6.604  2.0924  0.7247 -0.9787
   79MOL   H22225338   6.674   4.363   6.456  2.2972  0.6140 -0.0851
   79MOL   H22325339   6.588   4.383   6.609  0.8945 -3.0661  1.1312
   79MOL   H22425340   6.843   4.694   6.493  0.2193  1.1682 -3.2554
   79MOL   H22525341   6.759   4.578   6.371  0.3792  1.5923 -0.1859
   79MOL   C22625342   6.770   4.690   6.772 -0.2447  0.0307 -0.2975
   79MOL   C22725343   6.768   4.701   6.927  0.0513 -0.1351 -0.1885
   79MOL   C22825344   6.630   4.747   6.711  0.1427  0.0169  0.2548
   79MOL   C22925345   6.648   4.895   6.672 -0.0543 -0.1610 -0.3067
   79MOL   C23025346   6.665   4.988   6.783  0.3074 -0.0354 -0.2190
   79MOL   C23125347   6.667   4.946   6.550  0.3468  0.3187 -0.4742
   79MOL   H23225348   6.848   4.755   6.732 -0.2066  0.2916  0.1908
   79MOL   H23325349   6.719   4.610   6.960 -1.6202  0.2048 -1.6023
   79MOL   H23425350   6.711   4.784   6.970 -0.5558  0.0965 -1.4109
   79MOL   H23525351   6.873   4.712   6.955 -0.3561  0.8184  1.0056
   79MOL   H23625352   6.622   4.718   6.606 -1.5810  0.5549  0.2235
   79MOL   H23725353   6.581   4.993   6.852  0.8297 -2.2298  0.6164
   79MOL   H23825354   6.668   5.089   6.742 -3.6228 -0.9795 -3.0887
   79MOL   H23925355   6.752   4.962   6.843  0.5105  1.7294  0.2770
   79MOL   H24025356   6.679   4.872   6.472 -2.3912 -0.8198  0.1224
   79MOL   H24125357   6.670   5.052   6.531  1.9559  1.2304  4.1924
   79MOL   C24225358   6.493   4.719   6.776 -0.2165  0.2142 -0.3185
   79MOL   C24325359   6.472   4.577   6.829  0.5499 -0.3634  0.0298
   79MOL   C24425360   6.368   4.770   6.692 -0.1831 -0.5651  0.2728
   79MOL   C24525361   6.266   4.828   6.790  0.1934  0.4858  0.4103
   79MOL   C24625362   6.288   4.970   6.832  0.6207 -0.4532  0.7730
   79MOL   C24725363   6.163   4.752   6.841  0.4499  0.0072  0.3330
   79MOL   H24825364   6.499   4.774   6.869  0.1444  0.7297 -0.6424
   79MOL   H24925365   6.370   4.572   6.867  0.1626 -0.4614 -1.0058
   79MOL   H25025366   6.533   4.540   6.911 -1.3384  0.3933  1.8348
   79MOL   H25125367   6.463   4.519   6.738 -1.7355  0.6780 -0.4501
   79MOL   H25225368   6.409   4.857   6.640  1.3819  0.6656  3.4013
   79MOL   H25325369   6.202   4.997   6.893 -0.7311 -1.8659 -0.4889
   79MOL   H25425370   6.299   5.040   6.750 -1.4593 -1.7053 -0.6236
   79MOL   H25525371   6.369   4.967   6.905  0.3877 -2.9874  0.9878
   79MOL   H25625372   6.137   4.651   6.815 -2.6166 -0.3694  4.3541
   79MOL   H25725373   6.103   4.793   6.921 -0.1529  1.1374 -0.6734
   79MOL   C25825374   6.310   4.670   6.581 -0.5432 -0.5563 -0.9904
   79MOL   C25925375   6.408   4.609   6.482 -0.0823  0.9980  0.9907
   79MOL   C26025376   6.178   4.725   6.511 -0.1613 -0.8282 -0.2350
   79MOL   C26125377   6.074   4.616   6.491 -0.8921 -0.2931 -0.6010
   79MOL   C26225378   6.089   4.516   6.370  0.7613 -0.5550  0.1895
   79MOL   C26325379   5.975   4.601   6.576  0.1141  0.2293 -0.1366
   79MOL   H26425380   6.276   4.583   6.636 -0.7473  0.0642 -0.1362
   79MOL   H26525381   6.497   4.569   6.532 -0.0586  0.9363  0.9008
   79MOL   H26625382   6.445   4.682   6.409  0.1591 -0.4831 -0.4143
   79MOL   H26725383   6.368   4.523   6.428  0.1156  2.7621 -2.1080
   79MOL   H26825384   6.132   4.794   6.581  1.4227 -2.0006  2.0052
   79MOL   H26925385   6.059   4.424   6.420 -2.3128  0.1980 -0.1610
   79MOL   H27025386   6.189   4.503   6.328 -0.0194 -1.6475 -1.4014
   79MOL   H27125387   6.024   4.552   6.290  0.7067 -0.1305  0.4251
   79MOL   H27225388   5.959   4.667   6.659  0.5907 -1.1412  1.0795
   79MOL   H27325389   5.898   4.528   6.553 -0.0888  1.0051 -1.9573
   79MOL   C27425390   6.195   4.809   6.374  0.0545 -0.4805  1.1477
   79MOL   C27525391   6.292   4.929   6.394 -0.9968  0.4806 -0.4518
   79MOL   C27625392   6.070   4.847   6.283 -0.4586 -0.3937  0.3532
   79MOL   C27725393   6.118   4.849   6.136  0.2299 -0.2844  0.2303
   79MOL   C27825394   6.130   4.719   6.060  0.5329  0.8203  0.6407
   79MOL   C27925395   6.141   4.963   6.066 -0.3200 -0.5935  0.7106
   79MOL   H28025396   6.249   4.744   6.305  0.3435  0.0676  0.8570
   79MOL   H28125397   6.303   4.976   6.296 -1.7073  0.3318 -0.6060
   79MOL   H28225398   6.391   4.902   6.429 -0.7354  0.7423 -0.9721
   79MOL   H28325399   6.246   5.006   6.456  0.2849  0.9678 -0.0954
   79MOL   H28425400   6.009   4.757   6.285 -1.2163  0.1069 -0.0332
   79MOL   H28525401   6.034   4.669   6.054  1.4295 -0.9166  0.4365
   79MOL   H28625402   6.192   4.641   6.104  0.1999 -0.2192 -0.6844
   79MOL   H28725403   6.155   4.734   5.954  0.2981 -2.9495 -0.0300
   79MOL   H28825404   6.145   5.053   6.127  1.9440 -0.6798  0.7252
   79MOL   H28925405   6.153   4.978   5.960  1.4037 -2.4094  0.6319
   79MOL   C29025406   5.981   4.971   6.320 -0.0639  0.2478 -0.4683
   79MOL   C29125407   5.954   4.978   6.477  0.4042 -0.0819 -0.5090
   79MOL   C29225408   5.846   4.984   6.229  0.1405  0.4288 -0.4446
   79MOL   C29325409   5.820   5.132   6.204  0.1139 -0.0607  0.4190
   79MOL   C29425410   5.770   5.221   6.324  0.0894  0.0955  0.0785
   79MOL   C29525411   5.845   5.186   6.084 -0.3257  0.3962 -0.2294
   79MOL   H29625412   6.047   5.055   6.298 -0.1276  0.1883 -0.8873
   79MOL   H29725413   5.896   5.066   6.504  0.1711 -0.3054 -0.2871
   79MOL   H29825414   6.043   5.005   6.534 -0.5841  1.3926  0.3798
   79MOL   H29925415   5.899   4.900   6.529  0.3773  2.0445  2.7744
   79MOL   H30025416   5.873   4.945   6.131  0.2125  0.1405 -0.3124
   79MOL   H30125417   5.840   5.294   6.365  0.0041  1.0997 -1.5077
   79MOL   H30225418   5.726   5.159   6.401  0.6089 -1.1774 -0.6309
   79MOL   H30325419   5.688   5.283   6.287  0.8480  0.8978 -0.2769
   79MOL   H30425420   5.875   5.116   6.008 -0.9515  0.7518 -0.8116
   79MOL   H30525421   5.830   5.292   6.070 -2.8039 -0.1603 -2.0958
   79MOL   C30625422   5.722   4.897   6.271 -0.3456  0.8680  1.1636
   79MOL   C30725423   5.735   4.750   6.257 -0.2802  0.5004 -0.3401
   79MOL   C30825424   5.591   4.934   6.192 -1.2358 -0.5143  0.6583
   79MOL   C30925425   5.460   4.900   6.262  0.1932  0.5987  0.7053
   79MOL   C31025426   5.411   4.994   6.378 -0.1797  0.7931  0.4237
   79MOL   C31125427   5.384   4.808   6.202 -0.3753  0.3349  0.0758
   79MOL   H31225428   5.709   4.927   6.375  0.9550  1.1394  1.2492
   79MOL   H31325429   5.643   4.703   6.293 -1.4861  2.7123 -0.4371
   79MOL   H31425430   5.813   4.712   6.323 -0.0472  2.1398  0.3512
   79MOL   H31525431   5.750   4.712   6.156  0.4245 -0.5977  0.1666
   79MOL   H31625432   5.581   5.040   6.169  2.2319 -0.6057 -1.7165
   79MOL   H31725433   5.313   4.961   6.413 -0.5926  1.1771 -0.3497
   79MOL   H31825434   5.400   5.094   6.336 -0.3837  0.4231 -0.4201
   79MOL   H31925435   5.474   4.986   6.466  2.4327  1.4681 -1.3288
   79MOL   H32025436   5.426   4.747   6.123 -0.1324 -2.4077  2.2372
   79MOL   H32125437   5.280   4.787   6.219 -0.2698 -1.3923 -1.2770
   79MOL   H32225438   5.596   4.894   6.091 -1.6204 -1.1019  0.8670
   80MOL     C125439   1.471   3.310   5.696 -0.8895  0.3350 -0.0665
   80MOL     C225440   1.552   3.414   5.780  0.0415  0.1532  0.4586
   80MOL     C325441   1.405   3.204   5.783  0.1823 -0.0477  0.2978
   80MOL     C425442   1.500   3.143   5.893 -0.0330 -0.3793  0.0481
   80MOL     C525443   1.620   3.063   5.852  0.0597 -0.4267  0.2220
   80MOL     C625444   1.488   3.182   6.019  0.1461  0.2374  0.1710
   80MOL     H725445   1.397   3.371   5.644  0.4759  0.9966 -1.2456
   80MOL     H825446   1.624   3.357   5.839 -1.0546 -1.9406 -0.1623
   80MOL     H925447   1.491   3.490   5.828  3.2341  3.1522 -0.0084
   80MOL    H1025448   1.618   3.482   5.726  3.0481 -1.9490  1.3098
   80MOL    H1125449   1.339   3.266   5.843 -2.5198 -2.2734 -0.2804
   80MOL    H1225450   1.678   3.122   5.781 -0.6789 -0.2190 -0.2160
   80MOL    H1325451   1.587   2.971   5.802 -2.5240  1.3635 -1.5177
   80MOL    H1425452   1.685   3.031   5.932 -2.1880 -1.0236  1.8632
   80MOL    H1525453   1.407   3.250   6.042  1.6213  1.5203  1.6855
   80MOL    H1625454   1.554   3.155   6.101 -0.7335 -2.2241  0.1391
   80MOL    H1725455   1.541   3.267   5.624  0.1406 -0.1196  1.1965
   80MOL    C1825456   1.326   3.103   5.697 -0.7621 -0.0683 -0.7280
   80MOL    C1925457   1.203   3.172   5.615 -0.0909 -0.0301 -0.1797
   80MOL    C2025458   1.284   2.972   5.776 -0.0689 -0.6688 -0.2388
   80MOL    C2125459   1.312   2.845   5.691 -0.4317 -0.0926  0.0485
   80MOL    C2225460   1.235   2.823   5.558 -0.4883  0.1437 -0.7595
   80MOL    C2325461   1.413   2.760   5.724 -0.1583  0.2983  0.3746
   80MOL    H2425462   1.392   3.071   5.617  0.6076  1.1250 -0.1003
   80MOL    H2525463   1.147   3.095   5.561  0.6299 -0.7488  0.0693
   80MOL    H2625464   1.230   3.255   5.550  1.4055 -0.9337 -0.7545
   80MOL    H2725465   1.125   3.214   5.678  1.2980  0.5076  1.2263
   80MOL    H2825466   1.359   2.953   5.852  0.6898 -0.0486 -0.8293
   80MOL    H2925467   1.259   2.724   5.520  0.9822 -0.4298  1.5376
   80MOL    H3025468   1.257   2.904   5.489 -0.2962 -0.4853 -1.4395
   80MOL    H3125469   1.129   2.817   5.582 -0.5369 -0.8711 -1.2136
   80MOL    H3225470   1.476   2.770   5.811  0.4738  1.1955 -0.1714
   80MOL    H3325471   1.443   2.681   5.656  0.1658  1.6114 -1.0275
   80MOL    C3425472   1.144   2.980   5.843 -0.1173  0.3922 -0.0262
   80MOL    C3525473   1.113   3.107   5.929 -0.1240  0.6136  0.3560
   80MOL    C3625474   1.095   2.851   5.914 -0.0715 -0.3601 -0.3844
   80MOL    C3725475   0.940   2.827   5.897 -0.5693 -0.0683 -0.5800
   80MOL    C3825476   0.843   2.891   5.992  0.1349 -0.0278 -0.1035
   80MOL    C3925477   0.894   2.750   5.796  0.0184  0.3155 -0.9993
   80MOL    H4025478   1.083   3.003   5.756  1.0666  0.3526 -0.8785
   80MOL    H4125479   1.170   3.111   6.022 -0.3534 -0.0333  0.5280
   80MOL    H4225480   1.008   3.124   5.952 -0.5780 -0.4772 -0.9121
   80MOL    H4325481   1.141   3.203   5.885  0.9604  0.2159  0.1664
   80MOL    H4425482   1.130   2.774   5.846  2.1325  0.1012  0.1798
   80MOL    H4525483   0.873   2.890   6.097  0.6649  1.2254 -0.2478
   80MOL    H4625484   0.758   2.830   5.960  2.7189 -2.8600 -1.8800
   80MOL    H4725485   0.819   2.989   5.952  2.1293  0.1480 -0.8817
   80MOL    H4825486   0.960   2.700   5.727  1.8053  1.0164  0.1586
   80MOL    H4925487   0.788   2.731   5.788  0.3073 -2.4862  0.9360
   80MOL    C5025488   1.143   2.821   6.065  0.4964 -0.3904  0.1750
   80MOL    C5125489   1.292   2.842   6.095  0.1208  0.4230 -0.2645
   80MOL    C5225490   1.084   2.687   6.139 -0.9708  0.1141  0.0577
   80MOL    C5325491   1.079   2.705   6.297  0.0348 -0.0372  0.1849
   80MOL    C5425492   0.942   2.745   6.357 -0.4729 -0.2184 -0.9430
   80MOL    C5525493   1.188   2.680   6.374  0.0744  0.1181 -0.5469
   80MOL    H5625494   1.091   2.901   6.118  1.3728  0.0520  0.3810
   80MOL    H5725495   1.313   2.832   6.202  1.7129 -1.1069 -0.6968
   80MOL    H5825496   1.323   2.940   6.059  0.0113 -0.6923 -3.5659
   80MOL    H5925497   1.348   2.764   6.043 -0.5449 -0.9767  1.0689
   80MOL    H6025498   0.982   2.676   6.103 -1.3026 -2.5162  1.6229
   80MOL    H6125499   0.857   2.741   6.289  0.5074 -2.9920 -2.0812
   80MOL    H6225500   0.951   2.848   6.393  1.0777 -0.2261 -1.2564
   80MOL    H6325501   0.916   2.682   6.442 -0.7197  1.8142  0.5480
   80MOL    H6425502   1.281   2.641   6.335  0.0669 -0.7440  0.2939
   80MOL    H6525503   1.188   2.702   6.479 -1.2672  0.6868 -0.6616
   80MOL    C6625504   1.147   2.548   6.103  0.1322 -0.4429  0.5023
   80MOL    C6725505   1.157   2.524   5.949  0.2381  0.7176 -0.0064
   80MOL    C6825506   1.096   2.423   6.185  0.3545 -0.6609  0.0687
   80MOL    C6925507   1.215   2.344   6.230  0.5307  0.4321 -1.2599
   80MOL    C7025508   1.292   2.261   6.134 -0.5608 -0.1181  0.4973
   80MOL    C7125509   1.239   2.338   6.361  0.2640  0.0475  0.3927
   80MOL    H7225510   1.249   2.566   6.135 -0.8125 -0.9642  4.0597
   80MOL    H7325511   1.188   2.425   5.915  0.7563 -0.0818  2.7074
   80MOL    H7425512   1.242   2.582   5.913  1.5836 -1.9233 -1.2597
   80MOL    H7525513   1.065   2.540   5.894  1.2841  2.0107 -1.4283
   80MOL    H7625514   1.050   2.463   6.276  0.4432 -0.0929 -0.1353
   80MOL    H7725515   1.326   2.318   6.048  1.4450 -0.4588  1.0463
   80MOL    H7825516   1.235   2.176   6.097  2.5261 -2.1393  0.1934
   80MOL    H7925517   1.375   2.217   6.190 -2.2353 -0.9876  2.3801
   80MOL    H8025518   1.187   2.399   6.433 -1.3558  0.8015 -1.3735
   80MOL    H8125519   1.319   2.275   6.399  1.1565  0.5176 -0.6584
   80MOL    C8225520   0.981   2.336   6.120 -0.5088 -0.4747 -0.6145
   80MOL    C8325521   0.867   2.426   6.071 -0.5820 -0.3561  0.4538
   80MOL    C8425522   0.937   2.200   6.181  0.0208 -0.4467  0.4075
   80MOL    C8525523   0.902   2.099   6.077 -0.4047 -0.2993  0.8560
   80MOL    C8625524   1.013   2.005   6.032  0.3178 -0.3933 -0.1014
   80MOL    C8725525   0.779   2.088   6.032 -0.0242  0.3976 -0.5624
   80MOL    H8825526   1.032   2.306   6.029  1.7759 -3.0220  1.4083
   80MOL    H8925527   0.887   2.493   5.987 -1.3599  0.9842  1.3132
   80MOL    H9025528   0.818   2.486   6.148  0.3139 -2.0407  2.3600
   80MOL    H9125529   0.795   2.364   6.017 -0.0720  0.1472 -0.8318
   80MOL    H9225530   1.035   2.158   6.206 -0.6742 -2.9063 -0.8205
   80MOL    H9325531   1.040   1.946   6.119 -0.3311  2.0958  1.8631
   80MOL    H9425532   1.103   2.050   5.990  0.3234  0.4976  0.8612
   80MOL    H9525533   0.979   1.926   5.966  0.4100 -2.8064  2.6385
   80MOL    H9625534   0.694   2.145   6.065 -1.7773 -3.7083  2.5604
   80MOL    H9725535   0.753   2.008   5.964  0.0459  0.8700 -1.1430
   80MOL    C9825536   0.846   2.195   6.312  0.4866 -0.0480 -0.0525
   80MOL    C9925537   0.894   2.294   6.413  0.7322 -0.2187  0.1786
   80MOL   C10025538   0.813   2.046   6.366  0.1339  0.3798 -0.0520
   80MOL   C10125539   0.667   2.053   6.421  0.5619 -0.3429  0.2226
   80MOL   C10225540   0.560   1.988   6.337 -0.4369  0.3202  0.0108
   80MOL   C10325541   0.630   2.097   6.542 -0.0991 -0.0569 -0.4696
   80MOL   H10425542   0.749   2.234   6.281 -0.0437  0.5297  2.1851
   80MOL   H10525543   0.820   2.293   6.494 -1.2825 -2.9557 -1.6090
   80MOL   H10625544   0.891   2.400   6.388  1.7268 -0.0524  0.7237
   80MOL   H10725545   0.993   2.274   6.455  0.5333  2.1031  1.8800
   80MOL   H10825546   0.804   1.988   6.275 -1.0851  1.3426 -0.5657
   80MOL   H10925547   0.592   1.885   6.321 -0.6780 -0.1058  2.0937
   80MOL   H11025548   0.575   2.036   6.240  1.5537 -0.5886 -0.1738
   80MOL   H11125549   0.460   1.998   6.378 -1.4166 -1.1101 -1.9563
   80MOL   H11225550   0.701   2.137   6.612 -0.4936 -1.1162  0.5500
   80MOL   H11325551   0.526   2.098   6.572 -0.5681  0.2127 -2.0606
   80MOL   C11425552   0.913   1.983   6.459 -0.0811 -0.4034 -0.2826
   80MOL   C11525553   1.061   1.983   6.414 -0.1631  0.3508  0.3004
   80MOL   C11625554   0.864   1.852   6.529 -0.0963  0.8015 -0.7895
   80MOL   C11725555   0.890   1.851   6.682 -0.6360  0.1769 -0.9845
   80MOL   C11825556   1.038   1.865   6.727  0.8074 -0.8418  0.6905
   80MOL   C11925557   0.790   1.853   6.778 -0.7395  0.1237 -0.3105
   80MOL   H12025558   0.924   2.051   6.544  0.2571  0.6898 -1.1871
   80MOL   H12125559   1.114   2.077   6.398  0.5410 -0.0153  0.4639
   80MOL   H12225560   1.079   1.926   6.322 -1.8040  1.5284 -0.7785
   80MOL   H12325561   1.130   1.931   6.480 -1.2779  1.2131  2.1744
   80MOL   H12425562   0.756   1.860   6.534 -0.3495 -0.9538 -2.7941
   80MOL   H12525563   1.051   1.854   6.834 -1.7673 -1.0699  0.9979
   80MOL   H12625564   1.067   1.964   6.692 -1.7620 -0.6922 -1.1367
   80MOL   H12725565   1.109   1.790   6.691  3.1108  0.5584  2.1778
   80MOL   H12825566   0.683   1.860   6.770 -0.5426  1.6211 -1.9199
   80MOL   H12925567   0.822   1.846   6.882 -0.0797 -1.3087 -0.5917
   80MOL   C13025568   0.905   1.714   6.467 -0.3886 -0.1364  0.3681
   80MOL   C13125569   0.877   1.694   6.322 -0.0689  0.5072  0.6338
   80MOL   C13225570   0.869   1.580   6.545  0.0009  0.0022 -0.1059
   80MOL   C13325571   0.991   1.481   6.525 -0.0430 -0.0721 -0.1872
   80MOL   C13425572   1.103   1.490   6.629 -0.2013  0.5340 -0.6044
   80MOL   C13525573   0.998   1.386   6.431  0.0895 -0.3065 -0.4880
   80MOL   H13625574   1.013   1.720   6.461 -0.5554  0.6260 -2.4589
   80MOL   H13725575   0.769   1.679   6.316 -0.1921  0.7509  2.0490
   80MOL   H13825576   0.926   1.607   6.278 -1.2715  1.0655 -1.9465
   80MOL   H13925577   0.913   1.780   6.265  0.6066  0.3952  0.8903
   80MOL   H14025578   0.875   1.604   6.651  0.5529  0.7007 -0.2901
   80MOL   H14125579   1.186   1.426   6.599  1.5485  2.5623 -0.2884
   80MOL   H14225580   1.069   1.463   6.729 -1.7943 -1.1539 -1.5943
   80MOL   H14325581   1.137   1.594   6.638 -1.6994  0.8364  1.9188
   80MOL   H14425582   0.924   1.379   6.352 -0.7510  3.9374 -0.2095
   80MOL   H14525583   1.080   1.316   6.422  0.2639 -0.0963 -0.5345
   80MOL   C14625584   0.731   1.515   6.517  0.0573  0.2708 -0.0661
   80MOL   C14725585   0.609   1.619   6.509 -0.2110  0.1494  0.1590
   80MOL   C14825586   0.688   1.395   6.607 -0.1286  0.5634 -0.4870
   80MOL   C14925587   0.760   1.390   6.744  0.3156  0.2700 -0.4547
   80MOL   C15025588   0.723   1.500   6.843 -0.1976  0.9676 -0.1466
   80MOL   C15125589   0.855   1.305   6.780  0.4805  0.1917  0.0262
   80MOL   H15225590   0.752   1.480   6.416 -0.1255  0.3313 -0.1265
   80MOL   H15325591   0.515   1.564   6.503  0.1930 -0.4585 -0.6490
   80MOL   H15425592   0.607   1.692   6.428  0.4284 -0.5889 -0.5259
   80MOL   H15525593   0.613   1.676   6.602  1.2918 -0.4992  0.5065
   80MOL   H15625594   0.586   1.406   6.646 -0.1445  2.6205 -1.0219
   80MOL   H15725595   0.618   1.479   6.865  0.0659 -1.2584 -0.8536
   80MOL   H15825596   0.729   1.595   6.791 -0.9979  0.5238 -1.0741
   80MOL   H15925597   0.770   1.499   6.941  0.1575 -3.0296 -0.2584
   80MOL   H16025598   0.873   1.231   6.703 -1.5047 -0.9454  0.6198
   80MOL   H16125599   0.902   1.304   6.877 -0.5480  1.1407  0.5458
   80MOL   C16225600   0.674   1.252   6.537 -0.4224 -1.3214  0.7215
   80MOL   C16325601   0.619   1.262   6.396  0.2756  0.2780 -0.1351
   80MOL   C16425602   0.602   1.138   6.621  0.3991 -0.2026 -0.0749
   80MOL   C16525603   0.677   1.006   6.596 -0.1628  0.4245  0.8750
   80MOL   C16625604   0.652   0.946   6.459 -0.4258 -0.3894  0.0368
   80MOL   C16725605   0.758   0.938   6.673  0.3427  0.1425  0.3894
   80MOL   H16825606   0.770   1.221   6.496 -0.0143 -0.3848  0.9376
   80MOL   H16925607   0.543   1.340   6.394 -0.3495 -0.3147  0.3569
   80MOL   H17025608   0.570   1.171   6.361 -1.1214  0.6735  0.7481
   80MOL   H17125609   0.696   1.272   6.319 -1.4914  0.9288 -1.8463
   80MOL   H17225610   0.618   1.154   6.727  2.9870  0.6170 -0.5474
   80MOL   H17325611   0.709   0.990   6.377 -0.3921  0.4438  0.5062
   80MOL   H17425612   0.551   0.971   6.425  0.3900  1.3286 -1.1879
   80MOL   H17525613   0.657   0.837   6.454 -2.1955 -0.4942  0.3616
   80MOL   H17625614   0.783   0.977   6.770 -0.0931  0.2465  0.4580
   80MOL   H17725615   0.803   0.843   6.647 -1.7918 -0.3805 -1.5876
   80MOL   C17825616   0.444   1.134   6.615  0.7468 -0.3169 -0.4512
   80MOL   C17925617   0.372   1.268   6.652 -0.4458 -0.0857 -0.6386
   80MOL   C18025618   0.365   1.007   6.681 -0.0835 -0.9950 -0.2107
   80MOL   C18125619   0.245   0.978   6.587 -0.6542  0.2936 -0.5396
   80MOL   C18225620   0.278   0.884   6.469 -0.6541 -0.0400  0.5255
   80MOL   C18325621   0.125   1.038   6.604  0.3276 -0.1154 -0.0342
   80MOL   H18425622   0.414   1.135   6.510  1.1033  0.9374 -0.5396
   80MOL   H18525623   0.264   1.254   6.657 -0.6079  0.3855 -2.6050
   80MOL   H18625624   0.384   1.333   6.566 -1.1991  1.4640  0.4025
   80MOL   H18725625   0.402   1.312   6.747  0.3345  0.4893 -1.1443
   80MOL   H18825626   0.426   0.917   6.676  3.0752  1.0419  0.4776
   80MOL   H18925627   0.327   0.941   6.390  0.2680 -0.1839  0.9864
   80MOL   H19025628   0.184   0.846   6.432  0.2038 -1.5069 -0.1753
   80MOL   H19125629   0.338   0.799   6.500  0.4782 -0.1069 -1.7578
   80MOL   H19225630   0.109   1.101   6.690  2.0750 -1.6671  1.4770
   80MOL   H19325631   0.049   1.032   6.528  0.6142  1.0527 -0.4278
   80MOL   C19425632   0.327   1.027   6.835  0.0618 -0.1666  0.8092
   80MOL   C19525633   0.454   1.062   6.908 -0.4631 -0.3689  0.3502
   80MOL   C19625634   0.242   0.908   6.906  0.0579  0.1272  0.2846
   80MOL   C19725635   0.130   0.966   7.000 -0.4988  0.1483  0.6117
   80MOL   C19825636   0.181   1.024   7.133  0.3267 -0.1250  0.2489
   80MOL   C19925637   0.000   0.959   6.970  0.0148  0.2208  0.6247
   80MOL   H20025638   0.273   1.121   6.843  1.4935  0.9106 -1.7145
   80MOL   H20125639   0.534   0.998   6.870 -1.3006 -0.4573 -1.3152
   80MOL   H20225640   0.453   1.049   7.016  0.7702 -0.8407  0.3063
   80MOL   H20325641   0.488   1.163   6.886  1.2920 -1.2307 -0.9492
   80MOL   H20425642   0.201   0.874   6.811 -2.1710  2.6898  0.2510
   80MOL   H20525643   0.224   0.952   7.202  1.6832 -2.0045 -2.4640
   80MOL   H20625644   0.095   1.069   7.181 -1.3132 -1.3910 -1.4495
   80MOL   H20725645   0.252   1.103   7.107 -0.4293  0.0269 -1.4343
   80MOL   H20825646   7.863   0.909   6.879 -3.1596  0.3840  1.5226
   80MOL   H20925647   7.822   0.996   7.044  0.4770 -0.1355  1.2516
   80MOL   C21025648   0.322   0.782   6.961  0.5954 -0.1273  0.3338
   80MOL   C21125649   0.434   0.736   6.871 -0.1147 -0.1970  0.0495
   80MOL   C21225650   0.222   0.662   7.007 -0.2464  0.1895  1.2921
   80MOL   C21325651   0.244   0.628   7.153 -0.3082  0.0895  1.0694
   80MOL   C21425652   0.383   0.574   7.182 -0.0953 -0.2922 -0.5595
   80MOL   C21525653   0.156   0.663   7.252 -0.5071  0.0108 -0.1316
   80MOL   H21625654   0.369   0.818   7.052  0.6749 -0.1038  0.2833
   80MOL   H21725655   0.473   0.646   6.920  3.1397  2.0513  1.7916
   80MOL   H21825656   0.522   0.798   6.856 -0.6305  0.1331 -1.7123
   80MOL   H21925657   0.402   0.704   6.772  0.3546 -0.6403  0.0380
   80MOL   H22025658   0.127   0.715   7.008 -0.3949 -0.0531  0.5631
   80MOL   H22125659   0.392   0.478   7.132  2.8054 -1.2540  1.6824
   80MOL   H22225660   0.392   0.552   7.288 -2.4711  1.2108 -0.0099
   80MOL   H22325661   0.462   0.642   7.151 -0.4213  0.0381 -0.6714
   80MOL   H22425662   0.057   0.698   7.225 -0.9458 -1.2205 -0.1346
   80MOL   H22525663   0.181   0.640   7.354 -0.9068 -2.2732 -0.5165
   80MOL   C22625664   0.184   0.540   6.909 -0.0117  0.2275 -0.1273
   80MOL   C22725665   0.124   0.591   6.779 -0.5586  0.5622  0.0736
   80MOL   C22825666   0.108   0.415   6.977 -0.3651 -0.0715  0.0521
   80MOL   C22925667   0.193   0.288   6.947 -0.3890  0.4718 -0.5006
   80MOL   C23025668   0.219   0.246   6.798  0.1651 -0.3811 -0.6782
   80MOL   C23125669   0.251   0.223   7.051 -0.1275 -0.3458  0.2750
   80MOL   H23225670   0.282   0.497   6.890 -0.0716  0.1650 -0.2966
   80MOL   H23325671   0.108   0.517   6.700 -0.7683  0.0815  0.5562
   80MOL   H23425672   0.188   0.661   6.726 -1.2296  2.6412  1.9188
   80MOL   H23525673   0.031   0.641   6.805 -0.3555  1.4503 -0.8881
   80MOL   H23625674   0.118   0.426   7.085  0.7151 -0.0987 -0.0332
   80MOL   H23725675   0.264   0.147   6.788  0.6176 -0.6401  3.0482
   80MOL   H23825676   0.291   0.308   6.746  0.4654 -1.8547 -2.0349
   80MOL   H23925677   0.130   0.243   6.736 -1.5980 -1.3746  1.7856
   80MOL   H24025678   0.235   0.256   7.152 -1.3757  0.0391 -0.0395
   80MOL   H24125679   0.318   0.139   7.040  1.1355  0.5272  1.0783
   80MOL   C24225680   7.843   0.402   6.949  0.3196  1.1269  0.0028
   80MOL   C24325681   7.754   0.518   7.016  0.1006  0.1914  0.8285
   80MOL   C24425682   7.787   0.256   6.960 -0.1628  0.7781 -0.2126
   80MOL   C24525683   7.702   0.230   6.835 -0.2958 -0.1034 -0.5797
   80MOL   C24625684   7.766   0.186   6.706  0.0981  0.4294  0.2065
   80MOL   C24725685   7.567   0.257   6.834  0.0754  1.0911  0.1973
   80MOL   H24825686   7.825   0.421   6.843 -1.2454 -0.6677 -0.0706
   80MOL   H24925687   7.809   0.609   7.041  2.0264 -0.5735 -0.5276
   80MOL   H25025688   7.702   0.482   7.105 -0.3121 -1.8196 -0.2033
   80MOL   H25125689   7.676   0.540   6.943  0.1136  0.9184  1.0312
   80MOL   H25225690   7.865   0.183   6.938 -0.2461  0.8152 -0.6357
   80MOL   H25325691   7.848   0.115   6.720  0.4979  0.7245 -0.6819
   80MOL   H25425692   7.805   0.266   6.645  2.1774 -1.4108 -0.9576
   80MOL   H25525693   7.700   0.131   6.639 -0.4772  0.4491  0.7443
   80MOL   H25625694   7.518   0.309   6.915 -0.7026  0.1928  0.3003
   80MOL   H25725695   7.513   0.223   6.748  1.4228 -3.1042  0.9195
   80MOL   C25825696   7.726   0.212   7.097  0.2289 -0.2258  0.2437
   80MOL   C25925697   7.797   0.253   7.226  0.4139  0.1186 -0.1319
   80MOL   C26025698   7.663   0.066   7.112 -0.1821 -0.4862 -0.5253
   80MOL   C26125699   7.535   0.066   7.207 -0.4144  0.3575  0.0487
   80MOL   C26225700   7.404   0.098   7.141  0.0308 -0.3821 -0.3336
   80MOL   C26325701   7.544   0.048   7.336  0.5849  0.0016  1.5617
   80MOL   H26425702   7.645   0.285   7.099  0.4408  0.0505 -0.8994
   80MOL   H26525703   7.877   0.182   7.247  0.6514  0.2066 -0.7343
   80MOL   H26625704   7.738   0.274   7.315  0.8633  0.4312  0.0978
   80MOL   H26725705   7.860   0.341   7.214  0.3153  0.4702  1.6781
   80MOL   H26825706   7.610   0.044   7.019  0.2163  0.1406 -0.9031
   80MOL   H26925707   7.368   0.008   7.090 -1.3274 -1.1645  1.9449
   80MOL   H27025708   7.404   0.171   7.060  0.6904 -0.4654 -0.4075
   80MOL   H27125709   7.329   0.129   7.213 -0.6123 -1.1497 -0.6669
   80MOL   H27225710   7.643   0.021   7.370  0.4094 -1.3101  1.0401
   80MOL   H27325711   7.461   0.049   7.405  0.7122 -1.2936  1.7435
   80MOL   C27425712   7.765   7.850   7.138  0.5613  0.4151  1.1919
   80MOL   C27525713   7.887   7.848   7.040 -0.2980  0.8256  0.5190
   80MOL   C27625714   7.694   7.705   7.148  0.2372  0.9232  0.3099
   80MOL   C27725715   7.754   7.639   7.278  0.8790 -0.4394  0.7151
   80MOL   C27825716   0.009   7.607   7.282 -0.6905 -1.0193  0.2912
   80MOL   C27925717   7.676   7.628   7.386 -0.8790 -0.2531  0.2311
   80MOL   H28025718   7.814   7.874   7.232  1.9170  0.9587  0.3561
   80MOL   H28125719   0.072   0.031   7.054 -1.4174  1.7609  1.8218
   80MOL   H28225720   7.857   7.865   6.936 -2.7036 -1.1666  0.8477
   80MOL   H28325721   0.047   7.753   7.050 -2.5769 -0.8205 -2.2900
   80MOL   H28425722   7.590   7.730   7.170  0.5220  0.7191  1.9971
   80MOL   H28525723   0.062   7.701   7.294 -2.1432 -0.0531 -0.7462
   80MOL   H28625724   0.051   7.568   7.188  1.5989  2.3287 -0.1507
   80MOL   H28725725   0.031   7.538   7.364 -1.6481 -1.0498  0.5303
   80MOL   H28825726   7.574   7.664   7.380 -1.7195 -2.7863 -1.0426
   80MOL   H28925727   7.717   7.588   7.477  0.8884 -0.9852 -0.8659
   80MOL   C29025728   7.687   7.603   7.020  0.3436  0.2475  0.3035
   80MOL   C29125729   7.621   7.663   6.899  0.4049 -0.7498 -0.3085
   80MOL   C29225730   7.644   7.459   7.053 -0.0953 -0.7258  0.0321
   80MOL   C29325731   7.721   7.349   6.978 -0.6721  0.0269  0.8557
   80MOL   C29425732   7.686   7.323   6.831 -0.7250 -0.3657  0.7139
   80MOL   C29525733   7.817   7.277   7.038  0.0090  0.3332  0.0200
   80MOL   H29625734   7.789   7.593   6.982  0.2396  1.6647 -0.4040
   80MOL   H29725735   7.533   7.722   6.924  0.4064 -0.3490 -1.2409
   80MOL   H29825736   7.587   7.592   6.823 -2.0602  0.1959 -0.1210
   80MOL   H29925737   7.688   7.738   6.856  0.8286 -0.2124  1.2417
   80MOL   H30025738   7.671   7.443   7.157  0.9662 -1.4502 -0.3466
   80MOL   H30125739   7.766   7.370   6.774 -2.4967  0.0639 -1.4670
   80MOL   H30225740   7.584   7.346   6.802  0.2701  2.4707 -0.7237
   80MOL   H30325741   7.697   7.219   6.798 -1.6658 -0.1553 -0.2760
   80MOL   H30425742   7.825   7.293   7.144 -1.1392  1.1188 -0.0005
   80MOL   H30525743   7.874   7.206   6.980  0.2101  2.1008 -2.0097
   80MOL   C30625744   7.488   7.425   7.060 -0.2242  0.7152  0.2366
   80MOL   C30725745   7.400   7.533   7.134  0.5474 -0.5498 -0.3273
   80MOL   C30825746   7.464   7.292   7.131 -0.3508 -0.0492  0.8239
   80MOL   C30925747   7.422   7.167   7.051  0.0953  0.4820  0.1982
   80MOL   C31025748   7.483   7.032   7.107  0.8440 -0.7938 -0.2275
   80MOL   C31125749   7.335   7.178   6.947  0.4079  0.9410 -0.9413
   80MOL   H31225750   7.453   7.421   6.957  1.7494  0.4350 -0.4497
   80MOL   H31325751   7.297   7.498   7.141 -0.1373  1.1570 -1.4134
   80MOL   H31425752   7.406   7.626   7.077 -0.7260 -0.0067  0.4137
   80MOL   H31525753   7.435   7.552   7.235  0.3661  1.0605 -0.5521
   80MOL   H31625754   7.543   7.263   7.201  0.8330 -0.8206 -0.8023
   80MOL   H31725755   7.433   6.947   7.060 -0.2084 -0.9218  1.0767
   80MOL   H31825756   7.476   7.018   7.215 -1.9031 -1.8139 -0.4837
   80MOL   H31925757   7.589   7.023   7.087  0.9072  1.3211 -0.9660
   80MOL   H32025758   7.308   7.278   6.917  1.7165  0.4936 -3.7686
   80MOL   H32125759   7.294   7.101   6.884  0.5066 -0.2911  0.4581
   80MOL   H32225760   7.384   7.304   7.203 -0.4173 -0.8637  0.8960
   81MOL     C125761   5.106   5.706   7.824  0.4199 -0.1892  0.8345
   81MOL     C225762   4.993   5.673   0.027 -0.2429 -0.4298  0.2533
   81MOL     C325763   5.081   5.652   7.677 -0.7939  0.3475 -1.1143
   81MOL     C425764   5.072   5.499   7.678 -0.2483 -0.3435  0.7961
   81MOL     C525765   4.949   5.455   7.596 -0.6748 -0.2395  0.1520
   81MOL     C625766   5.148   5.411   7.741 -0.8563 -0.3251 -0.2486
   81MOL     H725767   5.124   5.814   7.827  1.1701 -0.2968  0.3042
   81MOL     H825768   4.965   5.568   0.023 -0.5750 -0.4630  2.6251
   81MOL     H925769   4.911   5.742   0.008  0.1509 -0.8175 -3.1551
   81MOL    H1025770   5.019   5.677   0.133 -0.3492 -3.4252  0.4369
   81MOL    H1125771   4.982   5.689   7.650  0.1993  1.8453 -2.8817
   81MOL    H1225772   4.958   5.487   7.492  1.1248 -1.1150  0.0239
   81MOL    H1325773   4.869   5.507   7.649  1.3919  3.1844  0.0938
   81MOL    H1425774   4.927   5.348   7.602 -1.5174 -0.2567 -2.4514
   81MOL    H1525775   5.232   5.434   7.805 -0.2590  0.3124 -1.2544
   81MOL    H1625776   5.125   5.306   7.733  0.7680 -0.6394 -1.0532
   81MOL    H1725777   5.200   5.668   7.863  1.0238 -0.5782 -0.9841
   81MOL    C1825778   5.178   5.711   7.565  0.2938  0.0100  0.3575
   81MOL    C1925779   5.326   5.676   7.588 -0.2106 -0.9810 -0.2383
   81MOL    C2025780   5.159   5.864   7.541  0.2951  0.5920  0.0284
   81MOL    C2125781   5.007   5.898   7.530 -0.7449  0.1130 -0.5565
   81MOL    C2225782   4.972   6.027   7.602 -0.1989  0.8472  0.5244
   81MOL    C2325783   4.923   5.829   7.452 -0.1524 -0.0126  0.1372
   81MOL    H2425784   5.147   5.655   7.477 -1.1678 -1.4571  1.7722
   81MOL    H2525785   5.401   5.712   7.517 -0.7965  3.1977  1.1184
   81MOL    H2625786   5.345   5.573   7.619 -1.1810 -0.5928  1.7534
   81MOL    H2725787   5.358   5.731   7.677 -1.5850 -0.4908 -0.0412
   81MOL    H2825788   5.203   5.919   7.624  2.5027 -0.3535 -0.4668
   81MOL    H2925789   4.868   6.055   7.618 -0.0583  1.7317 -0.0167
   81MOL    H3025790   5.017   6.111   7.548  1.1472  0.0261  0.3255
   81MOL    H3125791   5.012   6.026   7.703  2.6543  4.2465 -0.4392
   81MOL    H3225792   4.942   5.740   7.394  0.2545  1.7206 -2.4757
   81MOL    H3325793   4.824   5.868   7.435  0.2783  0.2261 -2.0316
   81MOL    C3425794   5.227   5.919   7.411  0.1819  0.0414 -0.1138
   81MOL    C3525795   5.227   5.827   7.290 -0.6338  0.1396 -1.1104
   81MOL    C3625796   5.375   5.977   7.428 -0.0913 -0.1770 -0.0467
   81MOL    C3725797   5.386   6.051   7.568  0.0951 -0.1489 -0.1982
   81MOL    C3825798   5.304   6.175   7.609  0.1410 -0.6390  1.0389
   81MOL    C3925799   5.481   6.006   7.652 -0.1519  0.0202 -0.3094
   81MOL    H4025800   5.166   6.002   7.377 -0.0200 -0.1007 -0.0973
   81MOL    H4125801   5.124   5.799   7.272 -0.4069  0.3821 -2.8856
   81MOL    H4225802   5.267   5.727   7.308  1.8986  1.2212 -0.5070
   81MOL    H4325803   5.286   5.865   7.206  2.0181  0.7380  0.9370
   81MOL    H4425804   5.436   5.887   7.429  0.5876  0.2653 -1.3756
   81MOL    H4525805   5.367   6.264   7.606 -1.3494  0.4094 -1.0586
   81MOL    H4625806   5.262   6.162   7.709 -4.1183  1.0347 -0.4176
   81MOL    H4725807   5.227   6.192   7.533  1.8091  1.1810 -0.3051
   81MOL    H4825808   5.546   5.937   7.601  0.1928 -1.1286  1.6256
   81MOL    H4925809   5.504   6.039   7.752  2.8709  0.1532 -0.9973
   81MOL    C5025810   5.432   6.072   7.316 -0.3275 -0.0498  0.2610
   81MOL    C5125811   5.327   6.152   7.236  0.0956 -0.9753 -0.8508
   81MOL    C5225812   5.537   6.005   7.215  0.5658  0.1286  0.1627
   81MOL    C5325813   5.660   5.937   7.297 -0.5937  0.5100  0.4868
   81MOL    C5425814   5.707   5.804   7.243  0.2838  0.1544  0.3374
   81MOL    C5525815   5.716   5.993   7.402 -0.1139  0.5617 -0.3781
   81MOL    H5625816   5.497   6.147   7.361  0.6706 -0.8133  0.1176
   81MOL    H5725817   5.373   6.230   7.176  0.8196 -0.6741  0.0813
   81MOL    H5825818   5.270   6.200   7.315 -0.7594  0.8631 -2.5629
   81MOL    H5925819   5.260   6.094   7.173  0.2771 -0.4904 -1.4922
   81MOL    H6025820   5.485   5.919   7.172 -2.3548  1.3783  1.0989
   81MOL    H6125821   5.625   5.747   7.199  0.8339 -1.0954  0.8814
   81MOL    H6225822   5.772   5.741   7.304  0.2116 -0.9042 -0.6338
   81MOL    H6325823   5.768   5.828   7.155  0.0675 -1.2157 -0.2072
   81MOL    H6425824   5.695   6.088   7.449  1.0877  0.5603  0.1863
   81MOL    H6525825   5.794   5.941   7.456 -1.7386 -2.0118 -0.4136
   81MOL    C6625826   5.598   6.083   7.082  0.1092 -0.5110  0.2953
   81MOL    C6725827   5.638   6.226   7.129  0.1609 -0.3151 -0.1446
   81MOL    C6825828   5.515   6.071   6.950  0.4465 -0.1370  0.1838
   81MOL    C6925829   5.473   5.921   6.922 -0.1539 -0.7689 -0.2945
   81MOL    C7025830   5.584   5.815   6.915  0.3383  0.1497  0.3041
   81MOL    C7125831   5.344   5.877   6.917 -0.2232 -0.3637  0.6183
   81MOL    H7225832   5.689   6.031   7.053  0.2507 -0.1518  0.0968
   81MOL    H7325833   5.687   6.228   7.226 -0.5882  1.9208  0.2092
   81MOL    H7425834   5.561   6.301   7.141  0.4071 -0.4508  2.6750
   81MOL    H7525835   5.717   6.268   7.066  0.5531 -0.7535  0.0468
   81MOL    H7625836   5.425   6.119   6.987 -0.9299 -1.6757 -1.1056
   81MOL    H7725837   5.550   5.713   6.931 -1.7790  0.6685 -0.7459
   81MOL    H7825838   5.663   5.835   6.988  0.3871  1.4626 -0.1004
   81MOL    H7925839   5.619   5.818   6.812  2.4634  2.3186  1.0414
   81MOL    H8025840   5.254   5.938   6.928 -1.1348 -1.7193  0.7833
   81MOL    H8125841   5.315   5.775   6.896  1.5555 -0.4765 -1.3308
   81MOL    C8225842   5.569   6.135   6.816 -0.7935 -0.2285  0.9153
   81MOL    C8325843   5.721   6.115   6.799  0.6188 -0.3000 -0.3252
   81MOL    C8425844   5.515   6.281   6.795  0.4507  0.7374  0.0708
   81MOL    C8525845   5.360   6.291   6.811 -0.4281  0.0743 -0.4478
   81MOL    C8625846   5.312   6.422   6.875 -0.2462  0.2433  0.2733
   81MOL    C8725847   5.272   6.202   6.774  0.5448  0.1254 -0.5889
   81MOL    H8825848   5.525   6.062   6.748  0.1052  0.3819 -0.3407
   81MOL    H8925849   5.748   6.012   6.817 -0.2270 -0.1303  2.1450
   81MOL    H9025850   5.772   6.165   6.881  1.0931 -1.6204  0.1881
   81MOL    H9125851   5.773   6.137   6.706  0.6093  2.4959  0.2725
   81MOL    H9225852   5.537   6.322   6.893 -0.0484 -0.6005  0.7471
   81MOL    H9325853   5.315   6.502   6.801 -0.3414  2.5213  2.6778
   81MOL    H9425854   5.371   6.458   6.959  0.5512 -1.8058  0.6238
   81MOL    H9525855   5.206   6.408   6.900 -1.0517  3.5558 -1.0679
   81MOL    H9625856   5.318   6.116   6.727  2.1383  1.1082 -0.8903
   81MOL    H9725857   5.166   6.215   6.789  0.0975 -1.5304 -2.1696
   81MOL    C9825858   5.563   6.363   6.675 -0.0319  0.2193  0.6494
   81MOL    C9925859   5.550   6.285   6.550  0.5421  0.1680  0.0920
   81MOL   C10025860   5.706   6.444   6.683 -0.3068 -0.7029  0.6585
   81MOL   C10125861   5.743   6.482   6.828  1.0753 -0.5594 -0.6048
   81MOL   C10225862   5.657   6.591   6.894  0.3082  0.3702  0.1353
   81MOL   C10325863   5.866   6.450   6.874  0.0671  0.1218 -0.2421
   81MOL   H10425864   5.481   6.434   6.662 -0.2017  0.1808  1.4871
   81MOL   H10525865   5.652   6.256   6.525  0.0004 -1.4834 -0.2457
   81MOL   H10625866   5.486   6.335   6.478  0.1262 -0.3962  0.0635
   81MOL   H10725867   5.498   6.190   6.566  0.3348  0.3155  0.2852
   81MOL   H10825868   5.784   6.374   6.655  0.5640 -0.0589  1.4212
   81MOL   H10925869   5.553   6.588   6.860  1.2202 -0.9613 -2.6075
   81MOL   H11025870   5.697   6.688   6.864  1.3586  0.3795  1.5160
   81MOL   H11125871   5.648   6.586   7.003 -1.0879  0.4658  0.0396
   81MOL   H11225872   5.934   6.394   6.811  0.5466  2.1203 -1.5249
   81MOL   H11325873   5.913   6.479   6.967  1.8497  1.4302 -1.5158
   81MOL   C11425874   5.714   6.561   6.590 -0.0280 -0.1890  0.4398
   81MOL   C11525875   5.578   6.625   6.556 -0.7996 -0.3218 -0.2919
   81MOL   C11625876   5.797   6.538   6.450  0.3300 -0.0273  0.8191
   81MOL   C11725877   5.922   6.454   6.465  0.4374  0.6944 -0.1382
   81MOL   C11825878   6.046   6.518   6.526 -0.0945 -0.3988 -0.0165
   81MOL   C11925879   5.926   6.324   6.429 -0.2254 -1.1213  0.4114
   81MOL   H12025880   5.776   6.636   6.639 -1.0789  2.1648 -1.7167
   81MOL   H12125881   5.516   6.653   6.641 -1.2263  1.3317 -1.1245
   81MOL   H12225882   5.521   6.568   6.482  0.4113 -0.5508 -1.0703
   81MOL   H12325883   5.597   6.705   6.483 -0.3545  0.7605  0.9832
   81MOL   H12425884   5.720   6.489   6.393  1.4524 -0.4937 -0.3181
   81MOL   H12525885   6.012   6.565   6.619 -2.5346 -0.3576 -0.8813
   81MOL   H12625886   6.078   6.599   6.462 -1.2075  0.5853  0.6410
   81MOL   H12725887   6.123   6.445   6.551  1.2608  1.6633  2.0160
   81MOL   H12825888   5.845   6.275   6.376  1.5372 -3.2157 -0.4580
   81MOL   H12925889   6.011   6.260   6.445  3.0812  3.1536  0.6588
   81MOL   C13025890   5.832   6.669   6.363  0.1539  0.2064  0.3993
   81MOL   C13125891   5.853   6.796   6.449 -0.0422  0.3450 -0.2063
   81MOL   C13225892   5.738   6.680   6.234 -0.3465  0.1828 -0.1986
   81MOL   C13325893   5.755   6.561   6.140  0.1138 -0.7485  0.2054
   81MOL   C13425894   5.621   6.502   6.098  0.3130  0.3828  0.2052
   81MOL   C13525895   5.873   6.511   6.095 -0.5370  0.2224  0.2174
   81MOL   H13625896   5.923   6.654   6.304  0.6047  1.0104  0.8837
   81MOL   H13725897   5.945   6.777   6.504 -1.1543 -1.3779  1.1133
   81MOL   H13825898   5.775   6.815   6.522  0.3377  2.7801 -0.4041
   81MOL   H13925899   5.872   6.891   6.399 -1.1479 -0.7868 -2.8910
   81MOL   H14025900   5.638   6.676   6.279  0.1193 -1.9829  0.7385
   81MOL   H14125901   5.564   6.484   6.189  2.1921 -1.2690  1.1124
   81MOL   H14225902   5.647   6.410   6.044  2.5712  0.6614  0.7330
   81MOL   H14325903   5.562   6.563   6.030  0.3692 -2.2923 -2.4024
   81MOL   H14425904   5.970   6.551   6.121 -0.7467  0.1365  1.1623
   81MOL   H14525905   5.878   6.422   6.034 -0.0274  0.8586 -0.6707
   81MOL   C14625906   5.733   6.812   6.148 -0.7175  0.2166  0.0258
   81MOL   C14725907   5.872   6.856   6.106 -0.1205 -1.0100 -0.0522
   81MOL   C14825908   5.648   6.934   6.202 -0.0423 -0.0761 -0.4261
   81MOL   C14925909   5.525   6.897   6.284  0.2101 -0.8109  0.6860
   81MOL   C15025910   5.410   6.819   6.223 -0.4865 -0.0119 -0.2871
   81MOL   C15125911   5.525   6.934   6.412  0.4228  0.5142  1.0383
   81MOL   H15225912   5.675   6.771   6.066 -0.1325  0.2316 -0.4023
   81MOL   H15325913   5.855   6.940   6.039  1.5982 -0.2284  0.4627
   81MOL   H15425914   5.921   6.783   6.042 -2.1351  0.0537 -2.9248
   81MOL   H15525915   5.939   6.887   6.187 -3.3411  2.5120  1.4150
   81MOL   H15625916   5.722   6.981   6.267 -2.3264 -0.7761  2.7469
   81MOL   H15725917   5.314   6.821   6.273  0.1323  2.5725  0.8628
   81MOL   H15825918   5.424   6.711   6.216  1.1238  0.0859  0.9680
   81MOL   H15925919   5.385   6.848   6.121  1.3075  1.9368 -0.2224
   81MOL   H16025920   5.611   6.992   6.441  1.7338 -1.3996  1.0681
   81MOL   H16125921   5.443   6.910   6.478  1.0599 -0.0569  1.6269
   81MOL   C16225922   5.595   7.041   6.093 -0.4037 -0.0284 -0.1279
   81MOL   C16325923   5.580   6.970   5.954  0.2660 -0.2649 -0.1132
   81MOL   C16425924   5.674   7.176   6.087 -0.0162 -0.1490 -0.6034
   81MOL   C16525925   5.709   7.224   6.225 -0.5199 -0.7849 -0.3857
   81MOL   C16625926   5.858   7.242   6.253 -0.6521 -0.3339 -0.2833
   81MOL   C16725927   5.617   7.242   6.320  0.3425 -0.6858 -0.1671
   81MOL   H16825928   5.492   7.064   6.120 -0.5197 -2.5186  1.7095
   81MOL   H16925929   5.679   6.945   5.916  1.3122 -0.1073  2.4192
   81MOL   H17025930   5.548   7.030   5.869  0.9392 -2.8178 -2.2388
   81MOL   H17125931   5.509   6.887   5.956 -0.0219 -0.0050  0.9155
   81MOL   H17225932   5.757   7.166   6.016 -0.4651 -1.2216 -0.9853
   81MOL   H17325933   5.924   7.303   6.192  1.9566 -1.3752  1.4286
   81MOL   H17425934   5.902   7.143   6.263 -2.0890 -0.9615 -0.0911
   81MOL   H17525935   5.855   7.290   6.351 -0.2206  1.2979 -1.0445
   81MOL   H17625936   5.510   7.231   6.309  0.1616  1.4256 -0.6581
   81MOL   H17725937   5.650   7.287   6.412  3.0100  1.6156 -2.1742
   81MOL   C17825938   5.582   7.294   6.020  0.5695  0.1833 -0.3823
   81MOL   C17925939   5.422   7.265   6.025  0.6008  0.1449 -0.4231
   81MOL   C18025940   5.639   7.331   5.883 -0.6359 -0.0673  0.3911
   81MOL   C18125941   5.786   7.369   5.883  0.1318 -0.5727  0.1884
   81MOL   C18225942   5.821   7.496   5.963 -0.4335 -0.0019  0.3187
   81MOL   C18325943   5.883   7.296   5.826 -0.7516  0.3790 -0.4678
   81MOL   H18425944   5.592   7.384   6.081  2.6992 -1.0346  1.1470
   81MOL   H18525945   5.395   7.178   5.967 -1.0996 -0.7288  1.6234
   81MOL   H18625946   5.366   7.341   5.970 -0.3559 -1.0061 -1.0487
   81MOL   H18725947   5.372   7.274   6.122 -1.5482 -1.2309 -1.3847
   81MOL   H18825948   5.645   7.237   5.828  3.2089  0.6380 -0.5659
   81MOL   H18925949   5.762   7.506   6.054 -1.1014 -1.2856  0.0417
   81MOL   H19025950   5.804   7.581   5.897 -2.0569  0.0900  0.8437
   81MOL   H19125951   5.925   7.486   5.993 -0.2107  1.6536  0.1383
   81MOL   H19225952   5.862   7.200   5.782 -0.4535  0.5110 -0.8964
   81MOL   H19325953   5.986   7.327   5.824 -1.2914  2.5329  1.4059
   81MOL   C19425954   5.551   7.428   5.783  0.0893 -0.5435 -0.0007
   81MOL   C19525955   5.498   7.554   5.852  0.2388  0.3317 -0.5514
   81MOL   C19625956   5.455   7.340   5.694  0.6201  0.3461  0.8671
   81MOL   C19725957   5.525   7.221   5.620 -0.0984  0.0266 -0.1288
   81MOL   C19825958   5.448   7.087   5.606 -0.3692 -0.2217  0.0367
   81MOL   C19925959   5.645   7.235   5.554 -0.1018 -0.1507  0.5619
   81MOL   H20025960   5.628   7.464   5.715 -1.0270  1.3363 -0.2910
   81MOL   H20125961   5.476   7.640   5.789  0.2228 -0.5655 -1.7738
   81MOL   H20225962   5.574   7.593   5.921 -2.2524  0.2471  2.3359
   81MOL   H20325963   5.408   7.527   5.907 -1.0101  1.6841 -1.9240
   81MOL   H20425964   5.381   7.293   5.759  1.6154 -0.1351  1.6590
   81MOL   H20525965   5.367   7.109   5.537 -1.3400 -1.2958  0.8223
   81MOL   H20625966   5.399   7.080   5.703  3.7149  0.3822  2.2795
   81MOL   H20725967   5.511   7.002   5.580 -0.1481 -1.0573  3.0552
   81MOL   H20825968   5.698   7.329   5.549  0.0949 -0.1716  1.9684
   81MOL   H20925969   5.686   7.151   5.499  0.7402  0.1774  0.6891
   81MOL   C21025970   5.366   7.425   5.582 -0.5738  0.5030 -0.0792
   81MOL   C21125971   5.461   7.518   5.507  0.9568  0.6235 -0.0796
   81MOL   C21225972   5.242   7.504   5.639 -0.8268 -0.2359 -0.8280
   81MOL   C21325973   5.142   7.406   5.702 -0.2013 -0.6918 -0.0554
   81MOL   C21425974   5.083   7.463   5.826  0.5156 -0.1959  0.7556
   81MOL   C21525975   5.108   7.286   5.650  0.1027  0.3023  0.0590
   81MOL   H21625976   5.336   7.357   5.502  0.9365 -1.7777  1.2682
   81MOL   H21725977   5.472   7.615   5.556  2.4506  0.0935  0.6393
   81MOL   H21825978   5.420   7.540   5.408  0.6125  1.8782  0.3242
   81MOL   H21925979   5.559   7.473   5.492 -0.5840 -2.0512 -2.5609
   81MOL   H22025980   5.273   7.571   5.719  0.1314 -0.0446 -1.3511
   81MOL   H22125981   5.005   7.537   5.805  0.3927 -0.1185  1.4912
   81MOL   H22225982   5.158   7.513   5.887  1.1154  0.6065 -0.6009
   81MOL   H22325983   5.042   7.381   5.884 -2.2281  0.7811  0.2763
   81MOL   H22425984   5.139   7.249   5.554 -0.7131 -2.0845  0.6881
   81MOL   H22525985   5.034   7.219   5.692  1.0111 -0.0618  1.0968
   81MOL   C22625986   5.171   7.598   5.541  0.0840  0.3372  0.8864
   81MOL   C22725987   5.131   7.532   5.409  0.1409  0.7945 -0.6897
   81MOL   C22825988   5.223   7.742   5.522  0.7662 -0.4197  0.2674
   81MOL   C22925989   5.260   7.816   5.652  0.6820 -0.5031 -0.8379
   81MOL   C23025990   5.386   7.888   5.652 -0.4608 -0.3396 -0.3240
   81MOL   C23125991   5.189   7.810   5.767 -0.7346 -0.7223 -0.2992
   81MOL   H23225992   5.076   7.623   5.590  0.3060  2.2002  0.4098
   81MOL   H23325993   5.209   7.510   5.335  1.3614  0.6175  0.6310
   81MOL   H23425994   5.057   7.592   5.356 -1.0797 -1.2846 -1.4110
   81MOL   H23525995   5.071   7.441   5.407 -0.1403  0.8712  2.5956
   81MOL   H23625996   5.317   7.736   5.466 -0.7013 -3.2502 -2.0276
   81MOL   H23725997   5.403   0.046   5.747 -0.2091  0.8233 -0.9716
   81MOL   H23825998   5.377   0.072   5.575  1.1522  0.6482  0.4303
   81MOL   H23925999   5.472   7.829   5.620 -2.0856 -2.1166 -1.5027
   81MOL   H24026000   5.092   7.763   5.772 -1.7782  1.5589  2.5445
   81MOL   H24126001   5.223   7.854   5.860  2.6230 -3.0089 -0.3662
   81MOL   C24226002   5.142   7.850   5.433  0.3728  0.3199  0.7126
   81MOL   C24326003   4.996   7.882   5.481 -0.0904 -0.1672 -0.5987
   81MOL   C24426004   5.166   7.841   5.278  0.0299 -0.0929 -0.1804
   81MOL   C24526005   5.311   7.824   5.244  1.0748 -0.5634 -0.3890
   81MOL   C24626006   5.398   0.055   5.261 -0.0101  0.3819 -0.5280
   81MOL   C24726007   5.362   7.713   5.191  0.2421 -0.2139  0.5606
   81MOL   H24826008   5.201   0.048   5.447 -0.0917  0.4268  2.0184
   81MOL   H24926009   4.986   0.006   5.588  1.8722 -3.1661  0.0894
   81MOL   H25026010   4.932   7.797   5.455 -1.1128  0.3738  0.0886
   81MOL   H25126011   4.942   0.072   5.433  0.5787  1.1804  0.9227
   81MOL   H25226012   5.128   7.745   5.242  0.1944  0.9498 -3.2808
   81MOL   H25326013   5.368   0.102   5.355 -2.7388 -2.1245 -0.0431
   81MOL   H25426014   5.391   0.128   5.180 -0.3332  0.2936 -0.5822
   81MOL   H25526015   5.498   0.019   5.281 -0.0953  0.8088  0.7117
   81MOL   H25626016   5.296   7.629   5.177  0.2748 -0.0815 -0.4503
   81MOL   H25726017   5.466   7.701   5.165  0.2301 -0.9922  0.8834
   81MOL   C25826018   5.097   0.067   5.196  0.1993 -0.8024  0.5713
   81MOL   C25926019   5.105   0.219   5.242  0.3267  0.0734  0.5585
   81MOL   C26026020   4.951   0.026   5.131  0.3204 -0.9182  0.0052
   81MOL   C26126021   4.942   7.775   5.068 -0.0270 -0.5807  0.6302
   81MOL   C26226022   5.038   7.740   4.955  0.0398 -0.4242 -0.5582
   81MOL   C26326023   4.837   7.702   5.110 -0.5439 -0.2039 -0.0552
   81MOL   H26426024   5.157   0.068   5.105  0.4713  3.7008  0.6848
   81MOL   H26526025   5.016   0.255   5.295 -0.4551  0.8667 -1.2275
   81MOL   H26626026   5.130   0.297   5.169 -1.5519  0.0025 -0.1902
   81MOL   H26726027   5.188   0.231   5.312  0.4169 -0.7202  0.5921
   81MOL   H26826028   4.879   0.024   5.213  0.5318  0.2550  0.2263
   81MOL   H26926029   5.045   7.809   4.870  0.3918 -1.3885 -1.3209
   81MOL   H27026030   5.017   7.647   4.902  1.3930 -1.9107  1.4500
   81MOL   H27126031   5.137   7.718   4.995 -0.0683 -0.5867 -0.3828
   81MOL   H27226032   4.780   7.733   5.196  3.6739  1.9576  2.0751
   81MOL   H27326033   4.823   7.606   5.063  0.0834 -0.0375 -0.6004
   81MOL   C27426034   4.887   0.129   5.031  0.5606 -0.7775 -0.0804
   81MOL   C27526035   4.997   0.187   4.940  0.5384  0.5384  0.0160
   81MOL   C27626036   4.797   0.249   5.096 -1.0176  0.7659  0.3389
   81MOL   C27726037   4.680   0.194   5.183  0.6531  0.4015 -0.5829
   81MOL   C27826038   4.660   0.245   5.324  0.6017 -0.5940  0.5070
   81MOL   C27926039   4.602   0.092   5.149 -0.5181  0.6832  0.4606
   81MOL   H28026040   4.820   0.080   4.960  0.5940  1.5441 -1.7812
   81MOL   H28126041   5.076   0.117   4.916 -0.4698 -0.6686  0.1544
   81MOL   H28226042   5.046   0.275   4.981  0.8404  0.2027  0.3670
   81MOL   H28326043   4.957   0.231   4.848  0.6017  1.1157  0.2592
   81MOL   H28426044   4.856   0.295   5.175 -1.0727  0.2389  0.6926
   81MOL   H28526045   4.751   0.282   5.372  0.7010  0.1968 -0.2656
   81MOL   H28626046   4.596   0.181   5.383  0.5383 -0.5947  0.4386
   81MOL   H28726047   4.614   0.343   5.317 -2.6946 -2.1568 -0.6276
   81MOL   H28826048   4.622   0.044   5.054 -1.8329  2.0682 -0.5394
   81MOL   H28926049   4.524   0.052   5.213  0.4337 -1.1221  0.5496
   81MOL   C29026050   4.753   0.356   4.992  0.7882 -0.5825  0.3477
   81MOL   C29126051   4.673   0.293   4.868 -0.5538  0.2234  0.4710
   81MOL   C29226052   4.853   0.477   4.971  0.8603  0.3899 -0.8185
   81MOL   C29326053   4.919   0.535   5.095 -0.4072 -0.2232 -0.0506
   81MOL   C29426054   4.843   0.572   5.215 -0.3084  0.2407 -0.6306
   81MOL   C29526055   5.051   0.552   5.101 -0.2752 -0.3575  0.5728
   81MOL   H29626056   4.677   0.409   5.050  0.6042  1.1836 -1.4704
   81MOL   H29726057   4.600   0.217   4.895 -1.1433 -0.5554 -3.0263
   81MOL   H29826058   4.732   0.234   4.797  0.5844 -0.9484  2.3642
   81MOL   H29926059   4.618   0.364   4.806 -1.6973 -0.0961  1.1140
   81MOL   H30026060   4.930   0.429   4.910  1.6685 -0.8687  1.1259
   81MOL   H30126061   4.748   0.613   5.181 -0.9118  1.3113  2.2648
   81MOL   H30226062   4.898   0.641   5.278 -2.2306  1.1310  0.0905
   81MOL   H30326063   4.820   0.487   5.279  2.2632  0.7229  1.0051
   81MOL   H30426064   5.111   0.533   5.012  1.5409 -2.7972  2.2467
   81MOL   H30526065   5.095   0.588   5.192 -2.0671  1.5589  0.7151
   81MOL   C30626066   4.805   0.578   4.866  0.2491  0.2493  0.2076
   81MOL   C30726067   4.922   0.672   4.825 -0.1813  0.0546 -0.1029
   81MOL   C30826068   4.680   0.667   4.898  0.1044  0.5954  0.4105
   81MOL   C30926069   4.616   0.740   4.779  0.8402  0.0919  0.9173
   81MOL   C31026070   4.516   0.662   4.689  0.1525  0.4080 -0.2878
   81MOL   C31126071   4.646   0.869   4.748 -0.3126 -0.5174  0.4607
   81MOL   H31226072   4.763   0.524   4.782 -0.0666 -0.0545  0.5604
   81MOL   H31326073   5.006   0.609   4.795  1.5080  2.8957 -1.6124
   81MOL   H31426074   4.962   0.742   4.898 -0.9472  0.6324 -0.2342
   81MOL   H31526075   4.893   0.724   4.734 -0.7567  2.1457  1.2530
   81MOL   H31626076   4.601   0.611   4.949 -0.2080  1.4221  0.8453
   81MOL   H31726077   4.469   0.718   4.608  0.8745 -1.0486 -1.7485
   81MOL   H31826078   4.435   0.618   4.747  0.3658 -0.0507 -0.3369
   81MOL   H31926079   4.566   0.578   4.640  1.0039  1.4382 -1.2278
   81MOL   H32026080   4.721   0.930   4.795  0.8845 -0.1176 -1.9049
   81MOL   H32126081   4.602   0.916   4.661  2.9963  0.5733 -0.6958
   81MOL   H32226082   4.706   0.741   4.974 -0.2217  0.3190  0.7959
   82MOL     C126083   6.963   0.151   1.949 -0.0666  0.0535 -0.3173
   82MOL     C226084   7.079   0.154   1.854 -0.2904 -0.2944 -0.4539
   82MOL     C326085   6.842   0.055   1.906  0.2688 -0.8345 -0.5107
   82MOL     C426086   6.776   0.091   1.769 -0.5078 -0.6672  0.0936
   82MOL     C526087   6.762   0.242   1.741 -0.2574  1.7792 -0.4721
   82MOL     C626088   6.735   7.891   1.675 -0.0470  0.6514 -0.2093
   82MOL     H726089   6.990   0.123   2.051  1.3000  0.8647 -0.4416
   82MOL     H826090   7.148   0.238   1.858  0.5092 -0.9476 -0.4968
   82MOL     H926091   7.050   0.139   1.750 -0.2898 -2.3361 -0.1814
   82MOL    H1026092   7.138   0.065   1.876  3.6457  1.4993 -3.2128
   82MOL    H1126093   6.888   7.850   1.892 -0.3390 -0.9555 -1.7666
   82MOL    H1226094   6.848   0.309   1.743 -1.3817  3.2667 -0.8567
   82MOL    H1326095   6.694   0.288   1.812 -0.2743 -0.0809  0.7602
   82MOL    H1426096   6.712   0.262   1.646  0.5436 -1.3417 -1.6236
   82MOL    H1526097   6.741   7.785   1.692 -1.7279  0.0623 -2.9582
   82MOL    H1626098   6.696   0.034   1.580 -3.0164  0.7164  0.9830
   82MOL    H1726099   6.935   0.256   1.957  0.3571  0.2348 -1.1759
   82MOL    C1826100   6.737   0.041   2.023 -0.8578  0.0808  0.1610
   82MOL    C1926101   6.707   0.179   2.087  0.3110  0.6879  0.2692
   82MOL    C2026102   6.756   7.837   2.145 -0.5791 -0.2320 -0.6427
   82MOL    C2126103   6.897   7.836   2.213  0.3162 -0.5941 -0.2508
   82MOL    C2226104   7.003   7.738   2.151 -0.5049  0.2169  0.7532
   82MOL    C2326105   6.935   0.028   2.315  0.2334  0.7514 -0.0540
   82MOL    H2426106   6.641   0.016   1.979 -0.1549  0.1796 -1.4367
   82MOL    H2526107   6.790   0.228   2.137 -0.1072  2.1133 -0.4037
   82MOL    H2626108   6.625   0.167   2.158  0.5065 -2.8849 -0.0009
   82MOL    H2726109   6.665   0.250   2.015  1.0785 -0.1495 -1.0395
   82MOL    H2826110   6.690   7.875   2.223 -0.0573  0.1189 -0.3766
   82MOL    H2926111   6.994   7.630   2.162  0.3800  0.0320 -0.2341
   82MOL    H3026112   7.098   7.755   2.202 -0.0451 -0.1308  0.0230
   82MOL    H3126113   7.009   7.754   2.043 -0.5992 -2.0450  0.4021
   82MOL    H3226114   6.866   0.099   2.358 -2.1386 -0.3910 -1.8599
   82MOL    H3326115   7.040   0.021   2.336  0.8255 -1.4973 -3.3783
   82MOL    C3426116   6.697   7.682   2.125  0.5775  0.3840 -0.3605
   82MOL    C3526117   6.746   7.621   1.992  0.5124  0.1977 -0.3641
   82MOL    C3626118   6.542   7.678   2.141  0.4592 -0.2161  0.7018
   82MOL    C3726119   6.489   7.751   2.264  0.2207  0.1111 -0.3581
   82MOL    C3826120   6.522   7.685   2.402  0.4338  0.8463  1.2224
   82MOL    C3926121   6.411   7.857   2.249 -0.8619 -0.5438 -0.5585
   82MOL    H4026122   6.743   7.625   2.205  0.6731  1.3090  0.2555
   82MOL    H4126123   6.713   7.685   1.911 -1.8306  1.1261  1.2709
   82MOL    H4226124   6.702   7.522   1.981 -1.3400  1.0731 -1.0472
   82MOL    H4326125   6.852   7.597   1.994  0.3445 -0.4607  2.2216
   82MOL    H4426126   6.514   7.760   2.075 -1.5030  0.5856  2.4654
   82MOL    H4526127   6.455   7.603   2.431 -1.2903  1.9182  0.3603
   82MOL    H4626128   6.503   7.756   2.482 -0.1979 -0.6519  2.4344
   82MOL    H4726129   6.623   7.646   2.414  0.0233 -1.3475 -1.8561
   82MOL    H4826130   6.390   7.890   2.148 -1.0338 -0.8703 -0.6294
   82MOL    H4926131   6.366   0.018   2.331 -0.4647 -1.4688  0.2750
   82MOL    C5026132   6.462   7.547   2.103  0.3862  0.3140 -0.3667
   82MOL    C5126133   6.527   7.431   2.174 -0.0436  0.4017 -0.4140
   82MOL    C5226134   6.435   7.521   1.947  0.5862  0.4766 -0.4658
   82MOL    C5326135   6.422   7.649   1.863  0.7562 -0.3492 -0.2006
   82MOL    C5426136   6.313   7.744   1.895  0.1915 -0.1251  0.1675
   82MOL    C5526137   6.495   7.677   1.755 -0.4859 -0.2732 -1.3088
   82MOL    H5626138   6.369   7.568   2.157 -0.1939  0.0631 -1.2493
   82MOL    H5726139   6.458   7.348   2.190 -0.1843  1.3255  4.4970
   82MOL    H5826140   6.528   7.460   2.279  2.8229  0.1762 -0.3269
   82MOL    H5926141   6.628   7.391   2.163 -0.2264 -0.7424  1.7303
   82MOL    H6026142   6.520   7.463   1.910  1.5043  1.7637 -0.3882
   82MOL    H6126143   6.223   7.709   1.844 -1.0377  2.4133  0.5358
   82MOL    H6226144   6.333   7.846   1.862  1.7461 -0.1796  0.9048
   82MOL    H6326145   6.283   7.730   1.999 -1.2139 -0.2247 -0.2301
   82MOL    H6426146   6.579   7.618   1.722 -0.5226  0.1873 -2.2397
   82MOL    H6526147   6.479   7.763   1.691  0.1893  0.8822  0.0427
   82MOL    C6626148   6.323   7.425   1.912 -0.1199 -0.8291 -0.5261
   82MOL    C6726149   6.204   7.439   1.998 -0.2737 -0.1239  0.7459
   82MOL    C6826150   6.344   7.274   1.869  0.6550  0.4040 -0.2013
   82MOL    C6926151   6.394   7.189   1.983 -0.1197  0.7939 -0.5389
   82MOL    C7026152   6.296   7.116   2.067 -0.1663  0.4528  0.4818
   82MOL    C7126153   6.525   7.176   2.003  0.0707  0.1016  0.8267
   82MOL    H7226154   6.278   7.469   1.824 -1.5281 -1.5384 -0.1713
   82MOL    H7326155   6.125   7.375   1.960  0.9123 -0.9329 -0.3615
   82MOL    H7426156   6.161   7.539   2.003  0.2819  0.2695 -1.7802
   82MOL    H7526157   6.216   7.395   2.097 -0.1037 -0.5325  0.5442
   82MOL    H7626158   6.240   7.244   1.857  0.6679  0.0217  0.6108
   82MOL    H7726159   6.245   7.175   2.143 -2.7752 -2.0258  0.7177
   82MOL    H7826160   6.337   7.030   2.119  0.4251  0.9194  0.8030
   82MOL    H7926161   6.213   7.072   2.012 -0.7174  1.1408  0.7461
   82MOL    H8026162   6.595   7.224   1.936  0.5811 -0.2187  1.1209
   82MOL    H8126163   6.565   7.109   2.078  1.3560 -1.2069 -0.9810
   82MOL    C8226164   6.425   7.250   1.737  0.4096 -0.3429 -0.4882
   82MOL    C8326165   6.376   7.345   1.630  0.0639  1.2707  0.5111
   82MOL    C8426166   6.453   7.103   1.690 -0.3896 -0.1145  0.0614
   82MOL    C8526167   6.572   7.110   1.598 -0.5082 -0.0488 -0.1082
   82MOL    C8626168   6.706   7.097   1.668 -0.5878 -0.4377  0.3397
   82MOL    C8726169   6.568   7.097   1.465  0.2378 -0.1611 -0.0255
   82MOL    H8826170   6.527   7.286   1.742 -0.0445  0.9434 -0.1919
   82MOL    H8926171   6.272   7.331   1.601  0.4270 -1.0038  0.2060
   82MOL    H9026172   6.437   7.335   1.540  0.6525  2.4984  0.7556
   82MOL    H9126173   6.387   7.448   1.666 -2.2273  2.3445 -1.7892
   82MOL    H9226174   6.475   7.042   1.777 -1.2466 -1.1039 -0.4074
   82MOL    H9326175   6.784   7.053   1.606 -1.5612  0.8647 -1.8590
   82MOL    H9426176   6.693   7.039   1.759 -1.2530  0.2122  0.6568
   82MOL    H9526177   6.743   7.196   1.695 -1.9550 -0.4851  2.4882
   82MOL    H9626178   6.474   7.087   1.413 -0.9183  2.0889  1.5638
   82MOL    H9726179   6.648   7.098   1.392  0.6095  1.6191  0.4007
   82MOL    C9826180   6.330   7.027   1.620  0.1162 -0.6629 -0.5151
   82MOL    C9926181   6.189   7.051   1.679 -0.1417 -0.3090 -0.4596
   82MOL   C10026182   6.356   6.875   1.583 -0.2237  0.1736 -0.3414
   82MOL   C10126183   6.303   6.838   1.446  0.3570 -0.6465 -0.2219
   82MOL   C10226184   6.162   6.877   1.408  0.0095 -0.2391  0.0451
   82MOL   C10326185   6.379   6.785   1.344 -0.3790  0.1676  0.4230
   82MOL   H10426186   6.317   7.089   1.531  0.7519  0.7157  0.3349
   82MOL   H10526187   6.117   6.981   1.636 -0.3059  0.2752 -1.1688
   82MOL   H10626188   6.144   7.149   1.661  2.2120  1.0843  1.1379
   82MOL   H10726189   6.185   7.042   1.787 -0.6956  3.4706 -0.1017
   82MOL   H10826190   6.465   6.872   1.584 -0.2282  0.0657  0.5360
   82MOL   H10926191   6.135   6.835   1.311 -1.5106  1.3167 -0.2336
   82MOL   H11026192   6.134   6.980   1.391 -0.4028  0.0634  2.4146
   82MOL   H11126193   6.085   6.827   1.468 -0.3153  0.3571  0.1251
   82MOL   H11226194   6.485   6.768   1.355 -0.7925 -1.6509  1.7394
   82MOL   H11326195   6.334   6.760   1.249  0.4145 -0.4544  0.2084
   82MOL   C11426196   6.299   6.765   1.687 -0.2441 -0.4366  0.1941
   82MOL   C11526197   6.325   6.797   1.835 -0.2689  0.0939  0.9842
   82MOL   C11626198   6.333   6.621   1.647 -0.9022  0.8942  0.0696
   82MOL   C11726199   6.215   6.537   1.680 -0.6089 -0.3381 -1.4635
   82MOL   C11826200   6.116   6.504   1.568  0.0297 -0.3251 -0.0977
   82MOL   C11926201   6.202   6.477   1.805  0.4209  0.4799  0.5817
   82MOL   H12026202   6.192   6.777   1.668 -0.0789 -0.3158 -0.7135
   82MOL   H12126203   6.304   6.901   1.859  1.2162  0.4031  0.9287
   82MOL   H12226204   6.430   6.792   1.864  0.3672 -0.7382 -1.3886
   82MOL   H12326205   6.261   6.740   1.903 -0.8720  0.6532  0.8975
   82MOL   H12426206   6.340   6.619   1.539 -0.4618  0.6621  0.1017
   82MOL   H12526207   6.109   6.594   1.507  1.3955 -1.0242 -1.2985
   82MOL   H12626208   6.020   6.474   1.609  0.1208 -0.2024  0.2134
   82MOL   H12726209   6.163   6.422   1.515 -0.0945 -1.2802  1.2457
   82MOL   H12826210   6.273   6.494   1.885 -0.0950 -1.4584  1.4799
   82MOL   H12926211   6.124   6.407   1.830  0.5402  0.2477  0.3169
   82MOL   C13026212   6.467   6.555   1.694  0.3123  0.0161 -0.1408
   82MOL   C13126213   6.595   6.648   1.659 -0.2248  0.4436 -0.5837
   82MOL   C13226214   6.496   6.410   1.651  0.2508 -0.6168 -0.1726
   82MOL   C13326215   6.544   6.328   1.773 -0.1299 -0.3645  0.3041
   82MOL   C13426216   6.684   6.359   1.830 -0.0175 -0.6010 -0.0317
   82MOL   C13526217   6.464   6.233   1.831 -0.0831 -0.0836  0.1301
   82MOL   H13626218   6.461   6.561   1.803  0.3025 -0.9110 -0.0871
   82MOL   H13726219   6.618   6.668   1.554  0.6958  3.0378  0.0870
   82MOL   H13826220   6.688   6.612   1.703 -2.0914 -0.8536  2.4558
   82MOL   H13926221   6.591   6.749   1.698 -2.3265  0.1990 -0.1219
   82MOL   H14026222   6.396   6.370   1.633 -0.5648  1.1420  0.2846
   82MOL   H14126223   6.766   6.349   1.757  0.7351  1.4840  0.4970
   82MOL   H14226224   6.702   6.303   1.921 -0.0672  2.7046  2.0799
   82MOL   H14326225   6.698   6.465   1.849  1.2301 -0.6530 -0.5501
   82MOL   H14426226   6.363   6.215   1.797  1.2342 -2.9941 -2.5344
   82MOL   H14526227   6.497   6.163   1.906 -2.9313 -2.6970 -0.9479
   82MOL   C14626228   6.584   6.383   1.520  0.6942 -0.1105  0.2477
   82MOL   C14726229   6.505   6.439   1.393  0.2169  0.6483  0.0883
   82MOL   C14826230   6.637   6.238   1.495 -0.3098  1.0713  0.0319
   82MOL   C14926231   6.764   6.249   1.422  0.1924  0.1481 -0.0013
   82MOL   C15026232   6.886   6.270   1.512  0.1533  0.1947  0.5278
   82MOL   C15126233   6.777   6.239   1.288  0.3196 -0.6454  0.6287
   82MOL   H15226234   6.678   6.436   1.532 -0.4086  1.6164  1.6180
   82MOL   H15326235   6.552   6.427   1.296  0.9980  0.8782  0.4405
   82MOL   H15426236   6.493   6.547   1.402  1.4089  0.9079 -1.2854
   82MOL   H15526237   6.408   6.394   1.371  0.0110  0.5224  1.1769
   82MOL   H15626238   6.667   6.203   1.594 -2.6221 -1.9662 -0.2717
   82MOL   H15726239   6.878   6.206   1.600  0.9105 -0.0820  0.4005
   82MOL   H15826240   6.882   6.369   1.557  0.6542  1.1864 -1.5628
   82MOL   H15926241   6.975   6.255   1.450 -2.1063 -3.9983 -1.9445
   82MOL   H16026242   6.691   6.221   1.225  1.8880 -2.1655 -1.1552
   82MOL   H16126243   6.871   6.247   1.235  0.1030 -1.2591  0.1497
   82MOL   C16226244   6.543   6.128   1.430 -0.2925  0.3547 -0.5612
   82MOL   C16326245   6.414   6.121   1.508 -0.3474 -0.2140 -0.4279
   82MOL   C16426246   6.607   5.985   1.401  1.0161 -0.0637  0.3618
   82MOL   C16526247   6.530   5.910   1.291  0.3737  0.7019  0.1394
   82MOL   C16626248   6.407   5.822   1.321  0.3599 -0.4217 -0.7068
   82MOL   C16726249   6.568   5.920   1.162 -0.2415  0.1376  0.3357
   82MOL   H16826250   6.500   6.171   1.340 -2.8540  2.5963  1.6402
   82MOL   H16926251   6.356   6.214   1.517 -3.2881 -1.9672 -0.4521
   82MOL   H17026252   6.419   6.066   1.602  0.3769  0.7836  0.1304
   82MOL   H17126253   6.346   6.058   1.450 -0.2768 -1.7693  1.1293
   82MOL   H17226254   6.699   6.014   1.351  0.4271  0.4770 -0.4411
   82MOL   H17326255   6.385   5.802   1.426  1.5927 -0.4420 -0.4488
   82MOL   H17426256   6.434   5.723   1.284  2.9974  0.2412 -0.6076
   82MOL   H17526257   6.315   5.861   1.276  0.1226  1.3579  1.2375
   82MOL   H17626258   6.652   5.984   1.138  1.0454 -1.0871  1.4618
   82MOL   H17726259   6.508   5.861   1.094 -0.5998  1.1548 -0.2348
   82MOL   C17826260   6.639   5.893   1.525  0.0277  0.1123  0.7447
   82MOL   C17926261   6.725   5.961   1.637 -0.1878  0.6828 -0.1353
   82MOL   C18026262   6.702   5.742   1.505 -0.2579  0.1399  0.3359
   82MOL   C18126263   6.666   5.666   1.633 -0.0777 -0.2009 -0.2815
   82MOL   C18226264   6.523   5.623   1.646  0.0733  0.0419 -0.6044
   82MOL   C18326265   6.747   5.648   1.743 -0.1538  0.0339 -0.6590
   82MOL   H18426266   6.540   5.876   1.568  0.6970  0.2821  2.4270
   82MOL   H18526267   6.661   6.028   1.695  0.1894  1.1154 -0.2169
   82MOL   H18626268   6.809   6.013   1.590  0.3821 -0.9096 -0.9287
   82MOL   H18726269   6.768   5.888   1.705 -1.2573  0.3574  0.2028
   82MOL   H18826270   6.648   5.700   1.420  1.8937 -2.0372 -0.0160
   82MOL   H18926271   6.478   5.595   1.551 -0.5278 -2.3662  0.3506
   82MOL   H19026272   6.458   5.704   1.679 -0.6490 -1.1363  0.9441
   82MOL   H19126273   6.499   5.529   1.697 -2.5541  0.5935 -0.7626
   82MOL   H19226274   6.851   5.677   1.745 -0.0922 -0.1488 -1.2543
   82MOL   H19326275   6.705   5.592   1.826 -1.2842 -0.8366 -1.8029
   82MOL   C19426276   6.856   5.735   1.473 -0.0392  0.1207  0.0244
   82MOL   C19526277   6.900   5.829   1.360 -0.2651 -0.0080  0.1879
   82MOL   C19626278   6.914   5.587   1.458  0.6850 -0.1812  0.7690
   82MOL   C19726279   7.045   5.584   1.539  0.2314  0.8727 -0.4505
   82MOL   C19826280   7.169   5.658   1.473 -0.3439 -0.2170 -0.4534
   82MOL   C19926281   7.059   5.507   1.647 -0.0856 -0.5953  0.6601
   82MOL   H20026282   6.912   5.782   1.554  2.8340 -0.7254 -1.3975
   82MOL   H20126283   6.913   5.930   1.398  0.1366  0.0792 -0.1853
   82MOL   H20226284   6.833   5.844   1.275 -0.1651  1.2984  0.3377
   82MOL   H20326285   7.000   5.803   1.324 -0.5892  0.5214 -1.1091
   82MOL   H20426286   6.842   5.532   1.518 -0.2095 -0.8170 -0.8707
   82MOL   H20526287   7.214   5.617   1.382 -0.6879 -0.2240 -0.6222
   82MOL   H20626288   7.254   5.653   1.541 -0.9094  1.9456  0.4392
   82MOL   H20726289   7.154   5.765   1.465  1.7206  0.2646  1.6917
   82MOL   H20826290   6.976   5.449   1.682 -0.1761 -1.6517 -1.2253
   82MOL   H20926291   7.153   5.504   1.701 -0.2130  0.7026  0.9851
   82MOL   C21026292   6.915   5.518   1.316 -0.4114 -0.0208  0.0954
   82MOL   C21126293   6.784   5.541   1.239 -0.4221  0.5803 -1.2290
   82MOL   C21226294   6.976   5.376   1.321  0.2651 -0.5367  0.0187
   82MOL   C21326295   7.125   5.362   1.283 -0.4639  1.4765 -0.1003
   82MOL   C21426296   7.213   5.259   1.349 -0.3997  0.4345  0.1911
   82MOL   C21526297   7.169   5.415   1.169  0.2386  0.6913  1.0424
   82MOL   H21626298   6.988   5.581   1.266 -0.8895  0.5928  0.1754
   82MOL   H21726299   6.809   5.509   1.138  1.6731 -2.6242  0.2033
   82MOL   H21826300   6.751   5.645   1.241 -1.5066  0.2200  0.8262
   82MOL   H21926301   6.708   5.471   1.274 -0.7898  1.1926 -0.7936
   82MOL   H22026302   6.987   5.353   1.427 -0.2286 -0.9440 -0.0155
   82MOL   H22126303   7.155   5.167   1.349 -1.8304  1.3105  0.1624
   82MOL   H22226304   7.224   5.292   1.453 -1.0074  1.1049  0.0471
   82MOL   H22326305   7.298   5.231   1.288 -0.9416 -1.0890  0.1174
   82MOL   H22426306   7.108   5.478   1.107  2.1571  1.6558  0.0903
   82MOL   H22526307   7.269   5.390   1.135  0.8746  1.4727  2.2947
   82MOL   C22626308   6.892   5.248   1.269 -0.7311  0.4954  0.0063
   82MOL   C22726309   6.876   5.248   1.113 -0.4659  0.3515 -0.1915
   82MOL   C22826310   6.760   5.212   1.341  0.3471  0.4193  0.4624
   82MOL   C22926311   6.747   5.236   1.492  0.0149 -0.0025 -0.4542
   82MOL   C23026312   6.838   5.158   1.587 -0.4363 -0.1224  0.0419
   82MOL   C23126313   6.668   5.336   1.542 -0.0146 -0.4421  0.2129
   82MOL   H23226314   6.964   5.167   1.278  0.6706  1.8509  1.4608
   82MOL   H23326315   6.895   5.153   1.062  0.1627  1.2318 -1.6536
   82MOL   H23426316   6.931   5.327   1.060 -0.2938  1.9132  2.2342
   82MOL   H23526317   6.780   5.292   1.087 -0.4544 -1.5137 -3.6993
   82MOL   H23626318   6.684   5.274   1.294 -1.6943 -2.7431 -0.5536
   82MOL   H23726319   6.814   5.052   1.593 -0.0126 -0.1139  2.0508
   82MOL   H23826320   6.832   5.189   1.691  0.8976 -1.0864  0.4215
   82MOL   H23926321   6.941   5.167   1.551 -0.7016  1.8728 -0.2783
   82MOL   H24026322   6.619   5.401   1.471  1.9311 -0.4252 -1.1455
   82MOL   H24126323   6.658   5.357   1.648  2.0489 -2.3479  0.8269
   82MOL   C24226324   6.711   5.064   1.304 -0.1051  0.1696 -0.1049
   82MOL   C24326325   6.823   4.956   1.315 -0.4693 -0.3650  0.2625
   82MOL   C24426326   6.615   5.051   1.177 -0.2417 -0.1978 -0.6752
   82MOL   C24526327   6.509   5.160   1.170  0.1710 -0.1602  0.7872
   82MOL   C24626328   6.466   5.190   1.030  0.7654 -0.8372  1.3046
   82MOL   C24726329   6.439   5.226   1.265 -0.5546 -0.2523  0.1541
   82MOL   H24826330   6.656   5.040   1.394 -0.6229  0.0420 -0.4558
   82MOL   H24926331   6.785   4.866   1.363 -0.1768 -1.9935 -2.4089
   82MOL   H25026332   6.894   4.991   1.390 -1.0638 -0.0978  0.7066
   82MOL   H25126333   6.878   4.932   1.224 -0.8010 -0.5483  0.1081
   82MOL   H25226334   6.680   5.068   1.091  0.2205  2.1141  0.0895
   82MOL   H25326335   6.393   5.117   0.997  1.1300  0.5827 -2.9736
   82MOL   H25426336   6.547   5.196   0.957 -1.7470  2.0596 -1.4195
   82MOL   H25526337   6.423   5.290   1.019  0.9036 -0.8802  0.3128
   82MOL   H25626338   6.459   5.208   1.369 -0.3043 -2.5762 -0.2692
   82MOL   H25726339   6.362   5.297   1.239  0.5989  1.3664  1.0478
   82MOL   C25826340   6.550   4.909   1.154 -0.1522  0.9146  0.3110
   82MOL   C25926341   6.470   4.865   1.274 -0.4322 -0.4507  0.3022
   82MOL   C26026342   6.636   4.795   1.086  0.6577 -0.6424  0.0284
   82MOL   C26126343   6.731   4.834   0.969  0.6192 -0.5785  0.1461
   82MOL   C26226344   6.668   4.901   0.844 -0.1305  0.0435 -0.4643
   82MOL   C26326345   6.863   4.810   0.978  0.3829  0.1791  0.1693
   82MOL   H26426346   6.480   4.923   1.073  0.4710  1.0996 -0.2031
   82MOL   H26526347   6.537   4.809   1.340 -1.4809 -1.2280  0.7076
   82MOL   H26626348   6.384   4.802   1.255 -0.3108 -0.4820 -0.1466
   82MOL   H26726349   6.424   4.951   1.322 -1.8845 -1.9325  1.6081
   82MOL   H26826350   6.711   4.765   1.159  0.2066  0.4913  0.9696
   82MOL   H26926351   6.605   4.983   0.880 -2.0201 -1.1658 -0.9892
   82MOL   H27026352   6.601   4.840   0.785 -0.5960 -1.3629  1.4606
   82MOL   H27126353   6.750   4.941   0.785  0.1071 -0.0592 -0.2081
   82MOL   H27226354   6.909   4.753   1.058 -1.1855 -0.5785  0.5492
   82MOL   H27326355   6.931   4.851   0.905  0.9495  1.4853  1.4194
   82MOL   C27426356   6.565   4.663   1.065 -0.5409 -0.4061  0.0668
   82MOL   C27526357   6.432   4.684   0.995 -0.0071  0.2529 -0.7064
   82MOL   C27626358   6.564   4.562   1.189  0.6627 -0.5026 -0.1845
   82MOL   C27726359   6.702   4.538   1.243 -0.2516 -0.2429 -0.2829
   82MOL   C27826360   6.715   4.544   1.392 -0.2798 -0.4141  0.6696
   82MOL   C27926361   6.810   4.509   1.169  0.0939 -0.6044 -0.1132
   82MOL   H28026362   6.637   4.619   0.996  0.7833  2.0488 -0.1586
   82MOL   H28126363   6.423   4.745   0.905 -0.4627  0.8325 -0.2725
   82MOL   H28226364   6.364   4.735   1.063  2.5041  1.5391  0.9429
   82MOL   H28326365   6.394   4.589   0.959  3.3118 -1.1416 -0.6835
   82MOL   H28426366   6.504   4.603   1.271 -0.2155  0.6259 -1.3866
   82MOL   H28526367   6.636   4.480   1.431  0.3222 -1.7489 -0.2455
   82MOL   H28626368   6.686   4.640   1.434  1.2187 -0.1092  1.0348
   82MOL   H28726369   6.804   4.513   1.446 -0.9116  0.7626  2.4232
   82MOL   H28826370   6.800   4.502   1.062 -0.9314 -0.8941 -0.0019
   82MOL   H28926371   6.908   4.493   1.212  0.6613  2.1148 -0.2967
   82MOL   C29026372   6.501   4.421   1.170 -0.6029  0.4932 -0.0116
   82MOL   C29126373   6.540   4.354   1.038 -0.8324  0.2919 -0.6487
   82MOL   C29226374   6.340   4.424   1.187 -0.1121  0.4686  0.1521
   82MOL   C29326375   6.299   4.477   1.329  0.1348  0.8082 -0.1761
   82MOL   C29426376   6.191   4.582   1.336  0.2194 -0.0025 -0.0404
   82MOL   C29526377   6.361   4.441   1.439  0.7016 -0.0687  0.3409
   82MOL   H29626378   6.537   4.365   1.256 -1.3979  0.9371  0.6255
   82MOL   H29726379   6.642   4.376   1.008 -0.3773 -0.0400  0.6130
   82MOL   H29826380   6.472   4.389   0.961 -0.4933  1.1173 -0.5775
   82MOL   H29926381   6.541   4.245   1.041  3.3576  0.1981 -1.8013
   82MOL   H30026382   6.299   4.508   1.130  0.6977  0.5917 -0.2529
   82MOL   H30126383   6.213   4.685   1.309 -0.7170 -0.1116 -1.2660
   82MOL   H30226384   6.143   4.579   1.433  0.6004  0.6839  0.1749
   82MOL   H30326385   6.111   4.557   1.267  0.3538  0.8654 -0.5142
   82MOL   H30426386   6.431   4.359   1.445  2.7891  1.5180 -1.7030
   82MOL   H30526387   6.330   4.496   1.527 -0.6861  0.6927 -0.5935
   82MOL   C30626388   6.268   4.295   1.144  0.1203  0.3279  0.9917
   82MOL   C30726389   6.121   4.313   1.111 -0.0472 -0.3362 -0.0443
   82MOL   C30826390   6.283   4.180   1.249 -0.1696  0.1997  0.1120
   82MOL   C30926391   6.272   4.044   1.177  0.0306  0.0804  0.0167
   82MOL   C31026392   6.392   4.010   1.081 -0.8156  1.0228 -0.0517
   82MOL   C31126393   6.163   3.970   1.193 -0.4134  0.0021 -0.9427
   82MOL   H31226394   6.313   4.271   1.048 -0.8378  1.9723  0.1175
   82MOL   H31326395   6.075   4.232   1.056  0.9259 -2.5056  2.2124
   82MOL   H31426396   6.105   4.396   1.042  0.4411  1.7236  2.2446
   82MOL   H31526397   6.064   4.333   1.202  0.5695  3.6808 -0.4346
   82MOL   H31626398   6.372   4.189   1.311  0.1928 -1.1611 -0.1850
   82MOL   H31726399   6.384   3.911   1.036  1.8682  0.4187  0.6745
   82MOL   H31826400   6.486   4.020   1.136 -0.4021 -1.6277 -0.1954
   82MOL   H31926401   6.390   4.079   0.997  0.2713  1.0205 -0.0966
   82MOL   H32026402   6.077   4.001   1.250 -0.3852  0.8735 -1.3636
   82MOL   H32126403   6.163   3.879   1.135 -0.3737  0.6855 -2.0263
   82MOL   H32226404   6.204   4.188   1.323 -1.0412 -1.7591 -0.5677
   83MOL     C126405   6.088   2.266   0.749 -0.0739 -0.6077 -0.2155
   83MOL     C226406   6.201   2.367   0.716 -0.3670 -0.7309  1.0275
   83MOL     C326407   5.954   2.337   0.775 -0.5802 -0.3288  0.5638
   83MOL     C426408   5.947   2.407   0.918  0.7424  0.5648  0.5791
   83MOL     C526409   5.905   2.551   0.914 -0.6633 -0.3464  0.1133
   83MOL     C626410   5.970   2.338   1.038 -0.4626  0.5911  0.3767
   83MOL     H726411   6.085   2.204   0.659 -0.6924  0.0758 -0.6744
   83MOL     H826412   6.213   2.429   0.805  1.4420  0.8763 -0.2852
   83MOL     H926413   6.178   2.432   0.631  0.5261 -1.4178  0.2612
   83MOL    H1026414   6.297   2.317   0.703 -0.5513 -1.0148  0.7536
   83MOL    H1126415   5.951   2.423   0.708  3.5445 -1.4229 -1.2058
   83MOL    H1226416   5.922   2.597   1.011 -0.7849 -1.7622  0.8253
   83MOL    H1326417   5.799   2.566   0.897 -0.6677 -0.3451  0.1438
   83MOL    H1426418   5.951   2.613   0.837 -0.1146 -1.3937 -0.4298
   83MOL    H1526419   6.001   2.235   1.047  2.1641  1.3316  0.0235
   83MOL    H1626420   5.963   2.397   1.129 -0.4534  2.1097 -0.5803
   83MOL    H1726421   6.132   2.201   0.825 -2.2281 -0.0399  1.5427
   83MOL    C1826422   5.826   2.254   0.744 -0.4701  0.2942  1.0660
   83MOL    C1926423   5.827   2.133   0.837  0.1003  0.1780 -0.5617
   83MOL    C2026424   5.805   2.225   0.587  0.4243  0.2775  0.0008
   83MOL    C2126425   5.825   2.348   0.501  0.4307  0.1593 -0.4131
   83MOL    C2226426   5.733   2.468   0.524 -0.7803 -0.2444  0.0391
   83MOL    C2326427   5.927   2.357   0.413  0.0842  0.1850 -0.1005
   83MOL    H2426428   5.739   2.312   0.776 -0.8018 -1.5490  3.6235
   83MOL    H2526429   5.806   2.159   0.941  0.2162  0.6240 -0.6447
   83MOL    H2626430   5.911   2.065   0.826  1.0739  1.5346 -1.6047
   83MOL    H2726431   5.750   2.062   0.808 -0.0097  0.1781 -0.2781
   83MOL    H2826432   5.890   2.160   0.566  0.3506 -0.1474  0.9595
   83MOL    H2926433   5.726   2.490   0.631  0.7996  1.0277 -0.0871
   83MOL    H3026434   5.642   2.446   0.469  1.6143  1.0359 -4.6766
   83MOL    H3126435   5.767   2.553   0.465  0.1612 -1.4194 -1.1390
   83MOL    H3226436   5.995   2.274   0.400 -1.7383 -1.5396  1.0011
   83MOL    H3326437   5.952   2.439   0.348  0.4754 -1.6438 -2.3249
   83MOL    C3426438   5.679   2.145   0.534  0.1354 -0.5255  0.8340
   83MOL    C3526439   5.555   2.169   0.619 -0.0538 -0.1112  0.0098
   83MOL    C3626440   5.699   1.991   0.496 -0.2358 -0.3898  0.3811
   83MOL    C3726441   5.827   1.964   0.417 -0.0379  0.9109 -0.4923
   83MOL    C3826442   5.840   2.022   0.286  0.3170 -0.3846  0.4211
   83MOL    C3926443   5.931   1.903   0.477  0.1404 -0.0175 -0.1050
   83MOL    H4026444   5.644   2.197   0.445  2.3745 -1.9089 -0.9094
   83MOL    H4126445   5.515   2.271   0.622  1.4298  0.4639  0.6866
   83MOL    H4226446   5.580   2.126   0.716  0.0188  1.4862  0.7191
   83MOL    H4326447   5.474   2.115   0.570 -1.2106 -1.4114  3.2346
   83MOL    H4426448   5.722   1.937   0.589 -1.0931  1.2208  1.5515
   83MOL    H4526449   5.926   1.965   0.250  0.0725 -1.8845  2.1403
   83MOL    H4626450   5.860   2.127   0.264  0.0311 -0.3870  0.1453
   83MOL    H4726451   5.765   1.998   0.211 -1.4537  0.1344  2.0082
   83MOL    H4826452   5.908   1.859   0.573 -1.9482  0.8652 -0.1588
   83MOL    H4926453   6.029   1.901   0.433 -0.6861  3.0020 -2.2123
   83MOL    C5026454   5.577   1.929   0.422 -0.4709  0.7472  0.0286
   83MOL    C5126455   5.506   2.023   0.320 -0.7160  0.4441  0.2251
   83MOL    C5226456   5.478   1.844   0.516 -0.8919  0.8567  0.2308
   83MOL    C5326457   5.561   1.757   0.623 -0.0809  0.2434 -0.3654
   83MOL    C5426458   5.552   1.797   0.769 -0.1157  0.0290 -1.1879
   83MOL    C5526459   5.639   1.647   0.590  0.6940 -0.3139  0.5614
   83MOL    H5626460   5.626   1.851   0.363 -2.0646 -0.6963  0.5500
   83MOL    H5726461   5.418   2.079   0.353 -1.7184 -0.0376 -1.5978
   83MOL    H5826462   5.460   1.970   0.237 -0.4573 -1.0615  1.0143
   83MOL    H5926463   5.571   2.092   0.267 -0.6223 -1.5582 -2.3310
   83MOL    H6026464   5.422   1.915   0.577 -1.5598 -1.3030  2.2239
   83MOL    H6126465   5.531   1.711   0.832  0.6889  1.5665  1.2462
   83MOL    H6226466   5.486   1.879   0.794 -0.6525 -1.1762  1.4702
   83MOL    H6326467   5.657   1.817   0.791 -0.3265  0.4013 -0.5264
   83MOL    H6426468   5.652   1.609   0.490 -1.2862 -0.5513  0.3847
   83MOL    H6526469   5.691   1.598   0.672  0.5003 -0.2066  0.7494
   83MOL    C6626470   5.361   1.755   0.444 -0.5203  0.4517 -0.6521
   83MOL    C6726471   5.418   1.682   0.323 -0.1084  0.7091  0.2268
   83MOL    C6826472   5.219   1.822   0.424  0.0820 -0.1905 -1.0962
   83MOL    C6926473   5.168   1.891   0.546  0.7295  0.4500 -0.2211
   83MOL    C7026474   5.121   2.028   0.523  0.6679 -0.2173  0.0458
   83MOL    C7126475   5.179   1.840   0.672  0.5525 -0.4811  0.4760
   83MOL    H7226476   5.341   1.672   0.511 -2.0440  0.1905 -1.3968
   83MOL    H7326477   5.501   1.615   0.348 -0.7309 -0.8215 -1.7372
   83MOL    H7426478   5.454   1.753   0.249 -0.0514  1.1079  0.6350
   83MOL    H7526479   5.344   1.620   0.274  0.4866  1.7412 -2.0122
   83MOL    H7626480   5.252   1.910   0.368 -1.2290  0.3820 -1.0140
   83MOL    H7726481   5.095   2.074   0.618 -0.9330 -0.7569 -0.1200
   83MOL    H7826482   5.040   2.022   0.450  0.6087 -0.0665  0.1020
   83MOL    H7926483   5.188   2.098   0.473 -0.0638 -1.1535 -2.3417
   83MOL    H8026484   5.219   1.741   0.686  0.6372 -0.6024 -0.5616
   83MOL    H8126485   5.157   1.895   0.763 -1.6940 -0.7799  0.1351
   83MOL    C8226486   5.111   1.730   0.350  0.3686 -0.3269  0.7732
   83MOL    C8326487   5.107   1.591   0.409 -0.1057  0.0726  0.1035
   83MOL    C8426488   5.101   1.732   0.198  0.6379 -0.2095 -1.4245
   83MOL    C8526489   5.172   1.849   0.130 -0.0760 -0.0798 -0.0464
   83MOL    C8626490   5.117   1.985   0.154 -0.2848  0.0542 -0.2030
   83MOL    C8726491   5.274   1.828   0.046 -0.1813  0.1232  0.0964
   83MOL    H8826492   5.014   1.775   0.369  0.4152  0.2142 -0.2728
   83MOL    H8926493   5.203   1.539   0.400  0.6345  1.1650  1.5945
   83MOL    H9026494   5.025   1.525   0.380  0.0367 -0.0415 -0.0459
   83MOL    H9126495   5.093   1.607   0.516  0.0234  0.0648  0.1217
   83MOL    H9226496   5.161   1.643   0.179  0.4779  0.0819 -3.3205
   83MOL    H9326497   5.203   2.049   0.175  1.2227 -1.4926 -1.4415
   83MOL    H9426498   5.061   1.996   0.247  1.7645  1.2440  0.9268
   83MOL    H9526499   5.050   2.010   0.071  0.7410  2.4167 -0.3594
   83MOL    H9626500   5.303   1.728   0.018 -2.9271 -0.2834 -1.5315
   83MOL    H9726501   5.334   1.908   0.004  0.2448 -1.2348 -1.9365
   83MOL    C9826502   4.953   1.716   0.139  0.3499  0.2322  0.0555
   83MOL    C9926503   4.854   1.612   0.209 -0.5038  0.6119  0.4534
   83MOL   C10026504   4.942   1.720   7.872  0.4445  0.2588 -0.5633
   83MOL   C10126505   4.809   1.788   7.836 -0.1936 -1.0856  0.0330
   83MOL   C10226506   4.823   1.939   7.808  0.4014 -0.1156 -0.3959
   83MOL   C10326507   4.692   1.735   7.827 -0.1280 -0.7146 -0.4533
   83MOL   H10426508   4.914   1.811   0.177 -0.5597 -1.1490  2.7221
   83MOL   H10526509   4.747   1.631   0.197  0.0311  2.4243 -1.7421
   83MOL   H10626510   4.858   1.632   0.316  2.9639  0.1071  0.4700
   83MOL   H10726511   4.865   1.506   0.187 -0.7483 -0.0691  3.3890
   83MOL   H10826512   5.020   1.789   7.839 -0.4199  1.6126  0.1876
   83MOL   H10926513   4.771   1.963   7.715  0.0135  1.6135  0.2558
   83MOL   H11026514   4.924   1.978   7.799  0.5601 -0.3711  0.2656
   83MOL   H11126515   4.773   1.986   0.000  1.0188  0.2812 -0.2534
   83MOL   H11226516   4.669   1.631   7.844  0.7336 -0.3773  3.1165
   83MOL   H11326517   4.605   1.792   7.799  0.5039 -0.0010 -0.9754
   83MOL   C11426518   4.960   1.575   7.801 -0.3475 -0.2266  0.5091
   83MOL   C11526519   5.080   1.492   7.857  0.3391  0.3292 -0.0093
   83MOL   C11626520   4.932   1.574   7.647 -0.2619  0.2665  0.6401
   83MOL   C11726521   4.827   1.468   7.617 -0.2400 -0.1203 -0.3843
   83MOL   C11826522   4.856   1.323   7.637 -0.3322 -0.3857  0.2128
   83MOL   C11926523   4.700   1.503   7.582 -0.4881  0.2312  0.0048
   83MOL   H12026524   4.880   1.514   7.842 -1.2811 -0.2093 -1.2283
   83MOL   H12126525   5.076   1.458   0.068  1.8294  2.5468  0.8217
   83MOL   H12226526   5.174   1.546   7.858 -1.4312  3.5220  1.4502
   83MOL   H12326527   5.099   1.401   7.801 -0.7170 -0.8548  1.5111
   83MOL   H12426528   4.882   1.665   7.616  1.4300  0.8391 -0.4708
   83MOL   H12526529   4.761   1.271   7.649 -1.1420  0.5350 -1.9371
   83MOL   H12626530   4.902   1.307   7.734 -1.5670 -0.1466  0.8447
   83MOL   H12726531   4.917   1.276   7.560  0.7496 -1.6247  1.7883
   83MOL   H12826532   4.657   1.598   7.555 -2.8209 -0.8310 -0.1544
   83MOL   H12926533   4.626   1.426   7.565  0.1592 -0.2320 -0.7229
   83MOL   C13026534   5.052   1.557   7.548  0.0701 -0.0821  0.1468
   83MOL   C13126535   5.145   1.678   7.574 -0.1545 -0.2798 -1.4993
   83MOL   C13226536   5.031   1.534   7.391 -0.3455 -0.6968  0.0793
   83MOL   C13326537   5.150   1.464   7.324  0.4241  0.6238 -0.5997
   83MOL   C13426538   5.170   1.318   7.348 -0.4134  0.5087 -0.0494
   83MOL   C13526539   5.242   1.533   7.252 -0.6632 -0.1872  0.3322
   83MOL   H13626540   5.106   1.470   7.586 -0.6737 -0.1991  0.9682
   83MOL   H13726541   5.106   1.778   7.556  0.4504  0.1473 -0.4735
   83MOL   H13826542   5.222   1.669   7.497  0.3256 -0.2834 -1.0241
   83MOL   H13926543   5.190   1.678   7.673  1.0081  1.9043 -1.9881
   83MOL   H14026544   4.951   1.462   7.374 -0.3544 -0.8020  0.5631
   83MOL   H14126545   5.269   1.290   7.310  0.1403  0.1735  1.6224
   83MOL   H14226546   5.086   1.251   7.329  0.6097 -1.4648  2.0376
   83MOL   H14326547   5.181   1.287   7.452 -1.4100  1.3784  0.3131
   83MOL   H14426548   5.241   1.640   7.242 -0.5925 -0.3458 -1.6751
   83MOL   H14526549   5.317   1.482   7.193  0.8271  2.5076 -0.1445
   83MOL   C14626550   4.971   1.652   7.303  0.0738 -0.3476 -0.0994
   83MOL   C14726551   4.866   1.744   7.368 -0.0659  0.4076  0.0809
   83MOL   C14826552   4.929   1.616   7.155 -0.8793  0.5121  0.1666
   83MOL   C14926553   4.986   1.718   7.058  0.2688  0.3155 -0.2807
   83MOL   C15026554   4.932   1.860   7.070  0.2431  0.3661  0.1954
   83MOL   C15126555   5.078   1.691   6.964  0.0943  0.1775  0.1623
   83MOL   H15226556   5.056   1.720   7.295  0.1630 -0.1574  2.1419
   83MOL   H15326557   4.808   1.805   7.299 -2.9762 -1.2625  0.9556
   83MOL   H15426558   4.910   1.814   7.439 -0.3165  0.3072  0.3335
   83MOL   H15526559   4.790   1.680   7.413 -0.9507  0.5787 -1.1406
   83MOL   H15626560   4.987   1.526   7.133  0.9199  1.5869  0.4262
   83MOL   H15726561   4.826   1.861   7.095  0.5008 -0.1156  1.3301
   83MOL   H15826562   4.930   1.905   6.971 -3.0303  1.2409  0.6014
   83MOL   H15926563   4.998   1.915   7.136  0.7144  0.8054 -0.6323
   83MOL   H16026564   5.124   1.596   6.944 -1.7108  0.0918 -4.0354
   83MOL   H16126565   5.117   1.773   6.906  1.3100 -0.6925 -0.2619
   83MOL   C16226566   4.783   1.563   7.138  0.6316  0.2878  0.3773
   83MOL   C16326567   4.752   1.423   7.204  0.1168 -0.0930  1.1029
   83MOL   C16426568   4.708   1.597   7.000  0.0405  0.6251  0.7077
   83MOL   C16526569   4.567   1.660   7.029  0.5673  0.0967  0.0002
   83MOL   C16626570   4.551   1.813   7.019 -0.4296  0.1112  0.1901
   83MOL   C16726571   4.462   1.584   7.067 -0.4268 -0.1073 -0.7988
   83MOL   H16826572   4.722   1.624   7.205  2.5936  0.7968  1.7386
   83MOL   H16926573   4.841   1.360   7.196 -1.2348 -2.0213  0.9371
   83MOL   H17026574   4.662   1.379   7.162  0.1630  2.9923 -2.5008
   83MOL   H17126575   4.733   1.438   7.310  1.0947  0.2796  1.2364
   83MOL   H17226576   4.759   1.676   6.946  2.5475 -1.6676 -0.4047
   83MOL   H17326577   4.614   1.859   7.094 -0.2530  1.4727 -0.7853
   83MOL   H17426578   4.449   1.837   7.052  0.1498  0.8485  1.4724
   83MOL   H17526579   4.551   1.833   6.912  1.0438 -0.4279  0.0774
   83MOL   H17626580   4.473   1.477   7.071  0.8864 -0.0696 -2.4606
   83MOL   H17726581   4.367   1.630   7.090 -1.2413 -2.4667  0.6391
   83MOL   C17826582   4.705   1.476   6.908 -0.7462  1.1753  1.1154
   83MOL   C17926583   4.839   1.414   6.883 -0.6238 -0.3096 -0.0729
   83MOL   C18026584   4.613   1.486   6.781  0.0558  0.3715 -0.2855
   83MOL   C18126585   4.524   1.360   6.767 -0.0890 -0.2980 -0.9137
   83MOL   C18226586   4.592   1.231   6.730  0.1570 -0.1715 -0.2764
   83MOL   C18326587   4.396   1.365   6.800 -0.2344  0.1660 -0.2760
   83MOL   H18426588   4.659   1.397   6.968  1.6539 -1.8073 -0.8026
   83MOL   H18526589   4.827   1.335   6.808 -0.4991 -1.3241  0.9743
   83MOL   H18626590   4.882   1.374   6.974  1.2926  0.1369 -0.7559
   83MOL   H18726591   4.910   1.484   6.840  1.2480 -0.6892  2.2993
   83MOL   H18826592   4.541   1.566   6.798 -1.0313 -0.4157 -1.1439
   83MOL   H18926593   4.528   1.144   6.720  0.0286 -0.0426 -0.5622
   83MOL   H19026594   4.656   1.209   6.816 -0.9759 -0.8696  0.3971
   83MOL   H19126595   4.652   1.240   6.639 -0.2596  0.2148 -0.5152
   83MOL   H19226596   4.349   1.455   6.838  2.0687  0.8864  0.9341
   83MOL   H19326597   4.324   1.285   6.794 -2.5113  1.9911  1.2623
   83MOL   C19426598   4.675   1.542   6.641 -0.1114 -0.3997 -0.4237
   83MOL   C19526599   4.751   1.674   6.665  0.3997  0.2416  0.1777
   83MOL   C19626600   4.584   1.545   6.516 -0.0231 -0.0061 -0.0944
   83MOL   C19726601   4.670   1.472   6.404 -0.0073  0.2334  0.0140
   83MOL   C19826602   4.786   1.542   6.341  0.2757  0.5368  1.2248
   83MOL   C19926603   4.649   1.341   6.383 -0.4456  0.1354 -0.0285
   83MOL   H20026604   4.751   1.465   6.625  2.1921  1.3531  1.6938
   83MOL   H20126605   4.790   1.713   6.571 -1.3511 -1.0380 -1.1088
   83MOL   H20226606   4.836   1.668   6.733 -0.4433  0.0725  1.2300
   83MOL   H20326607   4.688   1.759   6.691  0.0575 -0.4197  1.5600
   83MOL   H20426608   4.503   1.473   6.534  0.8168 -0.7865  0.6104
   83MOL   H20526609   4.844   1.600   6.413  0.4227 -1.4988  2.8092
   83MOL   H20626610   4.733   1.617   6.283  3.6394  1.4932 -0.7578
   83MOL   H20726611   4.847   1.493   6.265  0.0328  0.9683  0.7523
   83MOL   H20826612   4.571   1.282   6.429  0.9215 -1.6998  0.0185
   83MOL   H20926613   4.715   1.297   6.310  0.8100 -1.9970  2.3293
   83MOL   C21026614   4.499   1.665   6.474  0.5340 -0.7987  0.1868
   83MOL   C21126615   4.412   1.717   6.581  1.2351  0.1734  0.4729
   83MOL   C21226616   4.412   1.649   6.341 -0.0893 -0.1402 -0.4414
   83MOL   C21326617   4.418   1.778   6.259 -0.1180 -0.4155 -0.3412
   83MOL   C21426618   4.533   1.793   6.165  0.5778 -0.8247 -0.2008
   83MOL   C21526619   4.335   1.881   6.273  0.5230 -0.0787 -0.5982
   83MOL   H21626620   4.562   1.753   6.460  0.7164 -1.0525 -0.6297
   83MOL   H21726621   4.372   1.630   6.633  2.2923 -2.6621 -3.2500
   83MOL   H21826622   4.350   1.803   6.555 -0.2752 -0.1833  2.7391
   83MOL   H21926623   4.464   1.760   6.668  1.7844  0.2950  0.0872
   83MOL   H22026624   4.462   1.577   6.275 -0.5082 -2.7138  1.9543
   83MOL   H22126625   4.537   1.870   6.087  0.2941 -1.6259 -1.0135
   83MOL   H22226626   4.555   1.696   6.122  0.8818 -0.2588 -1.3434
   83MOL   H22326627   4.626   1.818   6.216 -1.8900 -0.0917  4.1930
   83MOL   H22426628   4.260   1.864   6.349  0.9893  0.3296 -0.0348
   83MOL   H22526629   4.350   1.969   6.213  0.4334 -0.1109 -0.6678
   83MOL   C22626630   4.265   1.588   6.353 -0.7452 -0.5602 -0.4497
   83MOL   C22726631   4.276   1.441   6.415  0.0304  0.0481 -0.5462
   83MOL   C22826632   4.175   1.584   6.225  0.0110 -0.0624  0.2063
   83MOL   C22926633   4.027   1.612   6.265 -0.4705  0.0828 -0.6778
   83MOL   C23026634   3.982   1.752   6.257  0.8627 -0.4721 -0.7189
   83MOL   C23126635   3.943   1.515   6.318 -0.8367 -0.2532  0.2197
   83MOL   H23226636   4.210   1.651   6.422 -3.1872 -1.4467 -1.5283
   83MOL   H23326637   4.188   1.380   6.394  0.8766 -0.5708 -2.5003
   83MOL   H23426638   4.305   1.433   6.519 -0.6263  0.6095 -0.3158
   83MOL   H23526639   4.348   1.373   6.369 -0.8647  1.0403 -3.5255
   83MOL   H23626640   4.200   1.669   6.162  2.9596 -0.3235  0.9593
   83MOL   H23726641   4.015   1.794   6.162  4.0035 -0.1167  0.4779
   83MOL   H23826642   4.027   1.802   6.344  0.4181  0.7382 -1.1722
   83MOL   H23926643   3.873   1.755   6.262  0.9104 -1.2457  1.6543
   83MOL   H24026644   3.977   1.413   6.325  2.3596  0.7463 -0.0703
   83MOL   H24126645   3.846   1.540   6.359 -0.0420  1.9530  0.8084
   83MOL   C24226646   4.184   1.450   6.134 -1.0266  0.3766  0.6982
   83MOL   C24326647   4.333   1.432   6.086  0.5937  0.1378  0.0831
   83MOL   C24426648   4.078   1.425   6.021  0.5166  0.0712  0.4304
   83MOL   C24526649   4.023   1.278   6.024  0.0354  0.3114  0.1895
   83MOL   C24626650   4.127   1.169   5.993 -0.1099  0.2278 -0.3547
   83MOL   C24726651   3.896   1.247   6.050  0.5960  0.0766 -0.3446
   83MOL   H24826652   4.156   1.365   6.196  2.1791 -0.3681  1.2272
   83MOL   H24926653   4.332   1.370   5.996 -2.7623 -2.4531  1.7705
   83MOL   H25026654   4.386   1.388   6.170  0.0389 -0.1939  0.2667
   83MOL   H25126655   4.371   1.533   6.071 -1.1266  0.6449 -1.0723
   83MOL   H25226656   3.994   1.493   6.033  1.4667  0.9234  2.3352
   83MOL   H25326657   4.086   1.073   6.023 -2.1356  1.6890  1.6552
   83MOL   H25426658   4.215   1.168   6.058 -0.0495 -1.2855 -0.4414
   83MOL   H25526659   4.150   1.175   5.887  0.9485  0.4031 -0.1275
   83MOL   H25626660   3.841   1.331   6.089  2.0174 -0.0588  2.0187
   83MOL   H25726661   3.849   1.150   6.044 -1.5264  1.0364  0.4402
   83MOL   C25826662   4.108   1.466   5.865 -0.8141 -0.1576 -0.2490
   83MOL   C25926663   4.171   1.609   5.845 -0.0498  0.6591  0.2288
   83MOL   C26026664   3.987   1.453   5.768  0.8819  0.2508 -0.6884
   83MOL   C26126665   4.029   1.393   5.637 -0.1656 -0.4318 -0.1120
   83MOL   C26226666   4.110   1.481   5.537 -1.0882  0.9498  0.2663
   83MOL   C26326667   4.005   1.262   5.606  0.3407  0.1614 -0.7076
   83MOL   H26426668   4.189   1.402   5.832  1.2248  2.0495  0.3062
   83MOL   H26526669   4.183   1.639   5.741 -3.6333  0.9213 -0.1885
   83MOL   H26626670   4.264   1.606   5.902  1.7897 -1.3047 -2.7277
   83MOL   H26726671   4.106   1.684   5.891  0.5325 -0.0114  2.1937
   83MOL   H26826672   3.922   1.382   5.818 -0.2652  0.9564 -1.1752
   83MOL   H26926673   4.214   1.491   5.571 -0.4935 -0.5104 -1.0514
   83MOL   H27026674   4.069   1.582   5.532 -0.7586  1.1367  1.1581
   83MOL   H27126675   4.106   1.429   5.442  0.2831 -0.0682  0.7385
   83MOL   H27226676   3.957   1.187   5.667  1.7332 -1.4497 -1.5618
   83MOL   H27326677   4.038   1.223   5.511 -2.1767 -0.8646 -1.2037
   83MOL   C27426678   3.889   1.577   5.745  0.1278  0.1057  1.2961
   83MOL   C27526679   3.827   1.622   5.873 -0.0780 -0.5755  0.0425
   83MOL   C27626680   3.776   1.559   5.629 -0.3233 -0.0032  0.2742
   83MOL   C27726681   3.767   1.684   5.546 -0.0521  0.1918  0.3128
   83MOL   C27826682   3.708   1.816   5.611 -0.0175 -0.1751  0.4844
   83MOL   C27926683   3.811   1.680   5.417 -0.0105  0.0363  0.1990
   83MOL   H28026684   3.942   1.667   5.715  0.2646  0.1633  1.7063
   83MOL   H28126685   3.732   1.672   5.856 -0.2054 -0.5377  0.8600
   83MOL   H28226686   3.887   1.683   5.940  0.2482 -0.3397 -0.4601
   83MOL   H28326687   3.797   1.542   5.941  1.1420 -0.2466  0.9690
   83MOL   H28426688   3.820   1.484   5.562  2.7487 -0.0118  2.2198
   83MOL   H28526689   3.765   1.846   5.699 -1.3877 -0.0258  1.3319
   83MOL   H28626690   3.606   1.811   5.650 -0.1235  0.3370  0.2731
   83MOL   H28726691   3.709   1.894   5.535  0.8799  0.6883  1.3626
   83MOL   H28826692   3.843   1.582   5.383 -1.8881 -0.8643  0.9741
   83MOL   H28926693   3.804   1.758   5.343 -3.1508  1.7993  2.2859
   83MOL   C29026694   3.639   1.501   5.659 -0.2162 -0.4547  0.2938
   83MOL   C29126695   3.645   1.371   5.734 -0.1074 -0.1126  0.3484
   83MOL   C29226696   3.534   1.499   5.535  0.3389  0.4723  0.4662
   83MOL   C29326697   3.396   1.548   5.583  0.0955  0.3792  0.7325
   83MOL   C29426698   3.316   1.476   5.693  0.6829  0.7481  0.3136
   83MOL   C29526699   3.350   1.664   5.541 -0.0805 -0.5258  0.0122
   83MOL   H29626700   3.590   1.561   5.735  0.0549  0.7891 -0.4964
   83MOL   H29726701   3.546   1.335   5.760  0.3151 -1.2430  0.4256
   83MOL   H29826702   3.705   1.385   5.824 -0.0631  1.6001  0.0639
   83MOL   H29926703   3.700   1.298   5.674 -1.9887 -0.3142 -1.1729
   83MOL   H30026704   3.570   1.556   5.450  2.2819 -0.8440  0.3631
   83MOL   H30126705   3.368   1.456   5.786 -1.9262 -2.8417  1.1169
   83MOL   H30226706   3.284   1.374   5.670  0.4472  1.0885 -0.8829
   83MOL   H30326707   3.232   1.539   5.723  1.8420  2.5184 -0.0877
   83MOL   H30426708   3.396   1.730   5.469 -1.5337 -1.0558 -1.4150
   83MOL   H30526709   3.258   1.709   5.577 -0.9511 -0.7232 -1.9298
   83MOL   C30626710   3.512   1.363   5.450 -0.2890 -0.4804  0.7048
   83MOL   C30726711   3.646   1.319   5.385  0.3130 -0.2547 -0.4837
   83MOL   C30826712   3.398   1.361   5.346  0.1256  0.3271  0.1646
   83MOL   C30926713   3.269   1.284   5.385  0.4037  0.1477 -1.2424
   83MOL   C31026714   3.289   1.133   5.390 -0.6155  0.6952 -0.1074
   83MOL   C31126715   3.151   1.348   5.418 -0.1734  0.0199 -0.2260
   83MOL   H31226716   3.473   1.293   5.524 -1.0274 -0.7050  0.1125
   83MOL   H31326717   3.641   1.232   5.320 -0.9423 -2.3234  2.2462
   83MOL   H31426718   3.717   1.292   5.463 -0.0112  1.5885  0.4957
   83MOL   H31526719   3.689   1.410   5.343 -0.8207  2.4011  3.7732
   83MOL   H31626720   3.379   1.462   5.311 -1.0501 -0.1225 -0.5572
   83MOL   H31726721   3.324   1.112   5.289 -0.8949  0.4563 -0.1547
   83MOL   H31826722   3.198   1.076   5.405  0.3233 -0.7306  0.2069
   83MOL   H31926723   3.371   1.107   5.457 -0.1369  3.3382  0.4193
   83MOL   H32026724   3.144   1.455   5.405 -0.3753 -0.1301 -1.3870
   83MOL   H32126725   3.058   1.299   5.440  0.0590 -1.1458 -1.7396
   83MOL   H32226726   3.433   1.319   5.251  1.1760 -0.5770  0.9523
   84MOL     C126727   1.772   1.271   2.150  0.5516 -0.6644  0.0171
   84MOL     C226728   1.871   1.153   2.188  0.0508  0.2885 -0.3180
   84MOL     C326729   1.684   1.252   2.024 -0.1542 -0.0556 -0.4502
   84MOL     C426730   1.770   1.233   1.901  0.4007 -0.4212  0.4435
   84MOL     C526731   1.860   1.352   1.854  0.2071 -0.3430 -0.3949
   84MOL     C626732   1.762   1.122   1.828 -0.0741  0.8484 -0.1877
   84MOL     H726733   1.707   1.305   2.231  2.0844 -0.9561  1.3871
   84MOL     H826734   1.968   1.155   2.139  1.5597  2.2372  2.6523
   84MOL     H926735   1.842   1.049   2.170 -1.0950  0.3894  0.8927
   84MOL    H1026736   1.889   1.161   2.295  0.6039 -1.1662 -0.2799
   84MOL    H1126737   1.650   1.149   2.035  1.8963 -0.6139  1.1570
   84MOL    H1226738   1.801   1.429   1.803 -1.9667 -1.3528  0.5075
   84MOL    H1326739   1.936   1.325   1.781  1.2776 -0.2522  0.6874
   84MOL    H1426740   1.918   1.396   1.935  0.5325 -0.9272 -0.3082
   84MOL    H1526741   1.707   1.034   1.857  1.6196 -0.0058  0.5444
   84MOL    H1626742   1.801   1.113   1.728 -2.2715  0.0006 -1.0002
   84MOL    H1726743   1.837   1.358   2.144 -1.8362  1.2123  0.7249
   84MOL    C1826744   1.562   1.351   2.005 -0.9757  0.0147  0.1426
   84MOL    C1926745   1.617   1.498   2.027  0.2086  0.0617 -0.0930
   84MOL    C2026746   1.425   1.315   2.091 -0.0893  0.0670 -0.2693
   84MOL    C2126747   1.400   1.166   2.106  0.3186  0.3411 -0.1875
   84MOL    C2226748   1.362   1.100   1.973 -0.6503  0.4182 -0.0575
   84MOL    C2326749   1.403   1.100   2.223  1.2377  0.4075 -0.2279
   84MOL    H2426750   1.536   1.336   1.900 -0.9130 -0.0400  0.1348
   84MOL    H2526751   1.639   1.525   2.131  0.1862  1.2663 -0.3906
   84MOL    H2626752   1.549   1.574   1.988 -1.7392 -1.2367  0.6981
   84MOL    H2726753   1.714   1.509   1.978 -0.0694 -2.7443 -1.3598
   84MOL    H2826754   1.443   1.346   2.194 -2.0005  1.5703 -0.3580
   84MOL    H2926755   1.322   0.999   1.987  1.3664 -0.1871  1.4892
   84MOL    H3026756   1.441   1.102   1.898 -1.4652  1.1811 -0.9089
   84MOL    H3126757   1.276   1.152   1.931 -0.3286  1.9677  1.1869
   84MOL    H3226758   1.425   1.150   2.316  1.2307 -0.3422  0.1790
   84MOL    H3326759   1.382   0.994   2.221 -1.2728  0.8383  1.2292
   84MOL    C3426760   1.292   1.389   2.055 -0.4232  0.3269 -0.2492
   84MOL    C3526761   1.288   1.446   1.913 -0.9870 -0.1101 -0.0720
   84MOL    C3626762   1.239   1.490   2.166 -0.2724  0.0216 -0.1140
   84MOL    C3726763   1.342   1.610   2.207  1.3029  0.8859 -0.5077
   84MOL    C3826764   1.342   1.740   2.129 -0.3814 -0.4190 -0.2014
   84MOL    C3926765   1.429   1.598   2.303 -0.3282 -0.1149 -0.1633
   84MOL    H4026766   1.213   1.315   2.046 -0.2147  0.1676 -0.7410
   84MOL    H4126767   1.313   1.367   1.843  1.3180  0.3939  0.1479
   84MOL    H4226768   1.330   1.544   1.886 -0.8988  0.0743  0.7263
   84MOL    H4326769   1.182   1.463   1.893 -0.9732 -0.3123 -0.3162
   84MOL    H4426770   1.167   1.549   2.110 -0.4361 -0.1521 -0.0855
   84MOL    H4526771   1.402   1.824   2.164  0.0485 -0.1208 -1.5971
   84MOL    H4626772   1.238   1.771   2.124 -0.3141  0.3400  2.4125
   84MOL    H4726773   1.386   1.728   2.029  0.5247 -1.0269  0.2650
   84MOL    H4826774   1.443   1.507   2.359  1.1569  1.1197  1.5573
   84MOL    H4926775   1.488   1.684   2.332 -1.7517  0.4642  1.1441
   84MOL    C5026776   1.159   1.432   2.294 -0.4925 -0.1161 -0.2309
   84MOL    C5126777   1.049   1.326   2.253  0.1058 -0.0290  0.2157
   84MOL    C5226778   1.100   1.533   2.396  0.3659 -0.7795  0.2077
   84MOL    C5326779   1.129   1.493   2.535 -0.6549  0.4244 -0.4320
   84MOL    C5426780   1.031   1.402   2.604 -0.0286 -0.1001  0.9053
   84MOL    C5526781   1.235   1.543   2.602 -0.1964  0.0240  0.2314
   84MOL    H5626782   1.233   1.371   2.346 -1.4322 -1.5555 -0.5732
   84MOL    H5726783   0.999   1.355   2.161 -0.6772 -0.3581  0.5360
   84MOL    H5826784   0.973   1.318   2.331  1.3533  1.8321  1.6950
   84MOL    H5926785   1.098   1.229   2.243  1.4854  0.3802  2.4967
   84MOL    H6026786   1.171   1.615   2.394 -0.9964  0.4940  2.0261
   84MOL    H6126787   1.077   1.364   2.695  0.3108 -0.4548  0.5843
   84MOL    H6226788   1.005   1.321   2.536  1.8979 -0.0477  0.0879
   84MOL    H6326789   0.943   1.459   2.636  0.1582  2.2706 -2.5462
   84MOL    H6426790   1.305   1.608   2.552  2.6277 -2.8638  0.2531
   84MOL    H6526791   1.263   1.523   2.705  0.4934  0.3389  0.1049
   84MOL    C6626792   0.960   1.599   2.369 -0.2738 -0.5091 -0.1704
   84MOL    C6726793   0.949   1.641   2.220  0.1595 -0.0617 -0.0361
   84MOL    C6826794   0.906   1.712   2.467 -0.2444 -0.4491 -0.1820
   84MOL    C6926795   0.753   1.696   2.475 -0.3285  0.0914  0.1851
   84MOL    C7026796   0.713   1.595   2.578  0.3044  0.4773  0.2462
   84MOL    C7126797   0.662   1.768   2.401  0.1601  0.1956  0.2318
   84MOL    H7226798   0.890   1.517   2.385  0.7564 -1.1964  0.9110
   84MOL    H7326799   1.023   1.711   2.182 -1.5893  0.9836 -1.6271
   84MOL    H7426800   0.855   1.696   2.211  0.0865 -0.5387 -2.4339
   84MOL    H7526801   0.930   1.556   2.155 -0.6637 -1.2085  1.6865
   84MOL    H7626802   0.939   1.694   2.569  1.1575 -0.5549 -0.6418
   84MOL    H7726803   0.740   1.626   2.678  2.0386  3.3668 -1.0628
   84MOL    H7826804   0.758   1.499   2.551  1.1782  1.2036 -0.9440
   84MOL    H7926805   0.606   1.575   2.591  0.5192 -0.4153  0.6989
   84MOL    H8026806   0.688   1.844   2.328  1.8256 -1.0975 -0.5540
   84MOL    H8126807   0.556   1.752   2.412  0.4099  0.0001  2.6752
   84MOL    C8226808   0.956   1.861   2.431  0.1788  0.4282 -0.3586
   84MOL    C8326809   1.111   1.883   2.400  0.5260  0.5386 -0.0511
   84MOL    C8426810   0.893   1.978   2.515  0.1413  0.2201  0.2482
   84MOL    C8526811   0.833   2.091   2.429 -0.0917 -0.0100  0.1886
   84MOL    C8626812   0.709   2.159   2.486  0.1403 -0.1619  0.2886
   84MOL    C8726813   0.865   2.116   2.303 -0.1750  0.3369 -0.9967
   84MOL    H8826814   0.904   1.862   2.335  0.9065 -0.6437 -0.7753
   84MOL    H8926815   1.157   1.819   2.324  1.1144  1.0293 -0.1041
   84MOL    H9026816   1.162   1.873   2.495 -0.8314 -1.5211  0.5162
   84MOL    H9126817   1.123   1.983   2.360  1.2075  0.1312 -0.8846
   84MOL    H9226818   0.812   1.919   2.556 -0.8238  1.4860  0.2132
   84MOL    H9326819   0.668   2.093   2.562 -0.8805 -2.6327 -2.3001
   84MOL    H9426820   0.627   2.199   2.427  0.2520  1.5575  1.2617
   84MOL    H9526821   0.739   2.250   2.538  0.6762  0.9510 -1.9170
   84MOL    H9626822   0.950   2.070   2.254 -0.3460 -1.5373  0.3754
   84MOL    H9726823   0.805   2.188   2.250  0.5766  0.6490 -1.4336
   84MOL    C9826824   0.970   2.029   2.641  0.1155  0.6394 -0.0957
   84MOL    C9926825   1.089   2.108   2.592  0.0763 -0.9374  0.4901
   84MOL   C10026826   1.026   1.920   2.748 -0.3791 -0.4885 -0.1819
   84MOL   C10126827   0.919   1.827   2.808  0.2609  0.1717  0.3711
   84MOL   C10226828   0.971   1.691   2.852 -0.7795  0.2851  0.1533
   84MOL   C10326829   0.789   1.853   2.830  1.0377  0.0732  0.0632
   84MOL   H10426830   0.906   2.094   2.700 -2.7442 -1.2904 -0.9501
   84MOL   H10526831   1.073   2.169   2.504  2.6634 -0.7736  0.1069
   84MOL   H10626832   1.182   2.051   2.586 -0.6760 -2.2334  0.8326
   84MOL   H10726833   1.115   2.175   2.674 -1.9527  1.8669 -1.0873
   84MOL   H10826834   1.089   1.853   2.689 -0.1874  0.6845 -1.3190
   84MOL   H10926835   0.909   1.614   2.806 -1.2686 -0.7890  2.5703
   84MOL   H11026836   0.985   1.680   2.959  1.6160  0.2741 -0.1395
   84MOL   H11126837   1.069   1.670   2.808 -1.4859 -1.5809 -0.5637
   84MOL   H11226838   0.746   1.947   2.796  3.0879  0.2117 -2.3288
   84MOL   H11326839   0.731   1.773   2.873  0.4633  0.2974 -0.2878
   84MOL   C11426840   1.101   1.968   2.877  0.1357 -0.7138  0.2300
   84MOL   C11526841   1.008   2.070   2.949 -0.5615 -0.3535  0.1607
   84MOL   C11626842   1.251   2.013   2.870  0.1905  0.2613 -0.6428
   84MOL   C11726843   1.351   1.913   2.801  0.0762  0.1046  0.3014
   84MOL   C11826844   1.433   1.982   2.689 -0.1825 -0.4543  0.4947
   84MOL   C11926845   1.368   1.782   2.828  0.7128  0.3909 -0.5333
   84MOL   H12026846   1.109   1.880   2.942  1.6427  0.7330  2.0980
   84MOL   H12126847   1.041   2.084   3.052  0.0818 -0.1439 -0.0725
   84MOL   H12226848   0.903   2.045   2.935 -0.1351 -2.4999  0.6091
   84MOL   H12326849   1.018   2.168   2.903  1.8683  0.3634  2.0898
   84MOL   H12426850   1.249   2.097   2.801  0.9990  0.9369  0.1420
   84MOL   H12526851   1.382   2.031   2.606  0.0662 -2.6879 -1.0237
   84MOL   H12626852   1.502   1.906   2.653 -0.1936 -0.8096  1.2152
   84MOL   H12726853   1.501   2.049   2.741  0.8459 -0.6499 -0.5710
   84MOL   H12826854   1.312   1.734   2.907 -0.1219  1.3429 -0.5333
   84MOL   H12926855   1.435   1.716   2.775  0.4958 -0.5995  0.4138
   84MOL   C13026856   1.320   2.071   2.993  0.4185 -0.7347 -0.3515
   84MOL   C13126857   1.296   1.995   3.123  0.4534 -0.6367 -0.1352
   84MOL   C13226858   1.300   2.228   3.015  0.8480 -0.5647  0.1970
   84MOL   C13326859   1.329   2.308   2.894 -0.9781  0.8576  0.4815
   84MOL   C13426860   1.238   2.419   2.849 -0.3781 -0.6021  0.5383
   84MOL   C13526861   1.442   2.289   2.816 -0.0349 -0.0156 -0.1569
   84MOL   H13626862   1.426   2.058   2.970  0.7335  1.5896 -0.3246
   84MOL   H13726863   1.385   1.996   3.185 -0.1790 -1.1231  0.7887
   84MOL   H13826864   1.290   1.887   3.104  0.2711 -0.5697 -0.4816
   84MOL   H13926865   1.220   2.039   3.188  0.3731 -1.5226  0.3781
   84MOL   H14026866   1.193   2.234   3.033  0.1585  0.1985 -3.6398
   84MOL   H14126867   1.145   2.390   2.801 -0.5426 -0.1966  0.6036
   84MOL   H14226868   1.282   2.467   2.761 -4.8496  1.8481 -0.4936
   84MOL   H14326869   1.215   2.500   2.918 -0.0152 -2.3803  2.8286
   84MOL   H14426870   1.525   2.229   2.852  1.2258  2.0538  0.4707
   84MOL   H14526871   1.468   2.339   2.723 -0.8940  2.2260  0.7764
   84MOL   C14626872   1.371   2.302   3.129  0.5823 -0.4906  0.0419
   84MOL   C14726873   1.514   2.239   3.151  0.5376 -0.2220  0.0853
   84MOL   C14826874   1.288   2.321   3.262 -0.9831 -1.2244  0.0811
   84MOL   C14926875   1.143   2.370   3.250  0.1368  0.3122 -0.2073
   84MOL   C15026876   1.042   2.278   3.321 -0.7430 -0.2334  0.6183
   84MOL   C15126877   1.099   2.475   3.178  0.1552  0.4018 -0.1070
   84MOL   H15226878   1.385   2.407   3.102  0.4585 -0.3863  0.3862
   84MOL   H15326879   1.563   2.233   3.054  3.1478  3.4278  1.0683
   84MOL   H15426880   1.521   2.148   3.210  2.8430 -0.6191 -0.7713
   84MOL   H15526881   1.579   2.301   3.213  0.0358  0.2411  0.1524
   84MOL   H15626882   1.291   2.220   3.303 -2.0299 -0.6102  1.7097
   84MOL   H15726883   0.943   2.306   3.284  0.2733 -0.6951 -2.5492
   84MOL   H15826884   1.032   2.296   3.428 -1.2453  0.0183  0.5289
   84MOL   H15926885   1.039   2.174   3.288  0.4763 -0.1686  0.2921
   84MOL   H16026886   1.165   2.539   3.121 -0.2406  0.4972 -0.4648
   84MOL   H16126887   0.995   2.503   3.182  0.1784  0.3196  1.4453
   84MOL   C16226888   1.352   2.403   3.384 -1.4287  0.2361 -0.0317
   84MOL   C16326889   1.409   2.537   3.328  0.2085 -0.1396  0.4407
   84MOL   C16426890   1.454   2.320   3.476 -0.0158  0.1568 -0.3463
   84MOL   C16526891   1.380   2.200   3.538  0.3035 -0.0152 -0.4170
   84MOL   C16626892   1.465   2.074   3.566 -0.0540 -0.1092 -0.0072
   84MOL   C16726893   1.246   2.198   3.570 -0.0898 -0.6638  0.4045
   84MOL   H16826894   1.269   2.431   3.448 -1.6483 -1.1375  0.3111
   84MOL   H16926895   1.341   2.583   3.257  0.4963 -0.1246  0.1767
   84MOL   H17026896   1.506   2.522   3.281 -0.2261 -0.4996 -0.3567
   84MOL   H17126897   1.425   2.613   3.405  0.2077  0.2157  0.0868
   84MOL   H17226898   1.526   2.272   3.409  0.0499 -0.6431  0.3050
   84MOL   H17326899   1.446   2.002   3.486 -0.9680 -1.5762  1.5092
   84MOL   H17426900   1.445   2.023   3.660 -2.1500  0.2386 -0.2445
   84MOL   H17526901   1.571   2.097   3.554 -0.2360  0.2238 -1.0476
   84MOL   H17626902   1.182   2.282   3.548 -0.9997 -1.7422 -1.1448
   84MOL   H17726903   1.209   2.102   3.602 -1.2730 -0.1009  0.7555
   84MOL   C17826904   1.536   2.405   3.584 -0.9312  0.0276  0.2563
   84MOL   C17926905   1.437   2.501   3.665 -0.8058 -0.0901 -0.2782
   84MOL   C18026906   1.663   2.478   3.539  0.5412 -0.2405  1.0115
   84MOL   C18126907   1.741   2.398   3.442 -0.1904  0.2208 -0.2755
   84MOL   C18226908   1.788   2.479   3.321 -0.1449  0.7463 -0.2884
   84MOL   C18326909   1.777   2.272   3.462 -0.4643 -0.4191 -0.4636
   84MOL   H18426910   1.573   2.326   3.650  0.7510  2.8080  2.7141
   84MOL   H18526911   1.361   2.436   3.710  0.3298  0.2782  2.2737
   84MOL   H18626912   1.391   2.582   3.608 -0.6459 -0.7726 -1.3803
   84MOL   H18726913   1.489   2.555   3.744 -1.7700 -1.6043  1.4366
   84MOL   H18826914   1.632   2.565   3.482 -1.0247 -0.9408  0.7870
   84MOL   H18926915   1.723   2.551   3.272 -0.2811  1.0919  0.4010
   84MOL   H19026916   1.788   2.410   3.236 -4.1227  0.3245 -0.0104
   84MOL   H19126917   1.892   2.510   3.331 -0.3872  0.8991  1.9237
   84MOL   H19226918   1.744   2.214   3.547 -1.3496  1.3391  0.4169
   84MOL   H19326919   1.847   2.228   3.392  0.5023 -0.1451  0.3131
   84MOL   C19426920   1.754   2.533   3.655  0.4885  0.0066  0.1141
   84MOL   C19526921   1.758   2.453   3.795  0.9793  0.2311  0.2581
   84MOL   C19626922   1.778   2.685   3.668 -1.2787 -0.4001 -0.0680
   84MOL   C19726923   1.645   2.758   3.685  0.4839  0.8997  0.1183
   84MOL   C19826924   1.597   2.786   3.826  0.2110  0.1751  0.5158
   84MOL   C19926925   1.569   2.801   3.577 -0.5552 -0.0440  0.0143
   84MOL   H20026926   1.850   2.493   3.620  0.9294 -0.1349  1.4570
   84MOL   H20126927   1.852   2.465   3.849  0.3194 -0.5906  1.6179
   84MOL   H20226928   1.743   2.347   3.775 -0.3549  0.5146 -0.3049
   84MOL   H20326929   1.676   2.492   3.856 -0.3827 -0.4948 -1.0814
   84MOL   H20426930   1.815   2.701   3.769  0.6155  2.3744 -1.1460
   84MOL   H20526931   1.666   2.837   3.893 -0.0364  0.1551  0.7884
   84MOL   H20626932   1.567   2.694   3.876 -3.4047  1.1106  0.1750
   84MOL   H20726933   1.508   2.848   3.839  0.1391  0.4022 -0.9412
   84MOL   H20826934   1.597   2.780   3.475 -2.2286  2.0938 -0.9163
   84MOL   H20926935   1.475   2.846   3.605 -0.1805  0.4042  0.5700
   84MOL   C21026936   1.882   2.764   3.579 -0.0758 -0.2760 -0.1071
   84MOL   C21126937   2.015   2.687   3.583 -0.3692  0.1718 -0.2617
   84MOL   C21226938   1.910   2.920   3.627  0.2159  0.6444 -0.1993
   84MOL   C21326939   1.900   2.949   3.778 -0.0269  0.5519  0.1365
   84MOL   C21426940   2.010   2.905   3.869  0.5543 -0.4111 -0.4863
   84MOL   C21526941   1.799   3.021   3.829  0.1608 -0.1371  0.8396
   84MOL   H21626942   1.857   2.765   3.473  0.6063 -0.6039 -0.2712
   84MOL   H21726943   2.099   2.746   3.547  0.5436 -0.4968  0.7598
   84MOL   H21826944   2.007   2.596   3.524 -2.7077  0.7466 -0.8909
   84MOL   H21926945   2.037   2.648   3.682  2.5015  1.1510 -0.4776
   84MOL   H22026946   2.017   2.935   3.611 -0.2919  4.2662 -0.7033
   84MOL   H22126947   1.993   2.925   3.975  0.6998 -1.6153 -0.2240
   84MOL   H22226948   2.109   2.940   3.840  0.1255  1.6580  0.4524
   84MOL   H22326949   2.026   2.797   3.864 -2.4590 -0.8522 -1.8365
   84MOL   H22426950   1.720   3.057   3.766  0.3751 -1.1298 -0.0150
   84MOL   H22526951   1.803   3.050   3.933  1.2485  2.0154  0.2216
   84MOL   C22626952   1.856   3.031   3.529 -0.3369 -0.2572 -0.1897
   84MOL   C22726953   1.894   2.988   3.384  0.0166  0.4840 -0.0330
   84MOL   C22826954   1.880   3.186   3.560  0.0624  0.9689 -0.7953
   84MOL   C22926955   1.756   3.275   3.518 -0.6557 -0.6433  0.2994
   84MOL   C23026956   1.712   3.379   3.625 -0.2308 -0.2754  0.0130
   84MOL   C23126957   1.674   3.246   3.414 -0.4492  0.1892  1.0752
   84MOL   H23226958   1.747   3.023   3.531 -0.3829  0.3490 -0.0629
   84MOL   H23326959   1.824   2.920   3.337  2.4804 -1.8258 -0.4767
   84MOL   H23426960   1.994   2.947   3.370 -0.4263 -2.1277  3.5838
   84MOL   H23526961   1.889   3.075   3.318  0.6896  0.8071  0.3317
   84MOL   H23626962   1.873   3.198   3.669 -1.3910 -0.8834 -0.6533
   84MOL   H23726963   1.641   3.452   3.587  0.8152  0.3332 -0.7882
   84MOL   H23826964   1.795   3.425   3.679  1.5290 -2.1203 -0.9921
   84MOL   H23926965   1.660   3.324   3.703  1.3931  1.9534  2.7465
   84MOL   H24026966   1.689   3.170   3.339  0.2432  0.3414  1.0563
   84MOL   H24126967   1.587   3.307   3.393  0.1282  0.1479 -1.5525
   84MOL   C24226968   2.021   3.248   3.525 -0.1083 -1.0105  1.1796
   84MOL   C24326969   2.120   3.227   3.643  0.2249 -0.1816  1.1262
   84MOL   C24426970   2.011   3.388   3.451 -0.0977 -0.1176  0.2187
   84MOL   C24526971   1.960   3.381   3.301  1.0896 -0.0752  0.8987
   84MOL   C24626972   1.863   3.494   3.270 -0.7274 -0.3877  0.0328
   84MOL   C24726973   2.008   3.297   3.206 -0.4420 -0.0105 -0.4059
   84MOL   H24826974   2.062   3.180   3.450 -4.0869 -1.7860 -0.4043
   84MOL   H24926975   2.136   3.122   3.664 -0.6556 -0.7511 -0.9657
   84MOL   H25026976   2.093   3.287   3.730 -1.4221  0.0325  0.4758
   84MOL   H25126977   2.221   3.261   3.619 -0.5586 -0.6590 -3.1297
   84MOL   H25226978   1.943   3.454   3.504  2.1239  0.7650  2.0128
   84MOL   H25326979   1.907   3.583   3.316  0.0484 -0.2115 -1.0384
   84MOL   H25426980   1.757   3.487   3.296 -1.2107  0.3919 -1.6849
   84MOL   H25526981   1.867   3.512   3.163 -1.0262 -1.9711 -0.2488
   84MOL   H25626982   2.088   3.227   3.225  1.4460  2.1782 -0.0971
   84MOL   H25726983   1.962   3.316   3.110  0.1026 -2.3895 -1.1603
   84MOL   C25826984   2.125   3.493   3.458  0.5535  0.0230  0.3581
   84MOL   C25926985   2.256   3.448   3.390 -0.2962  0.1929  0.1267
   84MOL   C26026986   2.160   3.554   3.599 -0.3746 -0.5151 -0.0107
   84MOL   C26126987   2.039   3.601   3.679 -0.0451  0.6334  0.1169
   84MOL   C26226988   1.951   3.717   3.635  0.7198 -0.2673  0.4184
   84MOL   C26326989   2.003   3.546   3.795  0.7210  0.4074  0.3296
   84MOL   H26426990   2.093   3.575   3.394 -0.6565  0.0241  0.9432
   84MOL   H26526991   2.329   3.522   3.356  0.1558  0.6830  2.1000
   84MOL   H26626992   2.230   3.394   3.299  1.4485  0.1178 -0.3541
   84MOL   H26726993   2.310   3.371   3.445  0.3695 -0.2490 -1.1110
   84MOL   H26826994   2.210   3.475   3.656  0.8325  1.0885  1.1879
   84MOL   H26926995   1.990   3.817   3.656 -2.0636  0.6367  1.4487
   84MOL   H27026996   1.852   3.703   3.678  1.0565 -0.9338  0.9859
   84MOL   H27126997   1.946   3.707   3.527  0.4698  0.1127  0.3940
   84MOL   H27226998   2.065   3.470   3.839  0.3837 -0.2449 -0.3057
   84MOL   H27326999   1.911   3.575   3.844  1.0185 -1.3055  1.9717
   84MOL   C27427000   2.266   3.669   3.599 -0.3674  0.1594  0.1793
   84MOL   C27527001   2.245   3.779   3.503  0.5236  0.1363  0.5392
   84MOL   C27627002   2.428   3.628   3.610  0.1607  0.0285  0.5538
   84MOL   C27727003   2.459   3.508   3.700  0.7884 -0.5558 -0.5026
   84MOL   C27827004   2.409   3.512   3.843  0.1157 -0.1356 -0.0995
   84MOL   C27927005   2.522   3.401   3.654  0.2253  0.1667  0.0605
   84MOL   H28027006   2.245   3.719   3.694 -1.0757  0.1916  0.0117
   84MOL   H28127007   2.289   3.876   3.528 -0.4289  1.1167 -1.3882
   84MOL   H28227008   2.139   3.804   3.497  0.8318  1.0973 -1.4111
   84MOL   H28327009   2.272   3.753   3.401 -0.6993  1.6666 -0.1951
   84MOL   H28427010   2.446   3.593   3.509  1.1144 -0.6508  0.9610
   84MOL   H28527011   2.389   3.411   3.879 -0.1812  0.5421  1.6556
   84MOL   H28627012   2.316   3.568   3.835  1.0585  1.4616 -0.1700
   84MOL   H28727013   2.472   3.561   3.917  1.8107  0.3633 -1.8268
   84MOL   H28827014   2.557   3.397   3.552  0.3461  0.2273  0.0993
   84MOL   H28927015   2.545   3.310   3.708 -0.8593  0.7253  1.4988
   84MOL   C29027016   2.533   3.748   3.645  0.4170  0.1861  0.9290
   84MOL   C29127017   2.479   3.823   3.765 -0.4062 -0.1739 -0.6462
   84MOL   C29227018   2.597   3.825   3.518  0.3731  0.1905 -1.0986
   84MOL   C29327019   2.675   3.739   3.419 -0.4553 -0.6475 -0.1571
   84MOL   C29427020   2.794   3.658   3.478  0.2708 -0.3501 -0.6304
   84MOL   C29527021   2.638   3.729   3.289 -0.3178  0.4183  0.1020
   84MOL   H29627022   2.615   3.698   3.695  0.7829 -0.8072 -0.6303
   84MOL   H29727023   2.414   3.907   3.739 -1.3601 -0.6203  0.2773
   84MOL   H29827024   2.564   3.862   3.822 -0.0143 -1.2413 -0.4996
   84MOL   H29927025   2.425   3.754   3.830 -0.3754  1.6768  1.4164
   84MOL   H30027026   2.513   3.862   3.459 -0.4827  1.2083  0.7136
   84MOL   H30127027   2.881   3.724   3.475 -0.8948  1.2467  0.5200
   84MOL   H30227028   2.821   3.572   3.416 -0.8219 -0.0709 -1.5067
   84MOL   H30327029   2.775   3.607   3.572 -0.3591  1.4003  0.1964
   84MOL   H30427030   2.560   3.790   3.245 -1.3282 -0.3541  0.7828
   84MOL   H30527031   2.684   3.657   3.223 -1.1636  1.2635 -1.4600
   84MOL   C30627032   2.676   3.952   3.565 -0.6024 -0.3121 -0.9213
   84MOL   C30727033   2.702   4.050   3.448 -0.6639 -0.1381  0.0687
   84MOL   C30827034   2.813   3.927   3.645  0.0032 -0.5261  0.5100
   84MOL   C30927035   2.870   4.040   3.731 -0.6896  0.2029 -0.6192
   84MOL   C31027036   2.784   4.066   3.859 -0.2217 -0.1307  0.0275
   84MOL   C31127037   2.983   4.104   3.704  0.0528  0.7331  0.6927
   84MOL   H31227038   2.604   4.014   3.618 -1.5582 -1.9368 -0.2761
   84MOL   H31327039   2.715   4.153   3.482  0.9140 -0.8612  1.7210
   84MOL   H31427040   2.624   4.050   3.372 -1.0077  1.9523  0.3897
   84MOL   H31527041   2.793   4.028   3.394 -0.9450 -0.0858 -0.4266
   84MOL   H31627042   2.797   3.845   3.715 -1.0231  1.7070  2.9894
   84MOL   H31727043   2.760   3.966   3.894 -0.9462  0.4410  1.1879
   84MOL   H31827044   2.691   4.118   3.835 -1.1602 -1.9390 -0.2617
   84MOL   H31927045   2.836   4.132   3.929  0.1747  1.3990 -1.6702
   84MOL   H32027046   3.050   4.081   3.623  0.9914 -1.2616  2.0034
   84MOL   H32127047   3.012   4.184   3.771  2.3586 -0.6813  1.4290
   84MOL   H32227048   2.890   3.902   3.571  0.6324  0.5961  0.7606
   85MOL     C127049   6.206   2.499   5.827 -0.2826  0.0289  0.3671
   85MOL     C227050   6.166   2.409   5.938 -0.6051 -0.2288  0.8307
   85MOL     C327051   6.298   2.623   5.862  0.2266 -0.9647  0.3362
   85MOL     C427052   6.222   2.742   5.919 -0.5696  0.1507  0.0304
   85MOL     C527053   6.304   2.848   5.984  0.5166  1.0584  0.1678
   85MOL     C627054   6.086   2.743   5.919 -0.0722 -0.6791  0.1936
   85MOL     H727055   6.265   2.435   5.762  2.0055  1.3775  1.0856
   85MOL     H827056   6.075   2.351   5.918 -0.0634 -0.1200 -2.1907
   85MOL     H927057   6.153   2.471   6.026 -3.4196  0.7261 -0.2173
   85MOL    H1027058   6.250   2.348   5.973  1.1520  0.7973 -1.4584
   85MOL    H1127059   6.356   2.604   5.952 -1.0322 -1.8101  0.9764
   85MOL    H1227060   6.301   2.825   6.091 -0.9706 -1.4149 -0.3679
   85MOL    H1327061   6.242   2.936   5.970 -1.2700 -0.4578 -1.6492
   85MOL    H1427062   6.409   2.857   5.956  0.9016  0.1509  1.2876
   85MOL    H1527063   6.022   2.662   5.887 -2.5519  0.6911  1.5154
   85MOL    H1627064   6.033   2.828   5.958  0.2574 -0.5269  0.3194
   85MOL    H1727065   6.128   2.521   5.754  0.8229 -2.8491 -1.7399
   85MOL    C1827066   6.398   2.669   5.748  0.1910 -0.9058 -0.5403
   85MOL    C1927067   6.318   2.685   5.613 -1.0638 -0.4773  0.2231
   85MOL    C2027068   6.515   2.563   5.724  0.8372  0.3543 -0.7111
   85MOL    C2127069   6.580   2.510   5.855  0.4513  0.7441  0.3184
   85MOL    C2227070   6.652   2.603   5.941 -0.5965 -1.0434 -0.4727
   85MOL    C2327071   6.564   2.380   5.897  0.1682 -0.1548  0.6631
   85MOL    H2427072   6.439   2.764   5.781  0.6289 -1.8975  1.8857
   85MOL    H2527073   6.233   2.747   5.642  1.4843  1.7153  3.4182
   85MOL    H2627074   6.285   2.594   5.563 -0.0957  0.0228 -1.3701
   85MOL    H2727075   6.373   2.749   5.544 -0.2934 -2.4105 -1.0045
   85MOL    H2827076   6.459   2.482   5.677 -1.1349  0.5348  1.2652
   85MOL    H2927077   6.678   2.561   6.038 -1.3979 -0.2134  0.1036
   85MOL    H3027078   6.580   2.683   5.954  0.4826 -0.4455  2.0216
   85MOL    H3127079   6.742   2.648   5.899 -2.4894  0.6450 -2.8511
   85MOL    H3227080   6.506   2.313   5.834 -0.0171  0.9655 -0.3772
   85MOL    H3327081   6.604   2.340   5.989  0.7532  0.3658  0.6354
   85MOL    C3427082   6.619   2.607   5.615  0.7345 -0.5591  0.7504
   85MOL    C3527083   6.659   2.753   5.629  0.0321  0.5973 -0.1476
   85MOL    C3627084   6.588   2.557   5.468  0.0581 -0.6165 -0.1487
   85MOL    C3727085   6.557   2.401   5.449 -0.2911  0.6148 -0.4542
   85MOL    C3827086   6.467   2.370   5.331  0.3007 -0.1620  0.0261
   85MOL    C3927087   6.618   2.307   5.521 -0.1961  0.2500  0.0609
   85MOL    H4027088   6.711   2.563   5.653  0.1140 -2.5184  0.0339
   85MOL    H4127089   6.666   2.782   5.734  1.8403 -0.5565  0.0672
   85MOL    H4227090   6.597   2.832   5.584  2.5028  2.2983 -0.6704
   85MOL    H4327091   6.762   2.766   5.597 -0.6583  0.9079 -2.3756
   85MOL    H4427092   6.500   2.614   5.438  1.1033  1.5208  0.7164
   85MOL    H4527093   6.382   2.436   5.347  0.4620 -0.3795  1.8487
   85MOL    H4627094   6.446   2.263   5.326  2.2312 -0.5211 -0.6663
   85MOL    H4727095   6.526   2.398   5.244 -2.5130 -0.7021 -2.1453
   85MOL    H4827096   6.679   2.340   5.603 -0.4108  2.9918 -0.8525
   85MOL    H4927097   6.612   2.201   5.498 -0.7999  0.3564 -0.2724
   85MOL    C5027098   6.700   2.588   5.359  0.4717 -0.4058  0.5889
   85MOL    C5127099   6.838   2.553   5.422  0.0707  0.0487 -0.3743
   85MOL    C5227100   6.695   2.732   5.287 -0.2454 -0.9228 -0.6331
   85MOL    C5327101   6.560   2.750   5.212 -1.1530  0.1695 -0.2507
   85MOL    C5427102   6.488   2.886   5.228  0.5741 -0.4100  0.0071
   85MOL    C5527103   6.508   2.659   5.133 -0.1647 -0.2248 -0.4534
   85MOL    H5627104   6.686   2.522   5.273 -1.0379  1.2568 -0.4880
   85MOL    H5727105   6.928   2.566   5.362  1.0599  2.0716  1.4571
   85MOL    H5827106   6.836   2.447   5.449 -0.6920 -0.5415 -2.6398
   85MOL    H5927107   6.864   2.611   5.511 -1.4482 -1.4171  1.0667
   85MOL    H6027108   6.693   2.804   5.369  0.2642 -1.0876 -0.4777
   85MOL    H6127109   6.380   2.881   5.210  0.5031 -2.2787  0.7671
   85MOL    H6227110   6.530   2.971   5.175 -1.8734  0.8771  0.0377
   85MOL    H6327111   6.494   2.918   5.332  1.9577  4.0561 -1.3709
   85MOL    H6427112   6.552   2.563   5.111  0.3403 -0.2140  0.4921
   85MOL    H6527113   6.414   2.685   5.086  0.5271  0.6235 -1.4090
   85MOL    C6627114   6.818   2.777   5.197  0.2642  0.8993 -0.0271
   85MOL    C6727115   6.854   2.676   5.087  0.2107  0.1549  0.3699
   85MOL    C6827116   6.936   2.842   5.274  0.3436 -0.4804  0.0298
   85MOL    C6927117   6.891   2.966   5.357 -0.6176  0.2126  0.1656
   85MOL    C7027118   6.814   3.085   5.296 -0.0661  0.1990 -0.6815
   85MOL    C7127119   6.910   2.966   5.489  0.2498  0.0400 -0.3176
   85MOL    H7227120   6.775   2.859   5.139 -2.6223 -0.2501  0.4034
   85MOL    H7327121   6.942   2.616   5.110  0.2540  0.2199  0.3733
   85MOL    H7427122   6.874   2.728   4.993  3.9990  1.2167  1.6927
   85MOL    H7527123   6.781   2.601   5.055  3.0889 -1.3475 -3.0135
   85MOL    H7627124   6.970   2.773   5.350 -0.6273 -1.6691 -0.5902
   85MOL    H7727125   6.881   3.169   5.277  0.7017 -0.3911 -0.6393
   85MOL    H7827126   6.737   3.118   5.366  3.2105  0.2435  3.0988
   85MOL    H7927127   6.769   3.058   5.201 -0.8383  0.7175 -0.4634
   85MOL    H8027128   6.961   2.881   5.532  1.0026  0.3209 -0.6531
   85MOL    H8127129   6.885   3.057   5.540 -1.7590 -0.1001 -1.0037
   85MOL    C8227130   7.062   2.886   5.196  0.0750  0.3692  0.2221
   85MOL    C8327131   7.018   2.949   5.058  0.3535 -0.4461  0.5555
   85MOL    C8427132   7.182   2.778   5.191 -0.7773  0.0419 -0.3484
   85MOL    C8527133   7.205   2.715   5.331 -0.8064 -0.4583 -0.1977
   85MOL    C8627134   7.229   2.805   5.456 -0.0671 -0.0481  0.5064
   85MOL    C8727135   7.204   2.585   5.353  0.2386  0.3913  0.1251
   85MOL    H8827136   7.084   2.983   5.242 -1.1852  0.8143 -0.0770
   85MOL    H8927137   7.087   3.024   5.020  0.2899 -2.0222 -2.8852
   85MOL    H9027138   6.927   3.006   5.076  1.1814  0.3810  2.1629
   85MOL    H9127139   6.996   2.874   4.981 -0.9539  1.7799 -1.2949
   85MOL    H9227140   7.136   2.713   5.116 -2.4792  1.8550 -0.9386
   85MOL    H9327141   7.245   2.750   5.549  0.9211  0.2662  0.5300
   85MOL    H9427142   7.165   2.880   5.501 -1.0030 -1.3552  1.3975
   85MOL    H9527143   7.332   2.841   5.460  0.3787 -1.2250 -0.2276
   85MOL    H9627144   7.197   2.513   5.273  0.7065  0.8457 -0.3329
   85MOL    H9727145   7.214   2.555   5.456  0.6395 -0.4294 -0.1491
   85MOL    C9827146   7.315   2.839   5.131  0.1929 -0.0777 -1.3912
   85MOL    C9927147   7.338   2.982   5.179  0.0681  0.0190  0.1987
   85MOL   C10027148   7.339   2.797   4.978 -0.3475  0.1892  0.1449
   85MOL   C10127149   7.326   2.651   4.947 -0.3314  0.3420 -0.2999
   85MOL   C10227150   7.272   2.617   4.810 -0.3188 -0.1828 -0.0797
   85MOL   C10327151   7.355   2.556   5.037 -0.3630  0.7231 -0.7236
   85MOL   H10427152   7.384   2.785   5.195  0.3748  0.6857 -0.9313
   85MOL   H10527153   7.288   3.057   5.118  1.0138  0.1029 -0.4863
   85MOL   H10627154   7.444   3.006   5.192  0.3445 -1.6418  1.1189
   85MOL   H10727155   7.298   2.993   5.280 -1.2791 -1.8409 -0.1141
   85MOL   H10827156   7.262   2.851   4.922  0.5883  1.1746 -0.2141
   85MOL   H10927157   7.169   2.652   4.804  0.5134  2.4085  0.3430
   85MOL   H11027158   7.274   2.509   4.795  0.0268 -0.5755  2.6975
   85MOL   H11127159   7.334   2.669   4.737  1.1080 -3.2686 -1.1513
   85MOL   H11227160   7.389   2.582   5.136 -0.1012  1.6840 -1.0545
   85MOL   H11327161   7.344   2.456   4.998  1.5594 -0.0439  0.6006
   85MOL   C11427162   7.474   2.845   4.918  0.7921  0.3273  0.0508
   85MOL   C11527163   7.594   2.786   5.001  0.0344  0.1190 -0.2177
   85MOL   C11627164   7.498   2.998   4.870  0.7667  1.0331  0.2825
   85MOL   C11727165   7.514   3.116   4.962 -0.6370  0.2052 -0.7868
   85MOL   C11827166   7.641   3.112   5.044  0.2302 -0.4156 -0.2234
   85MOL   C11927167   7.429   3.219   4.966  0.4442 -0.2866 -0.5260
   85MOL   H12027168   7.483   2.798   4.820 -0.1893 -0.0616  0.1432
   85MOL   H12127169   7.696   2.807   4.969 -0.7166 -0.3548 -3.1182
   85MOL   H12227170   7.599   2.677   4.994 -0.5983  0.0152  0.8154
   85MOL   H12327171   7.581   2.820   5.103 -2.4920  1.3531 -0.8961
   85MOL   H12427172   7.603   2.980   4.849  0.2697 -1.6637 -0.1188
   85MOL   H12527173   7.647   3.201   5.107 -0.7043 -1.1222  0.8778
   85MOL   H12627174   7.725   3.132   4.977  1.3468  0.6383  1.4577
   85MOL   H12727175   7.657   3.024   5.106  2.9276 -0.6471 -1.1686
   85MOL   H12827176   7.336   3.233   4.912  0.1562 -0.8234 -0.1754
   85MOL   H12927177   7.439   3.305   5.030 -1.4702  0.7650 -1.5779
   85MOL   C13027178   7.418   3.044   4.728  0.6345 -0.2515  0.0753
   85MOL   C13127179   7.262   3.026   4.739  0.8025  0.0526 -0.1977
   85MOL   C13227180   7.477   2.975   4.596 -0.1525  0.0909 -0.2510
   85MOL   C13327181   7.632   2.990   4.588 -0.9727 -0.2922  0.5880
   85MOL   C13427182   7.710   2.863   4.541  0.2484  0.0470 -0.3678
   85MOL   C13527183   7.708   3.097   4.627  0.0528  1.1846  0.8874
   85MOL   H13627184   7.426   3.152   4.716 -2.0016 -0.2417 -1.9061
   85MOL   H13727185   7.236   2.920   4.739  0.4319  0.1395  0.6268
   85MOL   H13827186   7.203   3.086   4.670  2.4861  1.0044 -0.8299
   85MOL   H13927187   7.231   3.070   4.834 -0.6687 -0.4895 -0.4144
   85MOL   H14027188   7.460   2.868   4.607  0.4869 -0.0589 -0.7041
   85MOL   H14127189   7.818   2.874   4.531  0.4934  0.4611  2.3734
   85MOL   H14227190   7.667   2.842   4.443 -2.2539 -0.5064  0.8343
   85MOL   H14327191   7.681   2.790   4.616 -0.6809  0.2148 -0.5551
   85MOL   H14427192   7.661   3.183   4.672  3.4318  3.3597  0.4375
   85MOL   H14527193   7.816   3.103   4.631  0.2785 -2.3562  1.4095
   85MOL   C14627194   7.418   3.031   4.460  0.1052  0.9468  0.2108
   85MOL   C14727195   7.405   3.184   4.452  0.0459  0.6776  0.2574
   85MOL   C14827196   7.286   2.952   4.409 -0.1683 -0.1413  0.0870
   85MOL   C14927197   7.283   2.802   4.433 -0.0643  0.3069  0.8221
   85MOL   C15027198   7.152   2.745   4.483  0.2621 -0.9037 -0.0890
   85MOL   C15127199   7.389   2.727   4.404  0.1461 -0.2065 -0.4316
   85MOL   H15227200   7.493   3.012   4.383 -1.1989  3.0959 -1.6874
   85MOL   H15327201   7.502   3.230   4.468 -0.5363  1.5178  1.4179
   85MOL   H15427202   7.330   3.228   4.518 -0.7058 -1.5930  0.9649
   85MOL   H15527203   7.385   3.213   4.349 -0.1669  0.6155  0.2799
   85MOL   H15627204   7.207   2.978   4.480  0.5560 -1.5102  1.4221
   85MOL   H15727205   7.161   2.651   4.536  0.0144 -0.4917  0.6978
   85MOL   H15827206   7.074   2.733   4.408  0.2614  0.8263 -0.3876
   85MOL   H15927207   7.097   2.807   4.554 -0.1052 -0.8595 -0.4057
   85MOL   H16027208   7.478   2.771   4.360 -0.1951 -0.4048 -1.3339
   85MOL   H16127209   7.384   2.622   4.426 -3.7255  0.3169  1.6296
   85MOL   C16227210   7.232   2.976   4.264  0.1369  0.6941 -0.5660
   85MOL   C16327211   7.355   2.984   4.167  0.3198 -0.4828 -0.2296
   85MOL   C16427212   7.132   3.101   4.263  0.1148 -0.6974 -0.3549
   85MOL   C16527213   7.015   3.086   4.361 -0.6453 -0.7998  0.1560
   85MOL   C16627214   6.908   2.988   4.323  0.4153  0.1504  0.1434
   85MOL   C16727215   7.012   3.149   4.480 -0.5528 -0.4020 -0.7090
   85MOL   H16827216   7.173   2.892   4.229 -1.9065  1.4113  1.0173
   85MOL   H16927217   7.391   3.087   4.163 -0.5105 -0.2421 -1.9442
   85MOL   H17027218   7.333   2.955   4.064  0.6181  1.1542 -0.7736
   85MOL   H17127219   7.448   2.936   4.199  0.7880  1.2516  1.1070
   85MOL   H17227220   7.185   3.183   4.313 -0.1315 -0.7595  0.0080
   85MOL   H17327221   6.851   3.016   4.235 -2.5063  1.0775  2.2231
   85MOL   H17427222   6.827   2.982   4.397 -0.2664  0.8624 -0.5334
   85MOL   H17527223   6.949   2.890   4.303  0.4444 -0.1995  1.8001
   85MOL   H17627224   7.086   3.224   4.505 -0.3560 -0.3307 -1.4865
   85MOL   H17727225   6.935   3.125   4.551 -0.3992 -0.6139 -0.6139
   85MOL   C17827226   7.080   3.153   4.125  0.5598 -0.0660  0.4993
   85MOL   C17927227   7.054   3.020   4.037  0.6924  0.9170  0.0655
   85MOL   C18027228   7.154   3.267   4.050  0.0521 -0.6436 -0.2189
   85MOL   C18127229   7.175   3.391   4.137  0.0043  0.6480 -0.7554
   85MOL   C18227230   7.309   3.454   4.127 -0.0162 -0.1966 -0.0035
   85MOL   C18327231   7.095   3.437   4.231 -0.0075 -0.0567 -0.6171
   85MOL   H18427232   6.980   3.195   4.137  0.5547 -0.0817  0.5103
   85MOL   H18527233   7.142   2.976   3.991  1.4467  1.5011  0.9480
   85MOL   H18627234   6.983   3.038   3.956 -0.7950  0.0538  1.1395
   85MOL   H18727235   6.997   2.939   4.082  2.5680  0.0049  0.8330
   85MOL   H18827236   7.254   3.227   4.037  1.0898  1.5189  0.8844
   85MOL   H18927237   7.383   3.375   4.136  0.5511  0.1387 -1.4767
   85MOL   H19027238   7.328   3.539   4.192  0.2089 -0.0872 -0.2111
   85MOL   H19127239   7.316   3.502   4.029  1.3946 -1.7116 -0.6560
   85MOL   H19227240   6.996   3.397   4.249  0.1967 -0.8587 -1.2338
   85MOL   H19327241   7.118   3.524   4.291 -0.4673 -1.4393  1.5997
   85MOL   C19427242   7.097   3.308   3.908  0.1668 -0.1109 -0.0907
   85MOL   C19527243   6.941   3.324   3.901 -0.6110 -0.1162  0.1769
   85MOL   C19627244   7.171   3.235   3.783  0.4275 -0.1455  1.3087
   85MOL   C19727245   7.324   3.238   3.795 -0.5081 -0.3404  0.2666
   85MOL   C19827246   7.396   3.105   3.780 -0.0982  0.3543 -0.4260
   85MOL   C19927247   7.389   3.351   3.811  0.4931 -0.3704 -0.4556
   85MOL   H20027248   7.133   3.410   3.912 -1.7310  0.4994  2.8293
   85MOL   H20127249   6.886   3.231   3.892 -0.1732 -0.5717  1.9669
   85MOL   H20227250   6.895   3.393   3.830 -1.3297 -0.3122  0.4481
   85MOL   H20327251   6.918   3.367   3.999  2.4713  0.5490  0.6966
   85MOL   H20427252   7.141   3.133   3.805  0.2079 -0.2822  0.3698
   85MOL   H20527253   7.349   3.025   3.838 -1.1918  0.3421 -1.3300
   85MOL   H20627254   7.501   3.110   3.809  0.1929  0.1961 -1.4444
   85MOL   H20727255   7.389   3.076   3.675  2.6575 -0.2898 -0.4736
   85MOL   H20827256   7.334   3.444   3.816 -0.6379 -1.0716  0.3091
   85MOL   H20927257   7.496   3.366   3.820  0.1558  2.4441 -0.6488
   85MOL   C21027258   7.118   3.276   3.636 -0.2289 -0.2174 -0.2017
   85MOL   C21127259   7.111   3.434   3.623 -0.6353  0.2779 -0.3978
   85MOL   C21227260   6.991   3.200   3.592 -0.1102  0.6596  0.5320
   85MOL   C21327261   6.981   3.047   3.624  0.2009  0.5986 -0.2107
   85MOL   C21427262   7.085   2.947   3.566  0.9727  0.3809  0.0347
   85MOL   C21527263   6.874   3.004   3.699  0.0993  0.2278  0.0432
   85MOL   H21627264   7.196   3.244   3.567  1.7831  0.3016  1.7786
   85MOL   H21727265   7.212   3.464   3.650 -0.7583 -1.6227  2.4168
   85MOL   H21827266   7.056   3.490   3.699 -0.5141  1.4915 -1.1930
   85MOL   H21927267   7.099   3.486   3.528  1.6996  1.7048  0.0314
   85MOL   H22027268   6.925   3.236   3.671 -0.5443  1.7511 -0.3124
   85MOL   H22127269   7.080   2.847   3.609 -2.2920 -0.4464 -2.0824
   85MOL   H22227270   7.175   3.001   3.596 -0.2068  2.2672  0.2930
   85MOL   H22327271   7.071   2.943   3.458  1.5330 -0.2994 -0.0165
   85MOL   H22427272   6.805   3.076   3.740  0.2146 -0.2414  1.0786
   85MOL   H22527273   6.873   2.898   3.720  0.7668  0.1645 -0.2265
   85MOL   C22627274   6.941   3.226   3.440  0.7211 -1.3811  0.0735
   85MOL   C22727275   7.057   3.230   3.341 -0.4572  0.3124  0.8705
   85MOL   C22827276   6.838   3.353   3.429 -0.0875 -0.1347 -0.3883
   85MOL   C22927277   6.718   3.336   3.526 -0.5925  0.1099  0.1420
   85MOL   C23027278   6.681   3.467   3.589  0.0920  0.1929 -0.4515
   85MOL   C23127279   6.651   3.221   3.544 -0.2384  0.1064 -0.6161
   85MOL   H23227280   6.890   3.136   3.407 -0.1263 -1.1428  0.7226
   85MOL   H23327281   7.110   3.325   3.350 -0.0554  0.3050 -1.1276
   85MOL   H23427282   7.024   3.219   3.238 -3.4354  0.6924  1.7342
   85MOL   H23527283   7.132   3.151   3.348 -1.6531 -1.0366 -1.1593
   85MOL   H23627284   6.900   3.434   3.467 -1.1551  0.8492 -0.7242
   85MOL   H23727285   6.598   3.448   3.657  1.9585 -1.7402  1.3610
   85MOL   H23827286   6.655   3.539   3.512  0.8311  1.9397  0.8816
   85MOL   H23927287   6.768   3.505   3.644  0.9937 -0.5370 -1.3490
   85MOL   H24027288   6.683   3.128   3.500 -1.4877 -0.8917  0.5510
   85MOL   H24127289   6.574   3.217   3.619  1.0413  1.1598  0.7902
   85MOL   C24227290   6.776   3.383   3.289 -0.3548  0.2789 -0.5478
   85MOL   C24327291   6.725   3.244   3.230  0.6707 -0.4201 -0.4392
   85MOL   C24427292   6.864   3.470   3.200  0.0197 -0.0104  0.4147
   85MOL   C24527293   6.880   3.607   3.271 -0.2109 -0.3854 -0.1284
   85MOL   C24627294   6.766   3.700   3.298  1.0314 -0.3790  0.9817
   85MOL   C24727295   7.003   3.649   3.306 -0.4714  0.6986  0.0297
   85MOL   H24827296   6.692   3.445   3.321  0.3982  0.3843  1.2688
   85MOL   H24927297   6.800   3.165   3.225  1.8397  0.5761  0.9425
   85MOL   H25027298   6.669   3.251   3.137  0.8019 -0.8942 -0.5549
   85MOL   H25127299   6.646   3.210   3.297  0.7369 -1.1636 -0.7388
   85MOL   H25227300   6.965   3.430   3.190 -0.3900 -1.0273  0.2641
   85MOL   H25327301   6.668   3.652   3.292  1.3579 -0.8354 -1.1079
   85MOL   H25427302   6.768   3.794   3.244  0.8285 -1.5278 -1.0711
   85MOL   H25527303   6.772   3.740   3.399 -1.0443  1.3007  0.4795
   85MOL   H25627304   7.094   3.598   3.278 -0.6710  1.3090 -1.8058
   85MOL   H25727305   7.012   3.737   3.366 -1.3098  3.0731 -3.1841
   85MOL   C25827306   6.818   3.488   3.046  0.2714 -0.7243 -0.2497
   85MOL   C25927307   6.663   3.515   3.032  0.3665 -0.2334 -0.3851
   85MOL   C26027308   6.886   3.385   2.945  0.8402  0.0285 -0.3526
   85MOL   C26127309   7.036   3.395   2.950  0.2163  0.5337  0.4777
   85MOL   C26227310   7.115   3.267   2.943 -0.0116 -0.1797  0.6412
   85MOL   C26327311   7.106   3.510   2.977  0.9140  0.5094  0.1239
   85MOL   H26427312   6.858   3.587   3.023 -0.1358 -0.3995  0.4426
   85MOL   H26527313   6.634   3.605   3.087  2.2417  0.9687 -1.3340
   85MOL   H26627314   6.596   3.432   3.055  0.1564 -0.0033 -0.1491
   85MOL   H26727315   6.648   3.542   2.927 -2.4428 -2.2586 -0.5601
   85MOL   H26827316   6.874   3.283   2.982 -0.8461  1.6413  3.8531
   85MOL   H26927317   7.223   3.282   2.942  0.0141 -0.3336 -0.8020
   85MOL   H27027318   7.097   3.223   2.845 -2.3591  1.3882  0.3252
   85MOL   H27127319   7.098   3.200   3.027  2.9162  0.1198  1.5311
   85MOL   H27227320   7.062   3.608   2.980 -2.9132 -1.1644  2.0337
   85MOL   H27327321   7.214   3.501   2.982  0.9462  1.1623  0.6762
   85MOL   C27427322   6.841   3.386   2.798 -0.8403 -0.4223  0.1442
   85MOL   C27527323   6.840   3.527   2.739 -0.6833 -0.3292 -0.3042
   85MOL   C27627324   6.706   3.314   2.769 -0.1148  0.0657  0.6930
   85MOL   C27727325   6.687   3.179   2.839 -0.0190 -0.4362 -0.2246
   85MOL   C27827326   6.791   3.069   2.809 -0.3031 -1.0055 -0.6771
   85MOL   C27927327   6.582   3.159   2.919  0.1688  0.3714 -0.0408
   85MOL   H28027328   6.918   3.329   2.746 -2.6752 -2.0260 -0.8587
   85MOL   H28127329   6.825   3.520   2.632 -0.2769  1.0351 -0.4576
   85MOL   H28227330   6.930   3.586   2.760 -0.9851  0.3030 -0.8044
   85MOL   H28327331   6.754   3.592   2.756  0.2498  1.4836 -2.3225
   85MOL   H28427332   6.627   3.375   2.813 -0.6748 -1.0273  1.2336
   85MOL   H28527333   6.894   3.105   2.815 -0.6859  0.2450 -1.3612
   85MOL   H28627334   6.775   3.020   2.713  2.7171 -1.6387 -0.8906
   85MOL   H28727335   6.775   2.988   2.880 -2.5239  2.8355  3.4286
   85MOL   H28827336   6.502   3.229   2.939 -1.5395 -1.5399 -0.0071
   85MOL   H28927337   6.565   3.066   2.971 -0.2178  0.8384  0.6770
   85MOL   C29027338   6.661   3.296   2.617  0.8791 -0.8560 -0.0992
   85MOL   C29127339   6.777   3.260   2.517  0.6956 -0.1887 -0.4479
   85MOL   C29227340   6.573   3.419   2.567  0.2340 -1.0511 -0.3041
   85MOL   C29327341   6.439   3.438   2.638  0.4639  0.0866 -0.4479
   85MOL   C29427342   6.321   3.336   2.602 -0.5155 -0.1054 -0.3211
   85MOL   C29527343   6.403   3.542   2.713 -0.0082 -0.1791  0.6333
   85MOL   H29627344   6.593   3.211   2.608 -1.6182  1.2241 -1.3609
   85MOL   H29727345   6.833   3.176   2.559  0.3078  0.9888  2.4994
   85MOL   H29827346   6.849   3.341   2.511 -1.0394  1.4157 -0.0493
   85MOL   H29927347   6.738   3.225   2.421  0.4329  1.0506 -0.8012
   85MOL   H30027348   6.610   3.506   2.621 -1.8448 -1.7356  2.3726
   85MOL   H30127349   6.258   3.365   2.517  0.7707  1.7240 -0.6879
   85MOL   H30227350   6.257   3.322   2.689 -0.1316  0.9702  0.1458
   85MOL   H30327351   6.359   3.236   2.580 -0.4845 -0.3590  0.8372
   85MOL   H30427352   6.477   3.616   2.740  0.9706 -0.6159 -0.7994
   85MOL   H30527353   6.301   3.552   2.749 -0.7194 -2.2776 -0.7121
   85MOL   C30627354   6.572   3.464   2.421 -0.4080 -0.2331  0.5490
   85MOL   C30727355   6.510   3.355   2.327 -0.5530  0.4944 -0.5247
   85MOL   C30827356   6.704   3.526   2.373 -0.1438 -0.2450 -0.2444
   85MOL   C30927357   6.698   3.611   2.243  0.1509 -0.0288 -0.8243
   85MOL   C31027358   6.829   3.666   2.194 -0.1321  0.5452 -0.2305
   85MOL   C31127359   6.590   3.626   2.169  0.0711 -0.5014  0.8193
   85MOL   H31227360   6.503   3.548   2.418 -2.5192 -1.8871  1.1707
   85MOL   H31327361   6.543   3.339   2.224  0.0666 -0.8053 -0.1380
   85MOL   H31427362   6.404   3.376   2.319 -0.2336  1.8178 -1.4531
   85MOL   H31527363   6.513   3.255   2.370 -0.3855  2.2533  3.7669
   85MOL   H31627364   6.755   3.589   2.446  0.5735  1.4199 -2.1147
   85MOL   H31727365   6.836   3.764   2.241 -3.6302  0.5108  0.5418
   85MOL   H31827366   6.841   3.686   2.088  0.7836  1.0387 -0.0364
   85MOL   H31927367   6.913   3.607   2.232 -0.1587 -0.8764 -2.3221
   85MOL   H32027368   6.493   3.590   2.201 -1.5353  2.4556 -0.5514
   85MOL   H32127369   6.590   3.673   2.072  1.7200  0.8055  1.4312
   85MOL   H32227370   6.774   3.445   2.358 -0.7295 -0.6106 -1.0592
   86MOL     C127371   1.989   3.520   6.051 -0.3460 -1.0393  0.4364
   86MOL     C227372   2.036   3.655   5.994 -0.1618 -0.3761 -0.0483
   86MOL     C327373   2.073   3.401   6.010 -0.3444  0.2564 -0.4359
   86MOL     C427374   2.069   3.360   5.864 -0.9211 -0.2202  0.1098
   86MOL     C527375   2.179   3.275   5.819  0.2877  1.1512 -0.1352
   86MOL     C627376   1.967   3.389   5.784 -0.9263 -0.3299 -0.7680
   86MOL     H727377   1.991   3.529   6.160 -2.4136  0.7046  0.3642
   86MOL     H827378   2.143   3.659   5.973 -0.4651  1.4041 -1.3366
   86MOL     H927379   2.000   3.734   6.060  1.5138 -0.6988  1.2848
   86MOL    H1027380   1.993   3.667   5.895 -1.4622  0.8655  0.6447
   86MOL    H1127381   2.178   3.429   6.026 -0.4563 -0.0479  0.8686
   86MOL    H1227382   2.279   3.309   5.845  0.5067  1.3278 -1.2053
   86MOL    H1327383   2.164   3.253   5.714 -0.5406  1.4626 -0.0836
   86MOL    H1427384   2.164   3.177   5.864  0.2588  0.7230 -1.0785
   86MOL    H1527385   1.877   3.443   5.806 -0.5899  0.9221 -2.4170
   86MOL    H1627386   1.962   3.353   5.682 -1.4218  0.7434 -1.1188
   86MOL    H1727387   1.884   3.506   6.028 -0.2611 -2.6497  0.9737
   86MOL    C1827388   2.045   3.291   6.117 -0.1241  0.9389  0.2969
   86MOL    C1927389   1.900   3.224   6.104 -0.0973 -0.2469 -0.2984
   86MOL    C2027390   2.097   3.315   6.264  0.2081  0.3804  0.4435
   86MOL    C2127391   2.227   3.395   6.283  0.6211  0.3063  0.2100
   86MOL    C2227392   2.352   3.310   6.262  0.5983  0.5057  0.0674
   86MOL    C2327393   2.233   3.524   6.312  0.5740 -0.0104  0.3275
   86MOL    H2427394   2.109   3.206   6.093 -0.5188  0.3114  1.4247
   86MOL    H2527395   1.820   3.298   6.101  1.1180  1.0863 -0.3934
   86MOL    H2627396   1.869   3.149   6.177 -1.7222 -0.6582 -1.3787
   86MOL    H2727397   1.885   3.180   6.005 -2.0724  1.5805 -0.8558
   86MOL    H2827398   2.031   3.395   6.296 -1.0406 -0.4137 -0.0930
   86MOL    H2927399   2.442   3.369   6.279  1.9060 -1.4647  0.1016
   86MOL    H3027400   2.360   3.280   6.158  1.5033 -2.5822  0.9856
   86MOL    H3127401   2.352   3.227   6.332 -0.2265 -0.2200 -0.7782
   86MOL    H3227402   2.143   3.582   6.324 -0.3504 -1.6214  1.3772
   86MOL    H3327403   2.332   3.564   6.325  0.3629  0.1451  1.5453
   86MOL    C3427404   2.083   3.204   6.374 -0.8454 -0.7380  0.3440
   86MOL    C3527405   2.110   3.062   6.317  0.2451 -0.4064 -0.2238
   86MOL    C3627406   1.953   3.225   6.466 -0.6629  0.2605  0.1706
   86MOL    C3727407   1.962   3.358   6.528  0.5616 -0.8007  0.8961
   86MOL    C3827408   1.833   3.435   6.536  0.0875 -0.3872 -0.9324
   86MOL    C3927409   2.070   3.430   6.571 -0.1779  0.7837 -0.3352
   86MOL    H4027410   2.159   3.221   6.450  1.7023  0.6816 -2.4057
   86MOL    H4127411   2.128   2.976   6.382  0.9478 -0.8412 -0.9797
   86MOL    H4227412   2.191   3.057   6.244  1.1700  2.2577  0.5686
   86MOL    H4327413   2.026   3.028   6.257 -1.1812  0.2146  1.3892
   86MOL    H4427414   1.879   3.231   6.386 -0.9417  2.0207  0.5403
   86MOL    H4527415   1.844   3.534   6.580 -0.8378 -0.5239 -0.3758
   86MOL    H4627416   1.762   3.396   6.609  2.1956 -0.8611  0.9118
   86MOL    H4727417   1.791   3.443   6.436  2.4158 -0.2695 -1.9354
   86MOL    H4827418   2.172   3.396   6.568  0.2095  1.8940  0.3165
   86MOL    H4927419   2.048   3.524   6.620 -2.1785  0.5804 -0.8072
   86MOL    C5027420   1.922   3.117   6.566  0.1676 -0.2493 -0.0233
   86MOL    C5127421   2.047   3.084   6.651  0.2703  1.0746 -0.3739
   86MOL    C5227422   1.852   2.990   6.507  0.6530 -0.2572  0.0269
   86MOL    C5327423   1.719   3.018   6.428 -0.4694  0.3069  0.0984
   86MOL    C5427424   1.696   2.935   6.306  0.4598 -0.5338 -0.0881
   86MOL    C5527425   1.632   3.114   6.453 -0.0686  0.1555 -0.0171
   86MOL    H5627426   1.844   3.150   6.635  1.0285 -2.6256  2.1806
   86MOL    H5727427   2.102   3.170   6.689  0.1934  1.2309 -0.6142
   86MOL    H5827428   2.125   3.022   6.608 -0.0874 -0.3307  0.9494
   86MOL    H5927429   2.014   3.026   6.737  2.3552  2.4440  1.4022
   86MOL    H6027430   1.920   2.946   6.434 -0.4908 -0.6864 -0.7980
   86MOL    H6127431   1.657   2.838   6.336  2.3676 -0.4782  2.7920
   86MOL    H6227432   1.786   2.918   6.247  0.3242  1.1958 -0.8469
   86MOL    H6327433   1.627   2.982   6.236  0.5613 -0.9578 -0.4749
   86MOL    H6427434   1.645   3.175   6.541 -0.1596 -0.2427  0.2730
   86MOL    H6527435   1.548   3.136   6.389  1.5516  0.7981 -1.9865
   86MOL    C6627436   1.806   2.882   6.606  0.2037  0.0937  0.0439
   86MOL    C6727437   1.716   2.934   6.719  0.3610  0.0945  0.1029
   86MOL    C6827438   1.905   2.777   6.648  0.4022  0.6093 -0.5265
   86MOL    C6927439   2.003   2.732   6.542  0.4222  0.1793 -1.1691
   86MOL    C7027440   2.149   2.717   6.583 -0.0289  0.2862  0.1473
   86MOL    C7127441   1.973   2.686   6.421  0.3694  0.0387 -0.1206
   86MOL    H7227442   1.747   2.808   6.552  0.0990 -0.5169  0.9652
   86MOL    H7327443   1.644   3.014   6.701  1.1709  0.5792 -1.0919
   86MOL    H7427444   1.794   2.967   6.788  1.9707  1.5057 -2.3139
   86MOL    H7527445   1.657   2.861   6.774  1.3359 -0.8604 -0.1120
   86MOL    H7627446   1.966   2.838   6.714  0.7418 -0.1553 -0.1340
   86MOL    H7727447   2.153   2.642   6.663 -2.6722 -0.4451 -0.3817
   86MOL    H7827448   2.201   2.812   6.595  2.8266 -0.5311 -4.7294
   86MOL    H7927449   2.208   2.674   6.502  0.0713 -0.9519  0.8617
   86MOL    H8027450   1.869   2.689   6.390 -0.0234 -0.3009  1.1497
   86MOL    H8127451   2.052   2.647   6.359 -0.1155 -1.4543  0.2016
   86MOL    C8227452   1.852   2.656   6.736  0.0608  0.5123  0.0262
   86MOL    C8327453   1.731   2.596   6.660 -0.0614 -0.2373  0.0788
   86MOL    C8427454   1.850   2.687   6.892 -0.2154 -0.0674 -0.3124
   86MOL    C8527455   1.995   2.689   6.936 -0.4217 -0.2636 -0.1541
   86MOL    C8627456   2.075   2.561   6.922 -0.3978  0.0180 -0.2533
   86MOL    C8727457   2.057   2.803   6.967  0.7566  0.0903 -0.1822
   86MOL    H8827458   1.924   2.575   6.721  0.6594  0.8821  0.8632
   86MOL    H8927459   1.728   2.488   6.673 -1.6676 -0.5784 -2.8028
   86MOL    H9027460   1.741   2.594   6.552 -1.2382 -0.7635 -0.0259
   86MOL    H9127461   1.633   2.642   6.675  0.0815  0.3066 -0.6518
   86MOL    H9227462   1.808   2.787   6.903  0.5295  0.2340 -0.1842
   86MOL    H9327463   2.026   2.473   6.964 -0.9769  0.2497 -0.4318
   86MOL    H9427464   2.163   2.578   6.984 -1.1468  0.0113  0.8268
   86MOL    H9527465   2.105   2.524   6.824 -1.9564 -0.3291 -0.6171
   86MOL    H9627466   2.010   2.899   6.979 -0.3127 -0.3531 -0.7603
   86MOL    H9727467   2.162   2.801   6.992  0.0835  0.8359  2.8339
   86MOL    C9827468   1.773   2.593   6.987 -0.5297 -0.6140  0.3313
   86MOL    C9927469   1.631   2.577   6.949  0.7913 -0.3632 -0.2860
   86MOL   C10027470   1.795   2.628   7.140  0.5599 -0.8814 -0.2298
   86MOL   C10127471   1.789   2.508   7.234  0.6777 -0.2590 -0.0291
   86MOL   C10227472   1.652   2.448   7.267 -0.9649  0.5547  0.5880
   86MOL   C10327473   1.902   2.459   7.286  0.6018 -0.1111 -0.4847
   86MOL   H10427474   1.811   2.491   6.977  1.8058  0.0865  1.6983
   86MOL   H10527475   1.585   2.664   6.902  0.7145 -0.7559 -0.9442
   86MOL   H10627476   1.560   2.563   7.030  0.2635  1.8988 -0.3132
   86MOL   H10727477   1.614   2.500   6.874  2.7183 -1.4088  0.3137
   86MOL   H10827478   1.895   2.669   7.152  0.3681  0.8007 -3.6260
   86MOL   H10927479   1.652   2.381   7.353  0.3661  0.2621  0.3616
   86MOL   H11027480   1.615   2.395   7.180  3.1257 -0.0454 -0.8955
   86MOL   H11127481   1.586   2.529   7.299 -1.9525  0.0912 -0.2670
   86MOL   H11227482   1.996   2.504   7.257  0.3886  0.5418 -0.1766
   86MOL   H11327483   1.898   2.374   7.352  1.5936 -0.1331 -0.4327
   86MOL   C11427484   1.708   2.744   7.205  0.2092 -0.1781  0.3530
   86MOL   C11527485   1.686   2.867   7.110 -0.1074 -0.1201 -0.5335
   86MOL   C11627486   1.743   2.774   7.358 -0.3338 -0.4105  0.2237
   86MOL   C11727487   1.607   2.750   7.436 -0.0910 -0.3561 -0.9315
   86MOL   C11827488   1.493   2.853   7.418  0.3243  0.7435  0.1636
   86MOL   C11927489   1.598   2.652   7.529  0.1891  0.6506  1.0627
   86MOL   H12027490   1.604   2.712   7.199  0.6316 -1.3534 -1.0384
   86MOL   H12127491   1.780   2.907   7.071 -1.6128  1.8024 -2.3566
   86MOL   H12227492   1.632   2.948   7.159 -1.0370 -0.9390 -0.1751
   86MOL   H12327493   1.621   2.850   7.024 -1.0172 -0.3191  0.1820
   86MOL   H12427494   1.809   2.697   7.399  1.5675  0.5696 -0.9272
   86MOL   H12527495   1.533   2.952   7.396  0.6543  0.7462  0.7661
   86MOL   H12627496   1.449   2.868   7.516  0.7985  0.4155  0.4307
   86MOL   H12727497   1.417   2.817   7.349 -0.2500 -1.4568  1.9075
   86MOL   H12827498   1.685   2.590   7.542 -0.1940 -0.3416 -0.9705
   86MOL   H12927499   1.508   2.620   7.579 -0.7354  0.6013 -0.6170
   86MOL   C13027500   1.820   2.909   7.387 -0.7859 -1.0451 -0.4532
   86MOL   C13127501   1.954   2.908   7.323 -0.4735 -0.4744  0.1231
   86MOL   C13227502   1.832   2.957   7.542  0.3052 -0.3822 -0.0593
   86MOL   C13327503   1.836   3.110   7.558 -0.6148 -0.3239 -0.3973
   86MOL   C13427504   1.697   3.173   7.541 -0.0166 -0.2522 -0.3453
   86MOL   C13527505   1.948   3.178   7.583  0.0367  0.1817 -0.3657
   86MOL   H13627506   1.765   2.994   7.347 -1.6507 -1.1456  0.5009
   86MOL   H13727507   2.013   2.994   7.352  1.5450 -1.8393  0.1393
   86MOL   H13827508   1.956   2.891   7.215  0.5978  0.1933  0.0356
   86MOL   H13927509   2.015   2.831   7.370  0.5668  0.8749  1.0256
   86MOL   H14027510   1.736   2.929   7.586  0.0902 -1.4715 -1.2054
   86MOL   H14127511   1.716   3.279   7.533  0.2243 -0.1377  1.4229
   86MOL   H14227512   1.636   3.147   7.628 -1.5207 -1.0047 -1.5972
   86MOL   H14327513   1.634   3.141   7.458  0.6999  0.4869 -1.1791
   86MOL   H14427514   2.043   3.132   7.603  1.2088  2.7547  0.1084
   86MOL   H14527515   1.950   3.286   7.581 -0.6688  0.1922 -0.6398
   86MOL   C14627516   1.938   2.876   7.635 -0.7519 -0.3940  0.4768
   86MOL   C14727517   1.939   2.718   7.614  0.4213 -0.2838  0.5072
   86MOL   C14827518   1.957   2.925   7.782 -0.0821  0.9566  0.2995
   86MOL   C14927519   2.105   2.895   7.827  0.3143 -0.1756  0.1545
   86MOL   C15027520   2.204   2.998   7.785 -0.0810  0.2388  0.2045
   86MOL   C15127521   2.143   2.782   7.890 -0.1977 -0.0453  0.0298
   86MOL   H15227522   2.035   2.898   7.589 -0.7192 -0.2906  0.5962
   86MOL   H15327523   2.009   2.664   7.678  0.1889 -1.1337  0.0498
   86MOL   H15427524   1.969   2.699   7.512 -0.8987  1.6795 -0.2910
   86MOL   H15527525   1.846   2.667   7.638  0.4088 -2.2069 -3.3472
   86MOL   H15627526   1.952   3.033   7.791 -0.4358  0.9582  0.0879
   86MOL   H15727527   2.172   3.097   7.817 -0.2650 -0.6521  2.9055
   86MOL   H15827528   2.217   2.998   7.677 -3.6680 -0.1855 -0.2921
   86MOL   H15927529   2.305   2.977   7.818 -0.4462 -1.4445  0.2948
   86MOL   H16027530   2.083   2.700   0.033  1.4892 -0.9193  0.9258
   86MOL   H16127531   2.250   2.770   0.007 -0.1300  1.4363  1.3325
   86MOL   C16227532   1.859   2.856   7.884 -0.5648 -0.0548 -0.3517
   86MOL   C16327533   1.715   2.893   7.847  0.0460  0.1181 -0.0586
   86MOL   C16427534   1.890   2.880   0.143  0.3282 -0.0339 -0.4387
   86MOL   C16527535   1.832   2.760   0.226 -0.1675 -0.5441  0.5875
   86MOL   C16627536   1.915   2.639   0.247  0.7097  0.5436  0.5722
   86MOL   C16727537   1.702   2.762   0.261  0.2085 -0.0734  0.0601
   86MOL   H16827538   1.865   2.748   7.871 -0.7520 -0.0830 -0.2063
   86MOL   H16927539   1.648   2.894   0.040 -0.2613 -4.9404 -0.0940
   86MOL   H17027540   1.671   2.817   7.783 -3.1049  1.2861  0.6324
   86MOL   H17127541   1.707   2.985   7.789  1.1077  0.7915  0.8334
   86MOL   H17227542   1.997   2.870   0.160  0.1894  0.6146  0.7940
   86MOL   H17327543   1.903   2.589   0.151 -3.4308  1.1052  0.7327
   86MOL   H17427544   1.868   2.583   0.328 -2.1055  3.2257  0.8408
   86MOL   H17527545   2.019   2.652   0.277  1.2090 -2.7802  0.5541
   86MOL   H17627546   1.648   2.855   0.250  3.2740  2.1041  2.5770
   86MOL   H17727547   1.655   2.681   0.316  1.7152  0.9859  2.9721
   86MOL   C17827548   1.858   3.025   0.209  0.1198 -0.2350  0.2537
   86MOL   C17927549   1.888   3.151   0.108 -0.6689  0.7280 -0.4488
   86MOL   C18027550   1.903   3.036   0.354 -0.4406 -0.2485  0.1914
   86MOL   C18127551   1.803   3.124   0.426 -0.0265  0.0227 -0.2459
   86MOL   C18227552   1.695   3.044   0.496 -0.4445 -0.2573 -0.1640
   86MOL   C18327553   1.798   3.256   0.434 -0.5617  0.4052 -0.4055
   86MOL   H18427554   1.749   3.031   0.210  0.0392 -1.1261 -1.3141
   86MOL   H18527555   1.989   3.148   0.067 -0.7854 -2.4511 -0.6389
   86MOL   H18627556   1.880   3.250   0.154 -1.6466  0.8983 -0.9663
   86MOL   H18727557   1.818   3.148   0.025 -1.1110 -0.9557 -0.0365
   86MOL   H18827558   1.900   2.939   0.405  1.1279 -0.1639  0.4756
   86MOL   H18927559   1.746   2.989   0.575 -1.7143 -2.5056 -0.8698
   86MOL   H19027560   1.658   2.958   0.441  0.5239  0.7324 -2.4097
   86MOL   H19127561   1.620   3.113   0.532  0.4915  0.7073 -0.0347
   86MOL   H19227562   1.861   3.323   0.378  1.0500 -1.1245 -0.4700
   86MOL   H19327563   1.723   3.305   0.494 -1.3919  0.3991 -1.4121
   86MOL   C19427564   2.052   3.091   0.392 -0.5095 -0.3062 -0.6510
   86MOL   C19527565   2.166   3.026   0.303  0.3572 -0.3997 -0.3305
   86MOL   C19627566   2.077   3.092   0.548  0.1893 -0.5612 -0.4718
   86MOL   C19727567   2.131   3.229   0.600  0.3627 -0.5509  0.6522
   86MOL   C19827568   2.278   3.252   0.575  0.0552  0.5955 -0.1890
   86MOL   C19927569   2.065   3.333   0.664 -0.4149 -0.3886 -0.5371
   86MOL   H20027570   2.057   3.193   0.356  0.6853  0.6488  2.0457
   86MOL   H20127571   2.143   3.058   0.201  0.8484 -2.5312 -1.1501
   86MOL   H20227572   2.164   2.917   0.311  0.6365 -0.2871  1.2362
   86MOL   H20327573   2.265   3.055   0.338  0.0046  1.0372 -0.5177
   86MOL   H20427574   1.985   3.095   0.607  1.5121  3.0498  1.5759
   86MOL   H20527575   2.318   3.287   0.670 -0.3419 -1.1609  0.6398
   86MOL   H20627576   2.296   3.323   0.494 -2.3549  2.4651  0.8062
   86MOL   H20727577   2.319   3.155   0.547  0.3769  0.7128 -0.1125
   86MOL   H20827578   1.961   3.318   0.690 -0.1819 -1.0042  0.0492
   86MOL   H20927579   2.110   3.422   0.705 -0.8945 -0.9335  1.1959
   86MOL   C21027580   2.148   2.966   0.609 -0.3264 -0.5870 -0.5250
   86MOL   C21127581   2.080   2.831   0.580  0.1429  0.3423  0.0856
   86MOL   C21227582   2.176   2.969   0.762 -0.0553 -0.7789  0.4649
   86MOL   C21327583   2.321   2.918   0.783  0.0266 -0.2553  0.1670
   86MOL   C21427584   2.437   3.014   0.753  0.3966 -0.4794 -0.3027
   86MOL   C21527585   2.345   2.785   0.801 -0.1477 -0.1670  0.7200
   86MOL   H21627586   2.248   2.958   0.565 -1.0649 -1.9686 -2.0584
   86MOL   H21727587   2.100   2.802   0.477 -0.4862 -0.7566  0.2696
   86MOL   H21827588   1.980   2.811   0.616 -0.7695 -1.2625 -3.1830
   86MOL   H21927589   2.147   2.759   0.627 -1.3016 -0.8250  0.3601
   86MOL   H22027590   2.186   3.075   0.782  1.7319 -1.1117  1.4359
   86MOL   H22127591   2.522   2.969   0.804 -1.3608 -2.5151  0.9128
   86MOL   H22227592   2.419   3.108   0.806 -0.8476  0.0115 -1.5613
   86MOL   H22327593   2.460   3.012   0.647  1.2942 -3.0303 -0.0944
   86MOL   H22427594   2.261   2.717   0.801  0.5910 -1.0959  1.1736
   86MOL   H22527595   2.441   2.737   0.804  0.4299  0.8846 -0.8778
   86MOL   C22627596   2.070   2.921   0.871 -0.4324 -0.7153  0.4197
   86MOL   C22727597   1.930   2.977   0.843 -0.3224 -0.1758  0.1160
   86MOL   C22827598   2.116   2.938   1.020 -0.4511 -0.1035 -0.3075
   86MOL   C22927599   2.103   2.806   1.091  0.1711 -0.2977 -0.5962
   86MOL   C23027600   1.962   2.768   1.123 -0.4968 -0.8723 -0.5596
   86MOL   C23127601   2.209   2.743   1.145  0.6206  0.0314 -0.2807
   86MOL   H23227602   2.056   2.815   0.851 -0.0420 -1.1733  2.4881
   86MOL   H23327603   1.913   3.084   0.836  0.5806 -0.0392 -0.0508
   86MOL   H23427604   1.873   2.949   0.932  2.2038 -0.8659  1.5680
   86MOL   H23527605   1.882   2.937   0.754 -1.8350  0.5065  0.6153
   86MOL   H23627606   2.225   2.938   1.015 -0.3667  1.2614  1.3141
   86MOL   H23727607   1.980   2.680   1.185 -1.8030 -1.2393 -0.6665
   86MOL   H23827608   1.907   2.740   1.033  0.2112 -0.3611 -1.1536
   86MOL   H23927609   1.912   2.833   1.195 -0.2382 -1.5418  0.2261
   86MOL   H24027610   2.307   2.778   1.115  1.0968 -0.1867  0.9723
   86MOL   H24127611   2.202   2.657   1.210 -0.2037  1.5713  1.7183
   86MOL   C24227612   2.080   3.071   1.092  0.1940 -0.5417  0.3236
   86MOL   C24327613   2.136   3.195   1.015 -0.3555 -0.1050 -0.1515
   86MOL   C24427614   2.108   3.091   1.250 -0.1534 -0.4157  0.4238
   86MOL   C24527615   1.977   3.120   1.329 -0.1746 -0.1097  0.3965
   86MOL   C24627616   1.914   3.260   1.317  0.0190 -0.0238 -0.4911
   86MOL   C24727617   1.925   3.030   1.416  0.1252 -0.3865  0.3603
   86MOL   H24827618   1.972   3.075   1.085  0.1588  0.4570  1.2575
   86MOL   H24927619   2.239   3.193   0.978 -1.0990  2.3349 -2.5205
   86MOL   H25027620   2.125   3.283   1.078 -0.6478 -0.1252 -0.1775
   86MOL   H25127621   2.081   3.206   0.921 -1.5269  1.2415  0.6860
   86MOL   H25227622   2.118   2.986   1.277  1.4486 -0.7982 -1.5516
   86MOL   H25327623   1.882   3.288   1.217 -0.1341 -0.0767 -0.4578
   86MOL   H25427624   1.981   3.339   1.350  1.3914 -2.5058  2.8983
   86MOL   H25527625   1.824   3.264   1.379 -0.1716 -1.1112 -0.6877
   86MOL   H25627626   1.966   2.931   1.426 -0.7146 -0.7171  0.5785
   86MOL   H25727627   1.831   3.053   1.464 -0.3330  0.8172 -1.0900
   86MOL   C25827628   2.240   3.157   1.298 -0.4251 -0.3213  0.9039
   86MOL   C25927629   2.354   3.081   1.233  0.0173  0.0881  0.2155
   86MOL   C26027630   2.260   3.166   1.454  0.0950 -0.2262 -0.0029
   86MOL   C26127631   2.319   3.310   1.474  0.5010 -0.9914  0.3452
   86MOL   C26227632   2.463   3.338   1.425  0.0594  0.0253  0.2018
   86MOL   C26327633   2.251   3.415   1.535 -0.3980 -0.1078 -0.2969
   86MOL   H26427634   2.238   3.258   1.258 -2.0602 -0.3691  0.8524
   86MOL   H26527635   2.377   3.131   1.139  1.9258 -0.2936  0.4503
   86MOL   H26627636   2.336   2.976   1.210 -0.3360  0.5296 -1.6304
   86MOL   H26727637   2.443   3.107   1.291  2.3186 -2.6139 -1.9956
   86MOL   H26827638   2.168   3.176   1.511  0.2896  0.7612  0.1553
   86MOL   H26927639   2.492   3.431   1.472 -0.6848  0.3026  0.1307
   86MOL   H27027640   2.457   3.363   1.319  1.5902 -1.1217 -0.1676
   86MOL   H27127641   2.536   3.261   1.449 -0.4774 -0.6186 -0.1877
   86MOL   H27227642   2.156   3.396   1.582  0.6155  0.7784  2.1876
   86MOL   H27327643   2.283   3.516   1.555 -3.8388  1.0379 -0.2737
   86MOL   C27427644   2.340   3.065   1.535 -0.1043  0.1346 -0.8799
   86MOL   C27527645   2.265   2.928   1.528 -0.0547 -0.0222 -0.1482
   86MOL   C27627646   2.370   3.101   1.689  0.5396  0.6434 -0.0522
   86MOL   C27727647   2.516   3.077   1.724 -0.2806 -0.6048  0.1530
   86MOL   C27827648   2.553   2.933   1.748  0.1759 -0.0765 -0.6343
   86MOL   C27927649   2.616   3.169   1.735 -0.7744  0.2443  0.2279
   86MOL   H28027650   2.435   3.058   1.482  1.4367  1.5850  1.5745
   86MOL   H28127651   2.301   2.863   1.608  0.8917  0.1003 -0.4740
   86MOL   H28227652   2.295   2.880   1.435  2.9062  1.7462 -0.1684
   86MOL   H28327653   2.157   2.934   1.541 -0.4953 -2.0344 -2.4562
   86MOL   H28427654   2.362   3.209   1.690  0.2921  0.6218  0.4139
   86MOL   H28527655   2.489   2.887   1.824  3.2598 -0.5461  1.8104
   86MOL   H28627656   2.657   2.919   1.778 -0.2712 -0.6629  0.7055
   86MOL   H28727657   2.543   2.880   1.654 -1.5131 -1.6101  0.3737
   86MOL   H28827658   2.603   3.276   1.738  0.6678  0.4525 -0.4529
   86MOL   H28927659   2.717   3.137   1.755 -0.5762  0.6195 -0.1596
   86MOL   C29027660   2.260   3.062   1.800 -0.3201  0.6967 -0.5079
   86MOL   C29127661   2.119   3.105   1.772  0.5256 -0.1283  0.3965
   86MOL   C29227662   2.299   3.089   1.949 -0.7782 -0.3846  0.8516
   86MOL   C29327663   2.259   2.973   2.041  0.3325 -0.1160 -0.1871
   86MOL   C29427664   2.362   2.860   2.047 -0.2099  0.9725 -0.7717
   86MOL   C29527665   2.153   2.978   2.128 -0.4412 -0.7844  0.3139
   86MOL   H29627666   2.260   2.953   1.789  1.9794  0.3408  2.6460
   86MOL   H29727667   2.115   3.214   1.783  0.2197  0.1221 -1.9882
   86MOL   H29827668   2.047   3.058   1.838  0.5791  0.5057  0.9099
   86MOL   H29927669   2.088   3.085   1.670 -1.2956 -0.1679  0.9445
   86MOL   H30027670   2.408   3.096   1.952 -0.7074  0.4475 -2.2021
   86MOL   H30127671   2.455   2.908   2.075 -0.4805  1.4061 -0.6108
   86MOL   H30227672   2.362   2.796   1.958 -2.1134 -0.7120  0.3850
   86MOL   H30327673   2.328   2.783   2.117 -0.0116  1.2780 -0.3400
   86MOL   H30427674   2.080   3.057   2.123 -2.9579 -2.9774  1.3172
   86MOL   H30527675   2.142   2.893   2.194 -2.9445 -0.0778  0.8350
   86MOL   C30627676   2.269   3.235   2.003  0.1296  0.4480  0.4416
   86MOL   C30727677   2.322   3.347   1.911  0.0655  0.3654 -0.6068
   86MOL   C30827678   2.328   3.258   2.149  0.3247  0.2324 -0.1389
   86MOL   C30927679   2.247   3.361   2.223 -1.0659 -0.1983 -0.4462
   86MOL   C31027680   2.335   3.474   2.278 -0.1171 -0.0403 -0.1550
   86MOL   C31127681   2.115   3.355   2.245 -0.7547  0.5151  0.1301
   86MOL   H31227682   2.161   3.239   2.013  0.1440  0.8111  0.4473
   86MOL   H31327683   2.429   3.349   1.893  0.1388  2.9610 -0.0783
   86MOL   H31427684   2.305   3.441   1.964 -0.7509 -0.0513 -0.1041
   86MOL   H31527685   2.282   3.374   1.814 -0.9537 -2.3850 -0.9975
   86MOL   H31627686   2.323   3.166   2.209 -0.8223  1.0783  1.0923
   86MOL   H31727687   2.280   3.545   2.340  2.7025  1.8720  0.2322
   86MOL   H31827688   2.394   3.525   2.202  0.8076 -0.2442  0.4132
   86MOL   H31927689   2.407   3.427   2.346 -1.2401 -1.1210  0.3067
   86MOL   H32027690   2.048   3.284   2.199 -0.8993  0.2894  0.6895
   86MOL   H32127691   2.059   3.431   2.299 -2.8792 -0.5024 -0.5830
   86MOL   H32227692   2.435   3.277   2.155  0.5949 -1.5482  1.5536
   87MOL     C127693   5.096   2.597   5.986  0.2250  0.4944 -0.2662
   87MOL     C227694   5.017   2.482   5.924  0.0095 -0.7684  0.6999
   87MOL     C327695   5.144   2.562   6.126  0.2230  0.8397  0.2639
   87MOL     C427696   5.029   2.514   6.212 -0.0460  0.2147  0.0222
   87MOL     C527697   4.920   2.615   6.237 -0.2241  0.5275 -0.3013
   87MOL     C627698   5.021   2.386   6.251 -0.0912  0.0904  0.1354
   87MOL     H727699   5.188   2.615   5.931  0.7966 -1.3413  0.0469
   87MOL     H827700   5.017   2.489   5.815  0.2329  1.0562  0.7969
   87MOL     H927701   4.917   2.472   5.967 -0.3971  0.2302  0.0064
   87MOL    H1027702   5.067   2.388   5.949  1.1348 -0.0526  1.1681
   87MOL    H1127703   5.206   2.473   6.124  2.4426  2.3664 -3.2736
   87MOL    H1227704   4.830   2.571   6.280 -0.9406  2.0995 -0.1257
   87MOL    H1327705   4.880   2.670   6.152  1.0549  1.0433 -0.5845
   87MOL    H1427706   4.952   2.700   6.297 -0.3544 -0.0449  0.5867
   87MOL    H1527707   5.101   2.323   6.216  0.4497  1.6514 -1.4302
   87MOL    H1627708   4.936   2.346   6.306 -0.0486  0.0098  0.1436
   87MOL    H1727709   5.037   2.687   5.971  2.8458  2.1329 -0.9653
   87MOL    C1827710   5.231   2.675   6.195 -1.0990 -0.8931  0.4067
   87MOL    C1927711   5.222   2.825   6.135  0.2309 -0.8728 -0.3053
   87MOL    C2027712   5.388   2.661   6.214  0.0293 -0.4284  0.4315
   87MOL    C2127713   5.476   2.683   6.088  0.5660 -0.0701  0.8255
   87MOL    C2227714   5.477   2.575   5.981  0.0205 -0.4241  0.2886
   87MOL    C2327715   5.543   2.797   6.059  0.4036  0.0253  0.3985
   87MOL    H2427716   5.175   2.684   6.288 -2.7916  1.4765 -0.7741
   87MOL    H2527717   5.275   2.892   6.204  0.3810 -1.1578 -0.1452
   87MOL    H2627718   5.119   2.861   6.127  0.2796 -0.9479 -1.2600
   87MOL    H2727719   5.265   2.830   6.035  0.7545  0.3122 -0.0316
   87MOL    H2827720   5.413   2.739   6.286 -0.3117  1.8781 -1.8898
   87MOL    H2927721   5.387   2.585   5.920 -0.7948 -2.8175  1.0255
   87MOL    H3027722   5.480   2.469   6.009 -2.8525 -0.9180 -1.0917
   87MOL    H3127723   5.558   2.576   5.907  1.6531 -0.1497  2.0296
   87MOL    H3227724   5.552   2.873   6.135 -1.7134 -1.7367  2.4771
   87MOL    H3327725   5.603   2.813   5.970  0.2417 -1.2886  0.0347
   87MOL    C3427726   5.429   2.527   6.283 -0.1467 -0.0513  0.3277
   87MOL    C3527727   5.344   2.505   6.412  0.0160 -0.6863 -0.1916
   87MOL    C3627728   5.583   2.512   6.310  1.2424  0.2393  0.1720
   87MOL    C3727729   5.614   2.360   6.298  0.8751  0.2944  0.1343
   87MOL    C3827730   5.707   2.328   6.182 -0.2638  0.2272  0.4817
   87MOL    C3927731   5.572   2.259   6.384  0.2460 -0.6095  0.2206
   87MOL    H4027732   5.399   2.441   6.222  2.0678 -1.2237  0.8415
   87MOL    H4127733   5.240   2.487   6.385  0.2214  0.5955 -1.9309
   87MOL    H4227734   5.347   2.590   6.481 -0.4424 -0.8045 -0.0225
   87MOL    H4327735   5.382   2.429   6.480  1.6450 -0.1117 -0.4473
   87MOL    H4427736   5.630   2.551   6.220 -0.0072  0.0567 -0.5721
   87MOL    H4527737   5.716   2.222   6.158 -0.1027  0.3174  0.1447
   87MOL    H4627738   5.812   2.358   6.188  0.1658 -1.1294  0.1229
   87MOL    H4727739   5.666   2.366   6.089  0.2308  0.0374  0.1784
   87MOL    H4827740   5.523   2.278   6.478 -0.0203 -1.5586  0.2869
   87MOL    H4927741   5.599   2.157   6.357  0.7457 -0.3872 -0.1182
   87MOL    C5027742   5.643   2.578   6.438  0.1701  0.6985 -0.2182
   87MOL    C5127743   5.597   2.721   6.474 -0.6477  0.0552  0.6123
   87MOL    C5227744   5.799   2.554   6.461  0.0485  0.6324  0.2794
   87MOL    C5327745   5.824   2.523   6.607  0.4646  0.3283 -0.3383
   87MOL    C5427746   5.802   2.380   6.650  0.1334 -0.5652  0.0880
   87MOL    C5527747   5.848   2.617   6.699  0.3470  0.4649 -0.3103
   87MOL    H5627748   5.600   2.520   6.519 -0.5528  0.9031 -0.4512
   87MOL    H5727749   5.654   2.758   6.560  0.7758  1.2276 -0.8013
   87MOL    H5827750   5.491   2.732   6.495 -1.2029 -1.7517 -1.1704
   87MOL    H5927751   5.628   2.788   6.393  0.6543 -3.5624 -1.9991
   87MOL    H6027752   5.826   2.459   6.416  1.8842  0.7994  1.0063
   87MOL    H6127753   5.862   2.312   6.589 -0.8169 -1.2863 -0.0532
   87MOL    H6227754   5.697   2.355   6.634  0.2906 -0.0595 -1.8332
   87MOL    H6327755   5.826   2.357   6.754  0.6625  0.6558  0.2372
   87MOL    H6427756   5.861   2.720   6.668  2.3540 -0.9038 -4.3943
   87MOL    H6527757   5.856   2.585   6.802  4.5784  1.7099 -0.1372
   87MOL    C6627758   5.899   2.657   6.398  0.2291  0.5524  0.1070
   87MOL    C6727759   5.887   2.657   6.246 -0.9339 -0.7057  0.5791
   87MOL    C6827760   6.049   2.642   6.440  0.0124 -0.0688 -0.4610
   87MOL    C6927761   6.119   2.782   6.456 -0.0274 -0.0405 -0.4053
   87MOL    C7027762   6.143   2.878   6.339 -0.4911 -0.5039 -0.3758
   87MOL    C7127763   6.153   2.830   6.575 -0.3195  0.4149  0.7359
   87MOL    H7227764   5.865   2.752   6.438 -0.5137  0.0667  0.6389
   87MOL    H7327765   5.978   2.696   6.200 -0.6226 -2.6554 -0.5113
   87MOL    H7427766   5.808   2.728   6.222  0.3061  0.7845  0.7806
   87MOL    H7527767   5.868   2.559   6.203 -0.6823 -1.1117  1.3955
   87MOL    H7627768   6.053   2.613   6.545 -0.8493 -0.7194 -0.6047
   87MOL    H7727769   6.236   2.932   6.354 -0.3248  0.0115 -2.9488
   87MOL    H7827770   6.060   2.941   6.308 -0.4135 -0.4841 -0.5428
   87MOL    H7927771   6.163   2.812   6.254  0.1541  0.5313 -1.0374
   87MOL    H8027772   6.149   2.765   6.662  2.1287 -1.2675 -0.3498
   87MOL    H8127773   6.184   2.931   6.598 -0.6550  1.2962 -2.4947
   87MOL    C8227774   6.145   2.530   6.374 -0.4205  0.0281  0.1770
   87MOL    C8327775   6.082   2.401   6.329  0.1835  0.4640  0.0598
   87MOL    C8427776   6.278   2.517   6.452  0.7121  0.0833 -0.3967
   87MOL    C8527777   6.405   2.525   6.365 -0.1548 -0.0717  0.4118
   87MOL    C8627778   6.425   2.420   6.252 -0.6532 -0.3079  0.3713
   87MOL    C8727779   6.492   2.626   6.382 -0.5275 -0.4511 -0.2569
   87MOL    H8827780   6.177   2.569   6.278 -1.4810 -0.4251 -0.3693
   87MOL    H8927781   6.020   2.347   6.400  0.8950  0.3658  0.6168
   87MOL    H9027782   6.166   2.338   6.301 -1.6655 -1.3037 -1.6258
   87MOL    H9127783   6.024   2.415   6.237 -2.3336  0.6290  1.6202
   87MOL    H9227784   6.291   2.605   6.515 -1.4527  0.8300 -0.9424
   87MOL    H9327785   6.423   2.319   6.295 -0.8713 -1.1710 -1.6282
   87MOL    H9427786   6.531   2.423   6.226 -0.8544 -1.0115 -0.5256
   87MOL    H9527787   6.366   2.425   6.161  0.6715  0.9983 -0.4510
   87MOL    H9627788   6.473   2.703   6.456 -0.9078 -0.8600  0.0762
   87MOL    H9727789   6.579   2.645   6.321 -0.3621 -0.7934 -0.1268
   87MOL    C9827790   6.289   2.393   6.558 -0.1695  0.2987 -0.0516
   87MOL    C9927791   6.159   2.396   6.651 -0.7789  0.6342 -0.1542
   87MOL   C10027792   6.425   2.396   6.643 -0.1551 -0.3586 -0.8277
   87MOL   C10127793   6.551   2.339   6.568 -0.4790  0.8038  0.3144
   87MOL   C10227794   6.557   2.184   6.526 -0.3904 -0.0019 -0.1557
   87MOL   C10327795   6.662   2.421   6.542  0.3111 -0.1370  0.1318
   87MOL   H10427796   6.289   2.295   6.510 -0.8618 -0.6425  1.8173
   87MOL   H10527797   6.158   2.319   6.728 -1.0952 -1.5723 -2.2849
   87MOL   H10627798   6.065   2.383   6.597 -0.0106 -1.3609 -1.0815
   87MOL   H10727799   6.152   2.483   6.716 -0.3327 -1.2394  2.4907
   87MOL   H10827800   6.436   2.505   6.651  1.5432 -0.5246 -0.6766
   87MOL   H10927801   6.469   2.158   6.468  1.7186 -1.7536 -2.6477
   87MOL   H11027802   6.563   2.118   6.613  0.3611  0.5365  0.2134
   87MOL   H11127803   6.647   2.174   6.466  0.0612  1.4082  0.2503
   87MOL   H11227804   6.650   2.522   6.578  0.4269  0.2836 -0.9905
   87MOL   H11327805   6.749   2.385   6.490  1.4708  2.9538 -0.1600
   87MOL   C11427806   6.431   2.338   6.787  0.4680  0.7205  0.4402
   87MOL   C11527807   6.378   2.192   6.791  0.1582  0.2212  0.0722
   87MOL   C11627808   6.364   2.424   6.909  0.1863  0.2838  0.3165
   87MOL   C11727809   6.403   2.576   6.906  1.0298  0.4529 -0.1222
   87MOL   C11827810   6.543   2.624   6.900 -1.0291 -0.4289  0.0646
   87MOL   C11927811   6.308   2.668   6.889  0.9854 -0.8233 -0.2506
   87MOL   H12027812   6.536   2.347   6.815  0.3422  1.2820  0.7622
   87MOL   H12127813   6.298   2.164   6.860  1.6845  1.6428  2.5269
   87MOL   H12227814   6.465   2.133   6.819  1.1945  1.5441 -0.2966
   87MOL   H12327815   6.358   2.148   6.694 -1.9206  1.0162  0.1136
   87MOL   H12427816   6.257   2.425   6.888 -0.0919 -2.2553  1.5372
   87MOL   H12527817   6.602   2.593   6.986 -0.0134  0.6341 -0.2309
   87MOL   H12627818   6.550   2.733   6.907  0.6664 -0.4096 -1.8424
   87MOL   H12727819   6.594   2.597   6.808 -1.2602 -2.1009  0.4152
   87MOL   H12827820   6.203   2.643   6.889  0.6668  0.4662 -0.5321
   87MOL   H12927821   6.325   2.774   6.880  1.7100 -0.9741 -0.6446
   87MOL   C13027822   6.379   2.368   7.059 -0.4031  0.8749  0.1306
   87MOL   C13127823   6.516   2.309   7.089  0.9485 -0.2831 -0.5415
   87MOL   C13227824   6.258   2.289   7.115  0.0223  0.7958  0.5989
   87MOL   C13327825   6.120   2.320   7.060  0.4950  0.1496  0.5532
   87MOL   C13427826   6.055   2.452   7.105  0.1268  0.3435 -0.2282
   87MOL   C13527827   6.057   2.244   6.965 -0.6761 -0.3109 -0.0027
   87MOL   H13627828   6.372   2.462   7.113  0.6739  0.4572  1.0156
   87MOL   H13727829   6.601   2.375   7.075 -2.5863  4.6326 -0.2531
   87MOL   H13827830   6.525   2.211   7.042 -2.6848 -1.1780  0.4297
   87MOL   H13927831   6.525   2.294   7.197 -1.2669 -2.4373 -0.5942
   87MOL   H14027832   6.280   2.193   7.068 -0.8011  1.8509 -2.0404
   87MOL   H14127833   6.050   2.469   7.213  0.7470  1.6063 -0.3793
   87MOL   H14227834   5.955   2.471   7.066 -0.7588 -0.3904  1.6089
   87MOL   H14327835   6.108   2.544   7.077 -3.0044  2.2268 -0.1795
   87MOL   H14427836   6.092   2.151   6.924  3.4994  1.9350 -1.9156
   87MOL   H14527837   5.964   2.273   6.920 -0.7938  1.1762  1.1424
   87MOL   C14627838   6.250   2.252   7.264  0.1468  0.5289  0.1268
   87MOL   C14727839   6.292   2.369   7.351 -0.4998  0.1157  0.2829
   87MOL   C14827840   6.308   2.109   7.312 -0.7506 -0.9547  0.7890
   87MOL   C14927841   6.246   1.991   7.224 -0.4462 -0.8335 -0.4484
   87MOL   C15027842   6.325   1.857   7.210  0.1009  0.5712 -0.4685
   87MOL   C15127843   6.113   1.993   7.191 -0.8987 -0.7819 -0.1870
   87MOL   H15227844   6.143   2.243   7.284  0.6723 -1.7393  2.1429
   87MOL   H15327845   6.397   2.396   7.364 -0.2400  0.1011 -1.7336
   87MOL   H15427846   6.257   2.356   7.454 -0.8351 -0.1250  0.1403
   87MOL   H15527847   6.235   2.454   7.315  2.2854  1.3957 -1.1850
   87MOL   H15627848   6.410   2.108   7.274 -0.2053  0.7579  2.1693
   87MOL   H15727849   6.429   1.882   7.191  0.5444  0.8808  2.2194
   87MOL   H15827850   6.287   1.801   7.125 -2.4649  1.8831 -0.2413
   87MOL   H15927851   6.325   1.802   7.305  2.2900  0.7662 -0.3233
   87MOL   H16027852   6.045   2.075   7.205  0.5720  0.5260 -0.5379
   87MOL   H16127853   6.065   1.904   7.154 -2.5025 -0.7215  1.6810
   87MOL   C16227854   6.316   2.070   7.464  0.0635  0.8707 -0.8226
   87MOL   C16327855   6.176   2.070   7.524  0.4803  0.5177 -0.1109
   87MOL   C16427856   6.434   2.138   7.552 -0.2047  0.8633  0.1218
   87MOL   C16527857   6.572   2.124   7.483 -0.4517 -0.8545  0.1392
   87MOL   C16627858   6.667   2.242   7.479 -0.1308 -0.6313 -0.6727
   87MOL   C16727859   6.622   2.008   7.429 -0.1265  0.2210  0.5691
   87MOL   H16827860   6.346   1.965   7.466 -2.5097  0.0078 -3.6540
   87MOL   H16927861   6.165   2.176   7.546  2.3684  0.8031 -0.4371
   87MOL   H17027862   6.163   2.015   7.617 -0.8132  2.8325  1.1195
   87MOL   H17127863   6.090   2.052   7.460 -1.4359  0.3667  2.4232
   87MOL   H17227864   6.405   2.243   7.545 -1.2434  0.6662  1.3476
   87MOL   H17327865   6.608   2.331   7.458  1.9996  0.4082 -2.5969
   87MOL   H17427866   6.750   2.246   7.408 -0.3317 -0.6050 -0.9091
   87MOL   H17527867   6.708   2.250   7.579 -1.2045 -0.2719 -0.2632
   87MOL   H17627868   6.556   1.923   7.423 -0.7582  0.8510 -2.1735
   87MOL   H17727869   6.720   1.994   7.386  0.2220  0.6142  1.2328
   87MOL   C17827870   6.448   2.100   7.707  0.2218 -0.2179 -0.2351
   87MOL   C17927871   6.440   1.944   7.728  1.0764 -0.0713 -0.5823
   87MOL   C18027872   6.350   2.181   7.799  0.7926  0.4426  0.0737
   87MOL   C18127873   6.363   2.332   7.797 -0.3373  0.2175  0.4201
   87MOL   C18227874   6.240   2.420   7.835 -0.4709  0.6877 -0.3410
   87MOL   C18327875   6.475   2.400   7.775 -0.5279 -0.2764 -0.3283
   87MOL   H18427876   6.549   2.126   7.739 -0.2259  0.1757  0.8856
   87MOL   H18527877   6.494   1.915   7.818  2.2649  3.1472 -0.1809
   87MOL   H18627878   6.494   1.895   7.648  0.4182 -1.7931  0.0164
   87MOL   H18727879   6.341   1.898   7.723  0.6924  0.1783  3.0327
   87MOL   H18827880   6.252   2.175   7.751  0.6443 -0.3917  0.4671
   87MOL   H18927881   6.210   2.400   0.045  2.3682 -0.4265  0.3255
   87MOL   H19027882   6.160   2.409   7.762  0.0732 -0.3796 -0.7882
   87MOL   H19127883   6.271   2.523   7.853  1.3556 -0.0650  0.9719
   87MOL   H19227884   6.564   2.348   7.744 -0.3502 -0.5653  0.6666
   87MOL   H19327885   6.491   2.505   7.793  2.4490 -1.1254  2.2398
   87MOL   C19427886   6.353   2.143   0.056  0.1980 -0.3807  0.1755
   87MOL   C19527887   6.499   2.147   0.111 -0.2616 -1.0636 -0.1056
   87MOL   C19627888   6.270   2.014   0.101 -0.0001 -0.3713  0.0947
   87MOL   C19727889   6.133   2.002   0.034  0.0397  0.8524 -0.3477
   87MOL   C19827890   6.088   1.861   7.885 -0.5488  0.3676  0.4230
   87MOL   C19927891   6.054   2.107   0.008  0.3393  0.7130 -0.0561
   87MOL   H20027892   6.317   2.231   0.108  1.6922  1.2329 -1.4626
   87MOL   H20127893   6.548   2.239   0.079 -1.6722 -0.4610 -0.5628
   87MOL   H20227894   6.550   2.059   0.071 -0.2629 -0.0212 -2.5177
   87MOL   H20327895   6.492   2.149   0.220 -2.2303  0.0669 -0.2188
   87MOL   H20427896   6.320   1.930   0.055  0.5511 -0.0739  0.1461
   87MOL   H20527897   6.055   1.803   0.079  2.2312 -0.0511  1.2400
   87MOL   H20627898   6.161   1.803   7.828 -2.5000 -0.6716 -1.0884
   87MOL   H20727899   6.010   1.857   7.809 -0.3266 -0.6824  0.2362
   87MOL   H20827900   6.092   2.206   0.028  1.0662  0.3066  0.6052
   87MOL   H20927901   5.954   2.097   7.861  0.5797 -0.8870 -0.3172
   87MOL   C21027902   6.279   1.979   0.258  0.3010 -0.1717  0.0365
   87MOL   C21127903   6.244   2.107   0.337 -0.5435  0.1959  0.5278
   87MOL   C21227904   6.401   1.888   0.295  0.0588  0.3238  0.8226
   87MOL   C21327905   6.370   1.740   0.245  0.2903  0.2759 -0.7754
   87MOL   C21427906   6.436   1.694   0.119 -0.6970 -0.0935  0.1154
   87MOL   C21527907   6.287   1.662   0.317  0.0090  0.3503  0.7027
   87MOL   H21627908   6.192   1.915   0.274  0.0080 -0.2103 -1.5817
   87MOL   H21727909   6.220   2.084   0.441 -1.1927 -2.5463 -0.2139
   87MOL   H21827910   6.151   2.145   0.294 -1.5975 -1.8104  1.0099
   87MOL   H21927911   6.318   2.188   0.333  1.5682 -1.6370  1.4032
   87MOL   H22027912   6.485   1.915   0.231 -0.9466 -4.2425 -2.6739
   87MOL   H22127913   6.432   1.585   0.120 -3.8819 -0.0805 -2.2868
   87MOL   H22227914   6.535   1.739   0.111 -0.6605 -0.1930  0.0029
   87MOL   H22327915   6.379   1.716   0.029 -0.1701 -3.1675 -1.0265
   87MOL   H22427916   6.231   1.685   0.407 -1.1349  2.3257 -0.4965
   87MOL   H22527917   6.271   1.564   0.275  1.8589  1.0386 -1.7010
   87MOL   C22627918   6.457   1.891   0.439  0.1537 -0.5597 -0.1247
   87MOL   C22727919   6.510   2.027   0.485  0.5581  0.7285 -0.5484
   87MOL   C22827920   6.545   1.773   0.492 -0.6063 -0.2444 -0.3588
   87MOL   C22927921   6.503   1.709   0.629  0.0475 -0.1021 -0.5724
   87MOL   C23027922   6.483   1.802   0.749  0.4029 -0.1352  1.0391
   87MOL   C23127923   6.475   1.575   0.635  0.5627 -0.0986  0.1764
   87MOL   H23227924   6.364   1.876   0.494 -0.7255  1.9176 -0.8754
   87MOL   H23327925   6.572   2.083   0.414  2.1450  0.0131  0.2435
   87MOL   H23427926   6.576   2.020   0.571 -1.5079  1.0598  1.0941
   87MOL   H23527927   6.429   2.096   0.510  1.3512  1.5777 -0.2590
   87MOL   H23627928   6.525   1.691   0.422 -2.3221 -0.9375  0.8947
   87MOL   H23727929   6.435   1.739   0.823  0.3133 -1.9812 -0.5567
   87MOL   H23827930   6.426   1.892   0.727  0.6888  0.1814  1.5651
   87MOL   H23927931   6.573   1.850   0.788 -0.3903  2.0960  0.1573
   87MOL   H24027932   6.494   1.515   0.548  0.8901 -0.8605  0.7597
   87MOL   H24127933   6.433   1.521   0.719  0.0239  1.3460  0.8531
   87MOL   C24227934   6.699   1.795   0.491 -0.3138  0.1327  0.1866
   87MOL   C24327935   6.747   1.860   0.361 -0.1518  0.2337 -0.3310
   87MOL   C24427936   6.783   1.652   0.513  0.1136 -0.5344  0.9302
   87MOL   C24527937   6.912   1.687   0.600 -0.0036 -1.0410  0.3390
   87MOL   C24627938   7.017   1.777   0.546 -0.0600  0.0711  0.1803
   87MOL   C24727939   6.924   1.639   0.723  0.2346 -0.1486  0.3825
   87MOL   H24827940   6.724   1.858   0.576  1.2717 -0.0800 -0.0987
   87MOL   H24927941   6.731   1.967   0.371 -0.9451 -0.0450  1.6565
   87MOL   H25027942   6.690   1.820   0.276 -1.2313  1.9499 -0.4391
   87MOL   H25127943   6.854   1.852   0.342 -0.0470 -0.0418  0.3517
   87MOL   H25227944   6.737   1.595   0.593 -1.5403 -0.7649 -0.1736
   87MOL   H25327945   6.984   1.880   0.559  0.8772  0.4118 -0.1245
   87MOL   H25427946   7.044   1.757   0.442  2.5110 -1.0612  1.0339
   87MOL   H25527947   7.113   1.766   0.596  0.2248 -1.5894 -0.7046
   87MOL   H25627948   6.847   1.585   0.775 -2.2422  3.3878  0.5908
   87MOL   H25727949   7.014   1.665   0.778  0.0274  1.9903 -0.2210
   87MOL   C25827950   6.817   1.558   0.397 -0.1234 -0.6373 -0.0259
   87MOL   C25927951   6.695   1.524   0.306 -0.2151  0.1527  0.5074
   87MOL   C26027952   6.905   1.434   0.432  1.5227 -0.1613  0.4979
   87MOL   C26127953   7.039   1.442   0.352  0.0648  0.4882  0.3057
   87MOL   C26227954   7.026   1.393   0.204  0.2341  0.2372  0.2386
   87MOL   C26327955   7.149   1.492   0.403 -0.3712  0.0478 -0.1373
   87MOL   H26427956   6.866   1.625   0.327 -1.4499  0.7734  0.3771
   87MOL   H26527957   6.620   1.488   0.376 -0.6281 -0.5190 -0.2807
   87MOL   H26627958   6.711   1.448   0.230 -1.1177  1.3574 -0.9149
   87MOL   H26727959   6.650   1.609   0.255 -1.6351  1.9106  4.5029
   87MOL   H26827960   6.941   1.446   0.534 -0.9149 -2.4007  1.7099
   87MOL   H26927961   6.988   1.291   0.203 -1.0312  0.6995  0.9658
   87MOL   H27027962   7.116   1.393   0.141  0.1430 -1.9670  0.0914
   87MOL   H27127963   6.957   1.448   0.140  2.1881 -1.2594 -3.3256
   87MOL   H27227964   7.148   1.526   0.505  0.2460 -0.6631  0.1017
   87MOL   H27327965   7.246   1.502   0.356 -0.8617 -0.3328 -1.2623
   87MOL   C27427966   6.832   1.295   0.442  0.1456 -0.5980  0.0402
   87MOL   C27527967   6.718   1.299   0.554 -0.1788 -0.5666  0.5264
   87MOL   C27627968   6.932   1.177   0.467 -0.4487 -0.5250  0.6511
   87MOL   C27727969   6.881   1.057   0.387  0.1622 -0.7609  0.5659
   87MOL   C27827970   6.761   0.985   0.442  0.4318  0.5227 -0.5434
   87MOL   C27927971   6.932   1.014   0.274 -0.4551 -0.5540 -0.9897
   87MOL   H28027972   6.783   1.274   0.347  1.6054 -1.1808 -0.5988
   87MOL   H28127973   6.683   1.197   0.563 -0.3850 -0.3561  2.2764
   87MOL   H28227974   6.627   1.358   0.543  0.3645  0.2113  0.1704
   87MOL   H28327975   6.750   1.322   0.656  1.1299 -2.1473  0.4798
   87MOL   H28427976   7.032   1.206   0.433 -0.7616  1.4292  1.3301
   87MOL   H28527977   6.757   0.889   0.391  0.6568 -0.1841  0.7432
   87MOL   H28627978   6.671   1.040   0.418  0.8140  0.4557 -2.2029
   87MOL   H28727979   6.761   0.963   0.548 -2.4383 -0.8995 -0.7879
   87MOL   H28827980   7.018   1.063   0.230 -1.1829  1.4305 -0.2312
   87MOL   H28927981   6.892   0.930   0.219 -2.7885  0.0959 -0.3258
   87MOL   C29027982   6.965   1.140   0.620 -0.1989  0.0964  0.3539
   87MOL   C29127983   7.021   1.266   0.698  0.0460  0.0998  0.2888
   87MOL   C29227984   7.057   1.014   0.626  0.2547 -0.6750 -0.0461
   87MOL   C29327985   7.089   0.981   0.776  0.2046  0.1871  0.1785
   87MOL   C29427986   6.963   0.959   0.860  0.3115 -0.2879  0.3491
   87MOL   C29527987   7.212   0.955   0.834  0.2634  0.2549  1.3339
   87MOL   H29627988   6.870   1.103   0.658 -0.1530 -0.5761 -0.1792
   87MOL   H29727989   6.950   1.348   0.702  0.4575  0.4352  0.9727
   87MOL   H29827990   7.105   1.322   0.656  1.3114 -0.3237  2.1747
   87MOL   H29927991   7.053   1.240   0.799 -0.2552  2.9879  1.1690
   87MOL   H30027992   6.997   0.933   0.587 -0.0065 -0.1043 -0.8412
   87MOL   H30127993   6.977   0.878   0.931  0.1118 -1.8660 -1.3769
   87MOL   H30227994   6.882   0.923   0.795  1.5204 -2.3894 -0.0383
   87MOL   H30327995   6.948   1.056   0.908  1.3928  0.1094 -0.1008
   87MOL   H30427996   7.304   0.957   0.777 -0.4237 -3.5687 -0.1068
   87MOL   H30527997   7.212   0.937   0.940 -1.1768  1.0830  1.4869
   87MOL   C30627998   7.185   1.013   0.526 -0.2116  0.0425 -0.3369
   87MOL   C30727999   7.244   0.870   0.503 -0.0793 -0.0946  0.4830
   87MOL   C30828000   7.288   1.128   0.542 -0.0412 -0.4541  0.5862
   87MOL   C30928001   7.406   1.123   0.445  0.2955 -0.4016 -0.5852
   87MOL   C31028002   7.373   1.162   0.305  0.6939  0.3964  0.1123
   87MOL   C31128003   7.532   1.124   0.493  0.5645 -0.0627 -0.2811
   87MOL   H31228004   7.146   1.038   0.427 -0.1702 -1.7486 -0.8370
   87MOL   H31328005   7.321   0.866   0.426 -0.1425  0.5140  0.3897
   87MOL   H31428006   7.155   0.814   0.473 -1.0520  1.5606  0.2174
   87MOL   H31528007   7.281   0.831   0.597  0.9996 -0.4067 -0.0671
   87MOL   H31628008   7.232   1.219   0.525 -0.4676 -0.4677  1.8461
   87MOL   H31728009   7.458   1.163   0.238 -1.0428 -2.1561 -2.2254
   87MOL   H31828010   7.320   1.257   0.295 -0.5926 -0.3371 -0.2688
   87MOL   H31928011   7.304   1.081   0.281 -0.8100  1.6400  0.1322
   87MOL   H32028012   7.548   1.115   0.600 -1.8549  1.5359  0.2623
   87MOL   H32128013   7.618   1.142   0.430  0.5294  1.3186  0.0535
   87MOL   H32228014   7.325   1.120   0.645 -1.5004 -2.2075  1.0018
   88MOL     C128015   1.860   0.567   7.782  0.2699  0.2676 -0.1679
   88MOL     C228016   1.714   0.558   7.838 -0.6424  0.0125 -0.9161
   88MOL     C328017   1.965   0.571   7.890  0.1017 -0.2298  0.4045
   88MOL     C428018   1.947   0.656   0.122  0.2806 -0.4675  0.3625
   88MOL     C528019   1.919   0.800   0.104 -0.1761 -0.1643  0.5631
   88MOL     C628020   1.954   0.600   0.243 -0.4045  0.9628  0.6840
   88MOL     H728021   1.870   0.475   7.724 -2.6423  0.1313 -0.5034
   88MOL     H828022   1.698   0.465   7.891 -0.0689  0.2351 -0.3369
   88MOL     H928023   1.640   0.567   7.759 -0.0274 -1.0896 -1.6369
   88MOL    H1028024   1.687   0.639   0.013  2.1301 -0.5292  0.9271
   88MOL    H1128025   1.943   0.469   0.031  0.4484 -0.2498  0.5718
   88MOL    H1228026   2.019   0.844   0.106  1.0997 -2.9407 -0.1936
   88MOL    H1328027   1.866   0.854   0.183 -0.5137 -0.4534  0.5344
   88MOL    H1428028   1.870   0.818   0.008 -0.6617 -2.0479  0.4486
   88MOL    H1528029   1.975   0.498   0.271  0.6550  0.6537 -1.1451
   88MOL    H1628030   1.935   0.659   0.331 -1.8245  0.9948  0.3655
   88MOL    H1728031   1.859   0.647   7.708 -0.8597  0.6533  0.2639
   88MOL    C1828032   2.109   0.578   7.832 -0.1865  0.2519 -0.2927
   88MOL    C1928033   2.122   0.711   7.755  0.8396  0.4002 -0.2135
   88MOL    C2028034   2.156   0.443   7.755 -0.1149  0.4634 -0.8319
   88MOL    C2128035   2.135   0.317   7.839 -0.2139 -0.2224  0.0442
   88MOL    C2228036   2.072   0.205   7.768 -0.4564  0.2804 -0.0257
   88MOL    C2328037   2.179   0.312   0.076 -0.1744 -0.4007 -0.1113
   88MOL    H2428038   2.186   0.587   0.016 -0.9995 -0.1259  0.5841
   88MOL    H2528039   2.227   0.728   7.729  0.0963  1.4573 -2.6749
   88MOL    H2628040   2.087   0.795   7.814 -1.7961 -2.1918  2.0766
   88MOL    H2728041   2.078   0.708   7.655 -0.7782 -1.2551  0.5254
   88MOL    H2828042   2.082   0.429   7.675  0.6025 -0.0154 -1.4151
   88MOL    H2928043   2.058   0.119   7.833 -0.8015  1.0035  0.8567
   88MOL    H3028044   2.117   0.183   7.671  3.2166  0.4758  1.5517
   88MOL    H3128045   1.974   0.240   7.738 -0.6061  0.8277  1.1086
   88MOL    H3228046   2.222   0.393   0.133 -2.9748  0.5132  0.7463
   88MOL    H3328047   2.174   0.217   0.128 -1.2747  1.4520  3.3303
   88MOL    C3428048   2.302   0.443   7.686 -0.5002  0.0971  0.6696
   88MOL    C3528049   2.411   0.508   7.781 -0.7326 -0.1197  0.2596
   88MOL    C3628050   2.292   0.506   7.534  0.0224 -0.4023 -0.0340
   88MOL    C3728051   2.175   0.448   7.453 -0.3871  0.2886  0.0536
   88MOL    C3828052   2.189   0.304   7.415  0.2722  0.6805 -0.5446
   88MOL    C3928053   2.068   0.519   7.410  0.6496 -0.4544 -0.4841
   88MOL    H4028054   2.325   0.338   7.668 -0.0640  0.2208  0.4952
   88MOL    H4128055   2.512   0.481   7.751 -1.3345  0.6527 -2.6357
   88MOL    H4228056   2.402   0.472   7.883  3.6299  1.4213  1.2936
   88MOL    H4328057   2.409   0.617   7.780 -2.6843 -0.1337 -0.4511
   88MOL    H4428058   2.262   0.609   7.551 -1.1397  0.1370 -4.5728
   88MOL    H4528059   2.255   0.259   7.489 -0.7211  2.5932  1.5840
   88MOL    H4628060   2.250   0.296   7.326  1.4015 -0.9892  0.3520
   88MOL    H4728061   2.097   0.254   7.387  1.2772 -1.5300  0.0269
   88MOL    H4828062   2.064   0.626   7.421  0.9600 -0.4074 -0.8104
   88MOL    H4928063   1.985   0.472   7.360  0.0527 -0.9233  0.9229
   88MOL    C5028064   2.415   0.523   7.441  0.1732 -0.0741  0.1563
   88MOL    C5128065   2.523   0.418   7.467  0.1150 -0.2839  0.5710
   88MOL    C5228066   2.463   0.676   7.437  0.2004 -0.6002  0.3369
   88MOL    C5328067   2.356   0.783   7.410 -0.3567 -0.5812 -0.2245
   88MOL    C5428068   2.287   0.781   7.272 -0.2206  0.4502 -0.0804
   88MOL    C5528069   2.325   0.879   7.497  0.8746  0.6738 -0.0190
   88MOL    H5628070   2.390   0.512   7.335  1.5015  1.4897 -0.3400
   88MOL    H5728071   2.590   0.413   7.381 -1.0742 -0.1756 -0.3771
   88MOL    H5828072   2.475   0.324   7.494 -1.0257 -0.8391 -3.0615
   88MOL    H5928073   2.584   0.431   7.556  0.1643 -3.2374  1.0220
   88MOL    H6028074   2.491   0.688   7.541  1.6696  0.1960 -0.1353
   88MOL    H6128075   2.232   0.689   7.248  1.6983 -0.5282 -0.8665
   88MOL    H6228076   2.354   0.807   7.190 -1.5393 -1.3862 -1.8088
   88MOL    H6328077   2.202   0.848   7.258 -1.3739 -0.9581 -0.0397
   88MOL    H6428078   2.367   0.883   7.597  0.1290  1.9758  0.2478
   88MOL    H6528079   2.254   0.953   7.465 -0.7603 -1.1238 -0.6100
   88MOL    C6628080   2.594   0.706   7.353  0.1242 -0.0277  0.2474
   88MOL    C6728081   2.577   0.637   7.208 -0.1961  0.1688 -0.1718
   88MOL    C6828082   2.736   0.676   7.417  0.0191 -0.3310  0.3959
   88MOL    C6928083   2.753   0.735   7.559  0.5044 -0.4437 -0.0207
   88MOL    C7028084   2.841   0.664   7.659  0.3541 -0.4770 -0.2300
   88MOL    C7128085   2.712   0.865   7.578  0.0292 -0.0136 -0.1048
   88MOL    H7228086   2.591   0.813   7.335  2.3165  0.0065 -0.0266
   88MOL    H7328087   2.472   0.636   7.179 -0.9077 -1.0826  2.3295
   88MOL    H7428088   2.608   0.533   7.200  1.0461  0.5487 -0.4314
   88MOL    H7528089   2.629   0.683   7.124 -1.9439 -0.3131 -1.5714
   88MOL    H7628090   2.740   0.570   7.442 -0.9616 -0.4439  0.0921
   88MOL    H7728091   2.837   0.708   7.758  1.3302  1.0665 -0.8494
   88MOL    H7828092   2.943   0.652   7.622  1.1069  0.5785  1.4504
   88MOL    H7928093   2.799   0.564   7.657  0.0216 -0.4546  3.2782
   88MOL    H8028094   2.670   0.924   7.498 -0.2454  0.0083  0.0544
   88MOL    H8128095   2.731   0.924   7.667  1.6376  0.6106 -0.8468
   88MOL    C8228096   2.864   0.711   7.336  0.0202  0.8638  0.3370
   88MOL    C8328097   2.847   0.846   7.255 -0.8943  0.6194 -0.4824
   88MOL    C8428098   2.922   0.594   7.247  0.1806  0.4257  0.1639
   88MOL    C8528099   2.923   0.453   7.307  0.4779  0.0532  0.2638
   88MOL    C8628100   3.001   0.439   7.435  0.8240 -0.0115 -0.2599
   88MOL    C8728101   2.852   0.352   7.252 -0.1894  0.0077  0.8207
   88MOL    H8828102   2.937   0.739   7.413 -1.5645  2.1165  1.4051
   88MOL    H8928103   2.759   0.850   7.191 -0.2399 -0.8653 -1.5055
   88MOL    H9028104   2.939   0.885   7.211  0.4991 -0.5645  1.3299
   88MOL    H9128105   2.838   0.933   7.320  1.1549  0.4416  0.0662
   88MOL    H9228106   2.842   0.582   7.174  0.5824 -3.7283  0.3116
   88MOL    H9328107   2.931   0.464   7.516 -0.5827 -0.4444 -1.3225
   88MOL    H9428108   3.084   0.507   7.451  2.3261 -2.0874  0.9666
   88MOL    H9528109   3.046   0.341   7.449  0.4524 -0.3509 -1.4291
   88MOL    H9628110   2.794   0.373   7.163  0.8461 -1.9463 -0.3285
   88MOL    H9728111   2.852   0.258   7.305  0.2437 -0.1576  0.5275
   88MOL    C9828112   3.061   0.625   7.172 -0.3604  0.1143  0.2644
   88MOL    C9928113   3.167   0.707   7.263 -0.3830  0.4693 -0.4348
   88MOL   C10028114   3.049   0.690   7.029  0.2423  0.2172  0.0768
   88MOL   C10128115   2.924   0.643   6.951 -0.0411  0.5602  0.6012
   88MOL   C10228116   2.929   0.501   6.901 -0.4855  0.4045  0.8592
   88MOL   C10328117   2.829   0.737   6.906 -0.8822  0.3755 -0.3521
   88MOL   H10428118   3.104   0.525   7.164  1.3804  0.7777  1.0511
   88MOL   H10528119   3.262   0.706   7.210 -0.4345  1.6961 -0.5668
   88MOL   H10628120   3.189   0.659   7.358 -1.1885 -2.4107 -1.6514
   88MOL   H10728121   3.141   0.812   7.278 -0.9824  0.1240  1.0580
   88MOL   H10828122   3.034   0.795   7.055 -0.6867 -0.3577  1.9593
   88MOL   H10928123   2.972   0.423   6.964  3.6276 -0.6177 -2.9963
   88MOL   H11028124   2.987   0.487   6.810 -0.7700 -0.8947  0.8702
   88MOL   H11128125   2.824   0.483   6.878 -0.8806  2.1563  1.2267
   88MOL   H11228126   2.833   0.839   6.943  0.7444  0.4032 -0.5679
   88MOL   H11328127   2.742   0.712   6.847  0.5146  0.0113 -2.3133
   88MOL   C11428128   3.172   0.682   6.937 -0.1896  0.2272  0.1983
   88MOL   C11528129   3.254   0.553   6.959  0.3071 -0.1091 -0.2560
   88MOL   C11628130   3.256   0.818   6.944 -0.3363  0.1722  0.3718
   88MOL   C11728131   3.170   0.943   6.913 -0.0438 -0.4062  0.3182
   88MOL   C11828132   3.155   1.047   7.015 -1.2498  0.1357  0.2892
   88MOL   C11928133   3.079   0.950   6.814  0.1940  0.3896 -0.1558
   88MOL   H12028134   3.135   0.689   6.835  0.9262  2.5448 -0.0677
   88MOL   H12128135   3.322   0.521   6.880 -1.8216  1.9622 -3.0259
   88MOL   H12228136   3.183   0.471   6.962  0.0007  0.2126  1.4247
   88MOL   H12328137   3.291   0.524   7.057 -1.2020 -1.4918 -0.0774
   88MOL   H12428138   3.282   0.847   7.046 -1.9919  2.3780  0.2070
   88MOL   H12528139   3.250   1.098   7.025  0.4093 -2.3986 -1.9994
   88MOL   H12628140   3.122   1.015   7.114  1.3357  2.3738  1.9127
   88MOL   H12728141   3.076   1.116   6.985  0.4693  1.7542 -0.5548
   88MOL   H12828142   3.060   0.873   6.740 -2.4867 -0.7835  1.6845
   88MOL   H12928143   3.015   1.036   6.798 -2.4586 -1.5992 -0.5896
   88MOL   C13028144   3.372   0.821   6.842 -0.0722 -0.1453 -0.2472
   88MOL   C13128145   3.337   0.769   6.697 -0.3317  0.6247  0.6977
   88MOL   C13228146   3.505   0.758   6.902  0.1055 -0.2969 -0.1139
   88MOL   C13328147   3.526   0.771   7.053 -0.1896 -0.1299  0.0307
   88MOL   C13428148   3.566   0.914   7.101 -0.3226  0.0885  0.2702
   88MOL   C13528149   3.532   0.661   7.125  0.8000 -0.9402 -0.2407
   88MOL   H13628150   3.398   0.925   6.823  0.6869 -0.4133 -0.7562
   88MOL   H13728151   3.246   0.813   6.656 -0.2193  2.7417  2.6072
   88MOL   H13828152   3.321   0.661   6.700  2.1245  0.2333  0.4303
   88MOL   H13928153   3.421   0.788   6.631  0.4931 -1.5425  1.0823
   88MOL   H14028154   3.477   0.655   6.879 -0.3270  0.0933 -1.4027
   88MOL   H14128155   3.525   0.942   7.199  1.7308  0.6229  0.9967
   88MOL   H14228156   3.517   0.983   7.033  0.1931 -1.3607 -1.5922
   88MOL   H14328157   3.673   0.933   7.091 -0.4680  0.0944 -1.3744
   88MOL   H14428158   3.505   0.566   7.081 -0.3182 -1.0222  0.6098
   88MOL   H14528159   3.563   0.671   7.228 -0.6135 -1.1403  0.2091
   88MOL   C14628160   3.643   0.808   6.846  0.3972  0.0422  0.2006
   88MOL   C14728161   3.634   0.945   6.777  0.1578 -0.2348 -0.2993
   88MOL   C14828162   3.699   0.698   6.741 -0.1423 -0.3189  0.1635
   88MOL   C14928163   3.710   0.560   6.800 -0.1057  0.5282  0.4168
   88MOL   C15028164   3.793   0.530   6.930 -0.2045  0.3624 -0.2732
   88MOL   C15128165   3.646   0.455   6.742 -0.2358 -0.0541 -0.1810
   88MOL   H15228166   3.724   0.800   6.917  1.6931 -1.1448 -1.3791
   88MOL   H15328167   3.726   0.989   6.739  0.9510 -1.0432  0.6691
   88MOL   H15428168   3.584   1.019   6.840 -0.0025  1.1120 -1.9807
   88MOL   H15528169   3.562   0.931   6.697  1.4395 -0.1838 -1.4735
   88MOL   H15628170   3.619   0.680   6.668 -0.7045  1.1148  0.4166
   88MOL   H15728171   3.760   0.608   6.998  0.7472 -0.1638  0.8017
   88MOL   H15828172   3.901   0.540   6.919  0.0886 -0.7365  1.5901
   88MOL   H15928173   3.775   0.430   6.968 -0.8114  0.0828 -1.2844
   88MOL   H16028174   3.590   0.476   6.652  0.1654  1.2049 -0.1583
   88MOL   H16128175   3.659   0.359   6.788  1.2072 -1.1916 -2.8222
   88MOL   C16228176   3.832   0.732   6.668  0.2714 -0.4024 -0.7470
   88MOL   C16328177   3.942   0.796   6.761 -0.0190  0.2616  0.4747
   88MOL   C16428178   3.831   0.813   6.539 -0.3853  0.4309 -0.6250
   88MOL   C16528179   3.705   0.786   6.455  0.5916 -0.1264  0.9384
   88MOL   C16628180   3.682   0.646   6.394  0.3111 -0.1536  0.0344
   88MOL   C16728181   3.610   0.875   6.425 -0.2254 -0.1411  0.2142
   88MOL   H16828182   3.873   0.635   6.640  2.1306 -0.4545  2.0076
   88MOL   H16928183   4.037   0.767   6.717  0.3430 -0.4517  1.7010
   88MOL   H17028184   3.936   0.761   6.864 -0.2437 -1.0101  0.0398
   88MOL   H17128185   3.936   0.904   6.765  1.5948  0.2909  2.5275
   88MOL   H17228186   3.810   0.915   6.571 -1.4308  0.6173 -1.8494
   88MOL   H17328187   3.709   0.562   6.457  0.5538 -1.0531 -1.2439
   88MOL   H17428188   3.751   0.655   6.310  2.0250  0.1576  1.4395
   88MOL   H17528189   3.580   0.632   6.358  0.1714  0.6541  0.0957
   88MOL   H17628190   3.633   0.979   6.441 -0.1572  0.6349 -4.3058
   88MOL   H17728191   3.523   0.849   6.367  0.8657 -0.8310 -1.1656
   88MOL   C17828192   3.959   0.814   6.452  0.1456 -0.2991  0.1944
   88MOL   C17928193   4.022   0.675   6.449 -0.8208  0.3937 -0.0363
   88MOL   C18028194   4.045   0.942   6.485  0.2466  0.5602  0.7576
   88MOL   C18128195   3.969   1.081   6.465 -0.2043  0.3919 -0.4482
   88MOL   C18228196   4.005   1.199   6.554  0.5421 -0.1322 -0.4962
   88MOL   C18328197   3.871   1.098   6.370 -0.0086  0.4682 -0.1742
   88MOL   H18428198   3.928   0.822   6.348 -1.3575  0.1955  0.6702
   88MOL   H18528199   3.951   0.594   6.438  1.3105 -1.2851 -1.8385
   88MOL   H18628200   4.085   0.659   6.537  0.2347  2.2792 -0.4121
   88MOL   H18728201   4.084   0.668   6.360 -0.6411 -1.4629  0.2137
   88MOL   H18828202   4.059   0.939   6.593  0.8947  0.4969  0.6745
   88MOL   H18928203   3.977   1.165   6.654 -3.2899 -2.4900 -2.2454
   88MOL   H19028204   3.951   1.287   6.520 -1.3712 -0.4846  1.4303
   88MOL   H19128205   4.110   1.228   6.552  0.7531 -0.7559  0.7569
   88MOL   H19228206   3.851   1.021   6.297 -0.4222  1.7566 -1.4471
   88MOL   H19328207   3.809   1.186   6.357 -0.9286  0.1878  2.0800
   88MOL   C19428208   4.189   0.955   6.428  0.0198  0.1856 -0.0899
   88MOL   C19528209   4.182   0.963   6.277 -0.6758  0.5712 -0.3564
   88MOL   C19628210   4.304   0.862   6.489 -0.3771 -0.4122  0.4567
   88MOL   C19728211   4.338   0.890   6.643 -0.0733 -1.1610  0.5843
   88MOL   C19828212   4.380   0.766   6.723 -0.1854  0.2481 -0.4657
   88MOL   C19928213   4.324   1.007   6.700  0.3969 -0.6583  0.1511
   88MOL   H20028214   4.220   1.057   6.449  1.0319  0.1313 -1.2296
   88MOL   H20128215   4.103   1.025   6.234 -0.0495  2.4031  1.0911
   88MOL   H20228216   4.157   0.859   6.252 -2.3237  0.0728  3.0580
   88MOL   H20328217   4.276   0.993   6.231  0.7943 -0.5973  1.7833
   88MOL   H20428218   4.269   0.759   6.488 -0.0282 -0.5260 -1.5563
   88MOL   H20528219   4.373   0.791   6.829  0.1904 -0.2357 -0.3282
   88MOL   H20628220   4.485   0.745   6.701  0.7041  2.1108  1.6968
   88MOL   H20728221   4.319   0.682   6.692  1.8777 -1.2248 -0.6749
   88MOL   H20828222   4.311   1.100   6.647  4.7274  0.3677  0.6860
   88MOL   H20928223   4.336   1.006   6.807  0.7776  2.7223  0.1759
   88MOL   C21028224   4.443   0.856   6.411  0.2554  0.3977 -0.1052
   88MOL   C21128225   4.516   0.991   6.395  0.2317 -0.2608  0.3394
   88MOL   C21228226   4.445   0.773   6.273 -0.2815 -0.2118 -0.1617
   88MOL   C21328227   4.387   0.633   6.283  0.6691  0.0443 -0.2889
   88MOL   C21428228   4.437   0.543   6.390 -0.1862  0.1763 -0.3147
   88MOL   C21528229   4.286   0.588   6.201  0.6407 -0.0153 -0.4605
   88MOL   H21628230   4.508   0.801   6.479 -0.9338 -0.7386  0.1397
   88MOL   H21728231   4.623   0.989   6.413  0.1166  2.7997  1.6714
   88MOL   H21828232   4.476   1.053   6.475  1.9480  0.1092  0.9343
   88MOL   H21928233   4.491   1.026   6.294  0.3188  0.4746  0.5696
   88MOL   H22028234   4.376   0.819   6.203  0.6947 -1.0270 -1.6911
   88MOL   H22128235   4.543   0.519   6.390  0.1033  1.2340 -4.3214
   88MOL   H22228236   4.402   0.440   6.392  1.5925 -0.4346  2.5432
   88MOL   H22328237   4.395   0.572   6.487  2.3914 -3.6392  2.0870
   88MOL   H22428238   4.248   0.651   6.121 -0.8205  1.4349  1.3465
   88MOL   H22528239   4.256   0.485   6.212  1.4853 -0.1650  0.4517
   88MOL   C22628240   4.587   0.770   6.203  0.3465  1.2822 -0.2910
   88MOL   C22728241   4.706   0.749   6.297  0.1754  0.2610 -0.4047
   88MOL   C22828242   4.615   0.874   6.091  0.3057 -0.2716 -0.3761
   88MOL   C22928243   4.501   0.891   5.989 -0.8520  0.5722 -1.3729
   88MOL   C23028244   4.484   1.040   5.950 -0.2588  0.0022 -0.1151
   88MOL   C23128245   4.419   0.793   5.950  0.3274 -0.7197  0.3202
   88MOL   H23228246   4.586   0.674   6.153 -2.4683  0.9859  0.2604
   88MOL   H23328247   4.740   0.846   6.335 -0.5951  0.6441 -0.6810
   88MOL   H23428248   4.787   0.702   6.241  0.4063  0.2852 -0.0962
   88MOL   H23528249   4.681   0.695   6.388 -5.0776  3.4141  0.1944
   88MOL   H23628250   4.622   0.974   6.134  0.3568 -0.9181  1.1903
   88MOL   H23728251   4.572   1.059   5.888 -0.1692  0.4826  0.1496
   88MOL   H23828252   4.485   1.103   6.040  0.4947 -0.6865  0.3607
   88MOL   H23928253   4.386   1.060   5.905  0.4958  1.2389 -1.2547
   88MOL   H24028254   4.439   0.692   5.981  0.3450 -1.5058 -2.2107
   88MOL   H24128255   4.338   0.818   5.884  1.0323 -0.4634 -0.4498
   88MOL   C24228256   4.753   0.865   6.011  0.4731 -0.0643  0.3918
   88MOL   C24328257   4.758   0.739   5.930 -0.3209  0.0564 -0.7885
   88MOL   C24428258   4.889   0.911   6.077  0.2535 -0.0839  0.8869
   88MOL   C24528259   4.889   1.059   6.118 -0.2574  0.1397  0.0355
   88MOL   C24628260   4.963   1.076   6.245 -0.3586 -0.2800 -0.0424
   88MOL   C24728261   4.829   1.163   6.052 -0.1835 -0.3719  0.4094
   88MOL   H24828262   4.745   0.931   5.925 -0.4784  0.4682  0.8727
   88MOL   H24928263   4.832   0.752   5.851  1.3356  0.8613  0.8342
   88MOL   H25028264   4.664   0.708   5.884 -1.4116  0.4485  1.1316
   88MOL   H25128265   4.782   0.650   5.989 -1.4792 -0.8250 -1.6203
   88MOL   H25228266   4.883   0.859   6.173  2.0599  1.3333  1.7921
   88MOL   H25328267   5.068   1.085   6.216 -0.8131 -0.2280 -1.7353
   88MOL   H25428268   4.956   0.989   6.311 -0.4447  2.1236  3.1958
   88MOL   H25528269   4.932   1.164   6.301  0.7579  0.3969 -0.4710
   88MOL   H25628270   4.781   1.142   5.957  2.1854 -0.5204 -0.7845
   88MOL   H25728271   4.831   1.266   6.085 -1.1313 -0.5197  0.9365
   88MOL   C25828272   5.033   0.882   6.002  0.1311  0.7028  0.5762
   88MOL   C25928273   5.035   0.933   5.852 -0.0080  0.0514 -0.5507
   88MOL   C26028274   5.077   0.728   6.023  0.6301 -0.2904  0.3432
   88MOL   C26128275   5.102   0.693   6.169 -0.5846  0.2387 -0.0236
   88MOL   C26228276   5.053   0.560   6.217 -0.8154 -0.7251 -0.5026
   88MOL   C26328277   5.172   0.764   6.257 -0.1497 -0.3746 -0.1453
   88MOL   H26428278   5.109   0.946   6.047 -0.1930  0.3852  1.5880
   88MOL   H26528279   4.951   0.887   5.800 -0.7614 -0.8262  1.3983
   88MOL   H26628280   5.126   0.906   5.799 -0.2082 -1.6754 -0.0491
   88MOL   H26728281   5.031   1.042   5.847 -1.4861  0.1205  1.3106
   88MOL   H26828282   4.981   0.682   5.998 -0.1855  1.6270 -0.1363
   88MOL   H26928283   5.124   0.484   6.186 -1.7591 -0.1380 -4.3533
   88MOL   H27028284   4.959   0.536   6.168 -1.7937 -1.3221  1.5877
   88MOL   H27128285   5.024   0.570   6.322 -1.3420 -0.3051 -0.6834
   88MOL   H27228286   5.210   0.863   6.240  0.1210 -0.5292 -0.4532
   88MOL   H27328287   5.187   0.714   6.352 -0.2479 -0.9131 -0.4119
   88MOL   C27428288   5.191   0.661   5.944 -0.8573  0.4394 -0.2380
   88MOL   C27528289   5.318   0.744   5.956 -0.6379  0.3482 -0.3375
   88MOL   C27628290   5.160   0.607   5.803  1.0173 -0.4207  0.9556
   88MOL   C27728291   5.033   0.517   5.793  0.7111 -0.8347  0.2125
   88MOL   C27828292   5.032   0.379   5.863 -0.3487  0.5095  0.6194
   88MOL   C27928293   4.922   0.554   5.723 -0.9193  0.2222  0.8151
   88MOL   H28028294   5.213   0.566   5.993 -1.1191  1.1033  1.1801
   88MOL   H28128295   5.343   0.751   6.062  2.9501  0.1659 -1.1267
   88MOL   H28228296   5.296   0.845   5.921  0.5208  1.7020  2.6788
   88MOL   H28328297   5.407   0.701   5.911 -1.6748 -0.4940 -1.6301
   88MOL   H28428298   5.133   0.699   5.752  0.4028 -1.0833  0.0812
   88MOL   H28528299   4.939   0.327   5.843 -0.2891  0.3276  0.8105
   88MOL   H28628300   5.051   0.390   5.970 -0.1372 -1.7070  0.8431
   88MOL   H28728301   5.116   0.322   5.822 -0.7738  0.4324 -0.1437
   88MOL   H28828302   4.926   0.645   5.665  2.3735 -0.4563 -0.1459
   88MOL   H28928303   4.833   0.493   5.713  0.9943 -2.5370  0.2325
   88MOL   C29028304   5.275   0.538   5.715 -0.2958 -0.3754  0.2234
   88MOL   C29128305   5.364   0.445   5.801  0.7686 -0.5748 -0.2213
   88MOL   C29228306   5.362   0.636   5.626 -0.1067  0.4402 -0.2564
   88MOL   C29328307   5.283   0.746   5.551 -0.8324 -0.5755 -0.3348
   88MOL   C29428308   5.155   0.705   5.472 -0.4492  0.3314  0.1558
   88MOL   C29528309   5.320   0.881   5.543  0.0745  0.0433  0.3675
   88MOL   H29628310   5.236   0.469   5.640 -1.0918  0.9327 -0.5936
   88MOL   H29728311   5.392   0.357   5.744 -1.2431 -1.3587 -0.0377
   88MOL   H29828312   5.318   0.407   5.893  2.7495 -3.8487 -0.4983
   88MOL   H29928313   5.446   0.497   5.851  0.3410  0.2061 -0.3134
   88MOL   H30028314   5.420   0.695   5.696  0.9364  0.3088 -1.0053
   88MOL   H30128315   5.129   0.600   5.475 -0.6133  0.4058  2.7657
   88MOL   H30228316   5.147   0.741   5.369 -0.3064 -1.9339 -0.6708
   88MOL   H30328317   5.073   0.759   5.520 -0.1050  0.8712  0.1427
   88MOL   H30428318   5.410   0.924   5.584 -0.2648  1.4199 -0.3016
   88MOL   H30528319   5.258   0.951   5.489  2.4988  0.0296 -2.5532
   88MOL   C30628320   5.463   0.571   5.538 -0.2587  0.1821  0.7961
   88MOL   C30728321   5.563   0.676   5.480  0.0255  0.1015  0.2836
   88MOL   C30828322   5.407   0.490   5.416  0.0235 -0.1816 -0.2721
   88MOL   C30928323   5.521   0.426   5.333 -0.3033  0.1100  0.4405
   88MOL   C31028324   5.608   0.325   5.394 -0.1550 -0.2670 -0.4366
   88MOL   C31128325   5.555   0.468   5.209 -0.3348 -0.7748  0.4005
   88MOL   H31228326   5.525   0.500   5.593  0.4936  0.2687  0.0752
   88MOL   H31328327   5.528   0.750   5.407  1.7052  1.0332  0.4073
   88MOL   H31428328   5.649   0.625   5.438  1.7028  1.6610  1.7413
   88MOL   H31528329   5.618   0.737   5.552 -1.9842  2.7596 -0.3408
   88MOL   H31628330   5.342   0.410   5.450  0.0763 -0.3036 -0.4549
   88MOL   H31728331   5.631   0.246   5.322 -3.1042 -0.8263 -0.8203
   88MOL   H31828332   5.556   0.279   5.478  0.0946  1.9845  0.9680
   88MOL   H31928333   5.697   0.360   5.445 -1.4112  1.2152  0.7870
   88MOL   H32028334   5.496   0.544   5.160  0.8124  0.3213  0.6723
   88MOL   H32128335   5.645   0.435   5.159  0.7468  0.2979  1.5907
   88MOL   H32228336   5.344   0.548   5.348 -0.6135  0.4191  0.8258
   89MOL     C128337   7.600   4.908   5.923 -0.1524  0.1055  0.8653
   89MOL     C228338   7.636   5.037   5.995 -0.9081 -0.1194 -0.1377
   89MOL     C328339   7.447   4.892   5.894 -0.4623  0.1622 -0.2462
   89MOL     C428340   7.356   4.867   6.016  0.0399  0.7122  0.3501
   89MOL     C528341   7.211   4.918   6.009  0.9636  0.3640 -0.4570
   89MOL     C628342   7.401   4.819   6.133  0.0083  0.3299  0.8222
   89MOL     H728343   7.639   4.910   5.822 -4.4118 -0.9391 -0.8838
   89MOL     H828344   7.743   5.057   5.993 -1.2286  1.6121 -0.4270
   89MOL     H928345   7.608   5.038   6.100  1.1830 -0.1741  0.4377
   89MOL    H1028346   7.601   5.125   5.941 -1.7465 -0.5662 -0.3376
   89MOL    H1128347   7.391   4.981   5.868  0.1748  0.5386 -0.3472
   89MOL    H1228348   7.153   4.899   6.100  1.9127  0.0570  0.0953
   89MOL    H1328349   7.165   4.888   5.916 -1.0315 -0.6422  0.8200
   89MOL    H1428350   7.202   5.027   6.010  0.6379  0.3392 -0.5417
   89MOL    H1528351   7.506   4.794   6.137  0.8532  3.1878 -1.2855
   89MOL    H1628352   7.336   4.806   6.219 -1.7418 -0.4325 -0.5827
   89MOL    H1728353   7.655   4.825   5.968  0.1560 -0.2099 -0.0959
   89MOL    C1828354   7.415   4.794   5.775  0.5767  0.0996 -0.6729
   89MOL    C1928355   7.494   4.659   5.797 -0.6155  0.5021 -0.5027
   89MOL    C2028356   7.440   4.852   5.630  0.4218  0.1599  0.7267
   89MOL    C2128357   7.416   5.002   5.613 -0.1857  0.0667 -0.1805
   89MOL    C2228358   7.272   5.055   5.626 -0.4538 -0.1863  0.0913
   89MOL    C2328359   7.522   5.084   5.581  0.2953  0.6850 -0.5831
   89MOL    H2428360   7.309   4.775   5.791  1.0412 -1.0976  1.1573
   89MOL    H2528361   7.447   4.566   5.768 -1.4475  0.7188  0.1445
   89MOL    H2628362   7.502   4.641   5.904 -1.0561 -0.4895 -0.6390
   89MOL    H2728363   7.594   4.665   5.754 -0.4347 -0.8035 -0.2701
   89MOL    H2828364   7.548   4.842   5.618 -0.2227 -2.8330 -3.8468
   89MOL    H2928365   7.218   5.045   5.532  1.3423  0.9563 -1.0895
   89MOL    H3028366   7.261   5.161   5.648  2.1663  0.2802 -0.6744
   89MOL    H3128367   7.209   5.007   5.701 -0.6334  0.7469  0.5508
   89MOL    H3228368   7.622   5.045   5.570 -0.1386 -0.5104 -0.3822
   89MOL    H3328369   7.513   5.190   5.561 -0.8808  0.7267  0.1325
   89MOL    C3428370   7.375   4.784   5.508  0.3308 -0.3183  0.3908
   89MOL    C3528371   7.325   4.642   5.525  0.5845 -0.1003  0.6336
   89MOL    C3628372   7.447   4.815   5.367  0.2472  0.4977  0.0947
   89MOL    C3728373   7.340   4.823   5.257 -0.0524 -1.0369  0.7276
   89MOL    C3828374   7.294   4.973   5.236  1.2569 -0.0721  0.0971
   89MOL    C3928375   7.299   4.716   5.190 -0.4453 -0.1924  0.2032
   89MOL    H4028376   7.275   4.828   5.502 -0.6703 -2.6242 -0.7001
   89MOL    H4128377   7.268   4.596   5.444  0.4830 -0.3065  0.8192
   89MOL    H4228378   7.261   4.642   5.613 -4.8762  0.2795 -3.0617
   89MOL    H4328379   7.414   4.582   5.546 -0.6500 -1.6395  1.6189
   89MOL    H4428380   7.489   4.915   5.372  0.1743  0.6008 -1.1438
   89MOL    H4528381   7.373   5.029   5.188 -0.0297  2.4108  0.7890
   89MOL    H4628382   7.288   5.017   5.336  1.5739  0.6252 -0.1872
   89MOL    H4728383   7.201   4.968   5.179  2.0070 -0.3714 -1.1107
   89MOL    H4828384   7.343   4.619   5.206 -0.8406 -0.5787 -1.0567
   89MOL    H4928385   7.219   4.712   5.118 -2.8856 -0.7867  2.8241
   89MOL    C5028386   7.564   4.718   5.327 -0.7731 -0.2589  0.0420
   89MOL    C5128387   7.666   4.692   5.442 -0.6243 -0.1149  0.4089
   89MOL    C5228388   7.638   4.749   5.193 -0.0703 -0.2869 -0.1411
   89MOL    C5328389   7.685   4.612   5.131  0.5414 -0.2531  0.7241
   89MOL    C5428390   7.580   4.549   5.038 -0.2434 -0.8922 -0.0777
   89MOL    C5528391   7.806   4.551   5.154  0.0279  0.3464 -0.6587
   89MOL    H5628392   7.517   4.621   5.312 -1.4917 -0.1591  1.5396
   89MOL    H5728393   7.749   4.631   5.409 -1.4398 -2.1976  2.0569
   89MOL    H5828394   7.615   4.649   5.529  0.9567 -0.3146  1.2478
   89MOL    H5928395   7.715   4.782   5.479 -0.1062 -0.9559  1.8256
   89MOL    H6028396   7.568   4.783   5.116  0.2472 -2.7483 -1.5872
   89MOL    H6128397   7.476   4.563   5.068 -0.7027 -2.2496 -0.9731
   89MOL    H6228398   7.590   4.442   5.019 -1.6345 -1.4185  1.9559
   89MOL    H6328399   7.598   4.598   4.943 -0.4634  0.4069  0.5334
   89MOL    H6428400   7.881   4.598   5.217 -0.2916 -0.0385  0.0202
   89MOL    H6528401   7.840   4.461   5.105 -1.2347 -0.0198 -0.8585
   89MOL    C6628402   7.759   4.851   5.209  0.3816 -0.2540 -0.1106
   89MOL    C6728403   7.717   4.993   5.266 -0.1933  0.1146 -0.7323
   89MOL    C6828404   7.837   4.874   5.068  0.1717 -0.2810 -0.5634
   89MOL    C6928405   0.095   4.911   5.100  0.0705 -0.4195 -0.5492
   89MOL    C7028406   0.177   4.796   5.146 -0.1401 -0.6762  0.8333
   89MOL    C7128407   0.148   5.032   5.082  0.0945 -0.7350 -0.1441
   89MOL    H7228408   7.825   4.815   5.287 -0.7577 -0.5157  0.7326
   89MOL    H7328409   7.797   5.067   5.266  0.1092 -0.1882  1.3688
   89MOL    H7428410   7.690   4.985   5.372  0.0382 -1.7174 -0.8002
   89MOL    H7528411   7.632   5.027   5.208 -1.2057 -0.2269  0.5236
   89MOL    H7628412   7.847   4.775   5.022 -0.7529 -0.9727  0.6996
   89MOL    H7728413   0.284   4.820   5.154 -0.3979  0.1249  1.9666
   89MOL    H7828414   0.159   4.705   5.090 -1.3001 -1.3367  2.2672
   89MOL    H7928415   0.141   4.772   5.245 -0.0812  2.2397  1.5994
   89MOL    H8028416   0.081   5.111   5.050 -0.2239 -1.2946 -0.8920
   89MOL    H8128417   0.253   5.053   5.089  0.1726 -1.5410  1.2734
   89MOL    C8228418   7.766   4.964   4.955 -0.1277  0.4083  0.5842
   89MOL    C8328419   7.618   4.932   4.921  0.6589 -0.0731  0.6393
   89MOL    C8428420   7.856   4.976   4.829 -0.1048  0.7797  0.3086
   89MOL    C8528421   7.854   5.116   4.775  1.1845  0.2280 -0.3361
   89MOL    C8628422   0.095   5.186   4.757 -0.0346 -0.4078  0.2487
   89MOL    C8728423   7.745   5.181   4.725 -0.7876  0.5911 -1.0063
   89MOL    H8828424   7.772   5.063   4.999  0.2162  0.9101 -0.6005
   89MOL    H8928425   7.589   4.828   4.910 -2.1219  0.7353  0.0139
   89MOL    H9028426   7.576   4.975   4.831 -0.4803 -0.4671  0.9779
   89MOL    H9128427   7.557   4.985   4.994 -1.1389 -0.6403 -0.4228
   89MOL    H9228428   0.065   4.953   4.861  0.2444  0.3253 -1.0688
   89MOL    H9328429   0.071   5.293   4.754  0.0063 -0.3363  2.0196
   89MOL    H9428430   0.147   5.157   4.665  2.0501  0.1160  1.2331
   89MOL    H9528431   0.160   5.179   4.844  1.0480 -1.2662 -0.6129
   89MOL    H9628432   7.647   5.139   4.711 -0.2650  0.0954 -3.5310
   89MOL    H9728433   7.748   5.283   4.690  0.3724  0.3289 -1.7046
   89MOL    C9828434   7.847   4.867   4.709 -0.5717 -0.2028 -0.5317
   89MOL    C9928435   7.833   4.721   4.754  0.9986  0.0393  1.0272
   89MOL   C10028436   0.040   4.884   4.578  0.0772  0.6249  0.1944
   89MOL   C10128437   7.841   4.857   4.454 -0.7584  0.5278  0.3364
   89MOL   C10228438   7.744   4.960   4.409  0.0358 -0.3723 -0.4145
   89MOL   C10328439   7.833   4.737   4.392 -0.0313  0.3234  0.1583
   89MOL   H10428440   7.741   4.879   4.685  0.0044  1.7334 -2.3378
   89MOL   H10528441   7.762   4.713   4.836 -0.9104 -0.5299 -0.6198
   89MOL   H10628442   0.039   4.684   4.783  1.1473 -1.9707 -1.7397
   89MOL   H10728443   7.798   4.656   4.673  0.3501  0.1687  1.1998
   89MOL   H10828444   0.070   4.989   4.572 -3.0151  1.5740  0.5823
   89MOL   H10928445   7.757   5.058   4.453 -0.8515 -0.7458  0.7049
   89MOL   H11028446   7.642   4.930   4.436 -1.2219  1.6051 -2.7090
   89MOL   H11128447   7.745   4.963   4.300 -1.3729 -0.4078 -0.4467
   89MOL   H11228448   0.001   4.650   4.411 -1.5641 -0.8894 -0.3483
   89MOL   H11328449   7.762   4.730   4.311  0.8961 -2.8525 -0.4291
   89MOL   C11428450   0.182   4.809   4.579  0.2749  0.3628 -0.2742
   89MOL   C11528451   0.281   4.870   4.681  0.2795 -0.3062 -0.0635
   89MOL   C11628452   0.256   4.783   4.438  0.3372 -0.5253  0.4256
   89MOL   C11728453   0.351   4.659   4.454 -0.4484 -0.2538  0.0011
   89MOL   C11828454   0.287   4.522   4.445  0.2499  0.2835 -0.1189
   89MOL   C11928455   0.481   4.663   4.469 -0.2118 -0.1124 -0.7339
   89MOL   H12028456   0.159   4.709   4.615 -2.6762  1.9131  2.4859
   89MOL   H12128457   0.241   4.870   4.782  1.8357 -0.4249  0.5642
   89MOL   H12228458   0.317   4.965   4.641  0.4448  0.2646  1.4253
   89MOL   H12328459   0.359   4.794   4.688  0.0277 -0.5750 -0.1572
   89MOL   H12428460   0.190   4.756   4.355  1.7517 -2.1458 -0.1976
   89MOL   H12528461   0.203   4.537   4.378  0.3819 -2.3625 -0.9242
   89MOL   H12628462   0.254   4.477   4.539  0.0611  0.7207  0.0253
   89MOL   H12728463   0.355   4.447   4.404 -1.9019 -2.2501  0.8428
   89MOL   H12828464   0.545   4.750   4.472 -0.3172 -0.0313 -0.8324
   89MOL   H12928465   0.545   4.576   4.469  2.7885  1.9851  1.4710
   89MOL   C13028466   0.332   4.911   4.382  0.1056 -1.1199  1.5981
   89MOL   C13128467   0.266   5.049   4.389 -0.5009 -0.3790  0.7899
   89MOL   C13228468   0.411   4.880   4.239 -0.0749  0.3652 -0.0644
   89MOL   C13328469   0.559   4.923   4.252  0.1518 -0.3854  0.0301
   89MOL   C13428470   0.586   5.078   4.265  0.1523  0.3463 -0.5271
   89MOL   C13528471   0.658   4.838   4.258 -0.4429  0.4457 -0.4982
   89MOL   H13628472   0.411   4.926   4.455  0.6278  3.0520  0.3269
   89MOL   H13728473   0.157   5.055   4.389 -0.4400  1.1371  2.5901
   89MOL   H13828474   0.299   5.119   4.312  0.2838 -0.0742  1.4057
   89MOL   H13928475   0.300   5.104   4.477  2.3659 -0.8063 -0.0340
   89MOL   H14028476   0.425   4.772   4.238 -1.3976  0.1337  2.2958
   89MOL   H14128477   0.691   5.107   4.262 -0.0061  0.8911 -1.0662
   89MOL   H14228478   0.545   5.126   4.354  0.1359  0.3940 -0.5607
   89MOL   H14328479   0.542   5.132   4.181 -0.5064 -0.0102 -0.4142
   89MOL   H14428480   0.653   4.731   4.251  0.2676  0.1550  2.8192
   89MOL   H14528481   0.759   4.878   4.258 -0.3579  0.2322 -0.6102
   89MOL   C14628482   0.341   4.924   4.114 -0.8140  0.0043  0.0819
   89MOL   C14728483   0.183   4.881   4.110  0.1618 -0.0527 -0.0355
   89MOL   C14828484   0.422   4.878   3.986 -0.0708  0.1495  0.4930
   89MOL   C14928485   0.428   4.992   3.888 -0.0003  0.2943 -0.3544
   89MOL   C15028486   0.301   5.036   3.812 -0.2652 -0.1229  0.1991
   89MOL   C15128487   0.537   5.058   3.865 -0.0418 -0.8019 -0.1084
   89MOL   H15228488   0.337   5.033   4.120  1.5445  0.1132 -0.0927
   89MOL   H15328489   0.136   4.930   4.195 -0.3738  1.0942 -0.9894
   89MOL   H15428490   0.156   4.775   4.119  0.0771 -0.0391 -0.1354
   89MOL   H15528491   0.128   4.907   4.020 -0.8982 -0.8792  0.3614
   89MOL   H15628492   0.528   4.860   4.008 -0.7248 -1.3313  2.6156
   89MOL   H15728493   0.319   5.065   3.709  0.1171 -0.7573  0.0876
   89MOL   H15828494   0.261   5.123   3.864  1.2387  0.2254  0.7709
   89MOL   H15928495   0.227   4.956   3.809  2.0847 -2.4231  1.6558
   89MOL   H16028496   0.632   5.038   3.911 -0.4194  0.4301  1.2437
   89MOL   H16128497   0.538   5.146   3.802 -1.6120 -0.3965  0.4087
   89MOL   C16228498   0.379   4.752   3.918  0.1737  0.2397  0.0926
   89MOL   C16328499   0.382   4.642   4.023 -0.1993  0.6828 -1.2263
   89MOL   C16428500   0.464   4.720   3.789 -0.2572  0.0686  0.3645
   89MOL   C16528501   0.366   4.710   3.670  0.6421 -0.4824 -0.0424
   89MOL   C16628502   0.266   4.593   3.671 -0.6852  0.4511 -0.7605
   89MOL   C16728503   0.363   4.809   3.578 -0.5379  0.7005  0.8692
   89MOL   H16828504   0.275   4.758   3.887 -0.2839 -2.6932  0.8644
   89MOL   H16928505   0.478   4.605   4.059  0.0435  0.6030 -1.9478
   89MOL   H17028506   0.328   4.554   3.988  2.4262 -1.4976 -0.0239
   89MOL   H17128507   0.326   4.656   4.115  1.3917  1.9142 -0.4120
   89MOL   H17228508   0.517   4.810   3.757 -1.2990  0.1394 -1.2614
   89MOL   H17328509   0.163   4.619   3.695 -0.8031 -0.9094  0.3140
   89MOL   H17428510   0.282   4.516   3.747 -0.3158 -1.7333 -2.9933
   89MOL   H17528511   0.273   4.550   3.572 -3.5373  1.9181 -1.6566
   89MOL   H17628512   0.419   4.901   3.576 -0.8863  0.8925 -0.9425
   89MOL   H17728513   0.294   4.806   3.494 -1.2860 -1.0702  1.5321
   89MOL   C17828514   0.580   4.617   3.789  0.0593  0.2721 -0.0013
   89MOL   C17928515   0.693   4.660   3.884  0.3861 -0.1530  0.2069
   89MOL   C18028516   0.630   4.566   3.646  0.0413 -0.4778 -0.4914
   89MOL   C18128517   0.536   4.467   3.575 -0.1083  0.3901  0.2353
   89MOL   C18228518   0.482   4.346   3.654 -0.3421 -0.8869 -0.5212
   89MOL   C18328519   0.491   4.493   3.448 -0.0594 -0.7068  0.8158
   89MOL   H18428520   0.531   4.530   3.833  3.7909 -2.0213 -0.2495
   89MOL   H18528521   0.650   4.657   3.985  1.8860 -0.7038  0.8466
   89MOL   H18628522   0.721   4.763   3.862 -3.4337  0.4340 -2.3424
   89MOL   H18728523   0.784   4.601   3.882  0.0041 -0.7468  0.2863
   89MOL   H18828524   0.610   4.653   3.584 -1.6750 -0.1685  0.4439
   89MOL   H18928525   0.464   4.366   3.760  0.4280  0.3653 -0.6107
   89MOL   H19028526   0.550   4.261   3.655  0.8876  0.0846  0.5759
   89MOL   H19128527   0.389   4.310   3.611 -1.6031 -0.1621  1.5543
   89MOL   H19228528   0.511   4.580   3.388 -2.7096  0.8627  2.1285
   89MOL   H19328529   0.415   4.436   3.397  1.2418  0.3863 -2.4556
   89MOL   C19428530   0.786   4.521   3.627 -0.1751 -0.0467 -0.0399
   89MOL   C19528531   0.819   4.397   3.710 -0.1435 -0.2943  0.1752
   89MOL   C19628532   0.898   4.646   3.632  0.6095 -0.0061  0.4134
   89MOL   C19728533   0.846   4.779   3.573  0.3444  0.1490  0.3859
   89MOL   C19828534   0.802   4.778   3.429 -0.1462  0.0868 -0.6537
   89MOL   C19928535   0.846   4.890   3.645 -0.0624  0.3646  0.5765
   89MOL   H20028536   0.795   4.471   3.530  1.4541 -0.3427  0.2492
   89MOL   H20128537   0.869   4.315   3.659 -0.7111  0.1014 -1.0268
   89MOL   H20228538   0.734   4.346   3.753 -0.2059 -2.3635 -2.3177
   89MOL   H20328539   0.880   4.414   3.799 -0.4082  1.2018  0.0832
   89MOL   H20428540   0.928   4.668   3.735  1.4533  2.4388 -0.3309
   89MOL   H20528541   0.845   4.863   3.376  0.0673 -0.3049 -1.1072
   89MOL   H20628542   0.693   4.786   3.424 -0.2152  1.4567  2.1123
   89MOL   H20728543   0.834   4.683   3.386 -0.7343 -0.5442  0.2790
   89MOL   H20828544   0.883   4.899   3.746 -1.7051  1.2828  1.1167
   89MOL   H20928545   0.819   4.981   3.594 -0.2484  0.5429  0.9926
   89MOL   C21028546   1.037   4.616   3.554 -0.0138 -0.4895 -0.0460
   89MOL   C21128547   1.076   4.465   3.523 -0.3119  0.0697  0.1067
   89MOL   C21228548   1.143   4.707   3.611 -0.0697 -0.1572 -0.0252
   89MOL   C21328549   1.218   4.772   3.497 -0.9961  0.3915  0.5907
   89MOL   C21428550   1.197   4.920   3.466  0.4177  0.9568  0.6542
   89MOL   C21528551   1.307   4.697   3.430 -0.7050 -0.0847  0.6112
   89MOL   H21628552   1.024   4.653   3.452  0.8334  2.8522  0.9929
   89MOL   H21728553   1.007   4.422   3.450 -0.0058 -0.9535  0.4077
   89MOL   H21828554   1.086   4.402   3.612  0.3199  0.1071  0.0590
   89MOL   H21928555   1.176   4.457   3.481 -0.0433  0.0948  0.7336
   89MOL   H22028556   1.098   4.791   3.664 -1.4240 -2.1982  2.1255
   89MOL   H22128557   1.092   4.942   3.485  0.9204  2.1486  2.2403
   89MOL   H22228558   1.209   4.947   3.362 -2.3747 -1.8614 -0.4752
   89MOL   H22328559   1.255   4.989   3.528  1.6535 -1.3907  2.1784
   89MOL   H22428560   1.347   4.598   3.444 -0.2431  0.0449  0.2499
   89MOL   H22528561   1.351   4.737   3.339 -1.9678  0.0692  0.0585
   89MOL   C22628562   1.249   4.641   3.711 -0.2295 -0.5972  0.4177
   89MOL   C22728563   1.161   4.585   3.824 -0.6183  0.2211  0.1964
   89MOL   C22828564   1.366   4.728   3.769  0.3024  0.4826  0.0886
   89MOL   C22928565   1.485   4.632   3.766 -0.5957  0.0449 -0.1174
   89MOL   C23028566   1.490   4.519   3.865  0.3607 -0.2599  0.1428
   89MOL   C23128567   1.584   4.642   3.676 -0.0405  0.7732  0.1238
   89MOL   H23228568   1.309   4.564   3.662  0.0552 -0.5411  0.6762
   89MOL   H23328569   1.222   4.539   3.902 -0.5777  1.2919  0.8121
   89MOL   H23428570   1.093   4.503   3.801  1.0885 -1.0814 -0.2998
   89MOL   H23528571   1.110   4.667   3.875  1.2500  1.7590 -0.3241
   89MOL   H23628572   1.391   4.793   3.685 -2.6948 -0.7133 -1.8082
   89MOL   H23728573   1.415   4.441   3.848  1.5852 -1.2006 -0.9823
   89MOL   H23828574   1.465   4.562   3.963  1.1165 -0.6723  0.5184
   89MOL   H23928575   1.585   4.467   3.880  0.4434 -0.2915 -0.4884
   89MOL   H24028576   1.581   4.721   3.602  0.7708 -0.2351 -1.0066
   89MOL   H24128577   1.665   4.571   3.672 -0.3277  0.3419  1.7936
   89MOL   C24228578   1.340   4.823   3.896 -0.9972 -0.1750  0.1931
   89MOL   C24328579   1.238   4.939   3.874  0.3226 -0.4176 -0.3143
   89MOL   C24428580   1.481   4.878   3.954 -0.1128  0.6423  0.5796
   89MOL   C24528581   1.480   4.879   4.108 -0.7687  0.8514  0.3553
   89MOL   C24628582   1.391   4.973   4.184 -0.1619  0.3297 -0.0470
   89MOL   C24728583   1.570   4.809   4.181  0.0140  0.3775 -0.9917
   89MOL   H24828584   1.294   4.765   3.976  0.7227 -2.6431 -0.5293
   89MOL   H24928585   1.135   4.910   3.853  0.0857  0.7040 -0.7286
   89MOL   H25028586   1.271   5.009   3.797  0.2594 -0.6878 -0.5914
   89MOL   H25128587   1.231   5.004   3.961  1.1034  1.4858 -1.6521
   89MOL   H25228588   1.557   4.804   3.925 -1.3153 -0.4178  0.1014
   89MOL   H25328589   1.413   4.994   4.289  2.7576  4.1647 -1.3181
   89MOL   H25428590   1.289   4.940   4.163 -0.2138 -0.2463  1.0692
   89MOL   H25528591   1.406   5.066   4.128  0.5120 -0.0684 -0.5315
   89MOL   H25628592   1.648   4.748   4.137  1.4764  0.9668  0.7091
   89MOL   H25728593   1.568   4.802   4.289  1.2614 -0.4387 -0.9997
   89MOL   C25828594   1.548   5.010   3.896 -0.3501 -0.0439 -0.3945
   89MOL   C25928595   1.559   5.012   3.746 -0.6329  0.0702 -1.1608
   89MOL   C26028596   1.679   5.056   3.977 -1.0292 -0.2884 -0.5891
   89MOL   C26128597   1.656   5.205   3.999  0.2542  0.7912 -1.0785
   89MOL   C26228598   1.665   5.295   3.877  0.9106  0.8808  0.6015
   89MOL   C26328599   1.621   5.252   4.121  0.0717  0.4176 -0.2185
   89MOL   H26428600   1.464   5.077   3.914 -1.7412 -2.5362  2.8548
   89MOL   H26528601   1.599   4.923   3.697 -0.7744 -1.0963  0.7738
   89MOL   H26628602   1.623   5.096   3.716 -0.3964  0.7875  1.2035
   89MOL   H26728603   1.459   5.023   3.705 -2.3344 -1.3849  2.3453
   89MOL   H26828604   1.679   5.010   4.076 -1.6502  1.7675  0.4113
   89MOL   H26928605   1.659   5.398   3.914  0.1106  0.6524  1.1310
   89MOL   H27028606   1.580   5.284   3.810  1.9684  0.3401 -0.6622
   89MOL   H27128607   1.754   5.280   3.818  1.1256 -0.6016  1.2694
   89MOL   H27228608   1.607   5.175   4.195 -0.1294  0.6217 -0.0398
   89MOL   H27328609   1.601   5.355   4.149  0.1003  0.7642 -1.4371
   89MOL   C27428610   1.815   5.020   3.916 -0.6075  0.1624 -0.0303
   89MOL   C27528611   1.829   4.865   3.899 -0.0671  0.0126 -0.0018
   89MOL   C27628612   1.940   5.089   3.983 -0.0739  0.0025 -0.6846
   89MOL   C27728613   2.052   5.132   3.875  0.0208  0.0914  0.6912
   89MOL   C27828614   2.040   5.262   3.787  0.0171  0.2685  0.0127
   89MOL   C27928615   2.155   5.042   3.847  0.5613 -0.3563  0.5360
   89MOL   H28028616   1.809   5.062   3.816  0.0667 -0.8114 -0.4912
   89MOL   H28128617   1.806   4.824   3.997 -0.6032 -0.9166 -0.5071
   89MOL   H28228618   1.928   4.828   3.876 -0.5155 -0.8024 -0.6583
   89MOL   H28328619   1.758   4.815   3.832  1.1535 -1.7336 -0.0205
   89MOL   H28428620   1.917   5.187   4.025  0.5464  0.4566 -1.3823
   89MOL   H28528621   1.969   5.248   3.706  0.4904  0.1284 -0.3814
   89MOL   H28628622   2.133   5.298   3.743  1.1657 -0.5578  1.6767
   89MOL   H28728623   2.007   5.347   3.847  1.2975 -0.0446  1.1758
   89MOL   H28828624   2.151   4.950   3.903 -0.9151  0.2647  1.4902
   89MOL   H28928625   2.237   5.055   3.779  0.0014 -0.7446 -0.2282
   89MOL   C29028626   1.994   5.020   4.113  0.6846  0.0775 -0.3182
   89MOL   C29128627   1.895   4.985   4.228 -0.2972  0.1443  0.1899
   89MOL   C29228628   2.125   5.092   4.164 -0.0061  0.4667 -0.3809
   89MOL   C29328629   2.236   4.986   4.174 -0.2363 -0.0811 -0.0472
   89MOL   C29428630   2.218   4.873   4.273 -0.1250 -0.0555 -1.1789
   89MOL   C29528631   2.354   4.994   4.111 -0.2865  0.4817 -0.5322
   89MOL   H29628632   2.035   4.924   4.078 -1.8199 -0.5394 -1.6292
   89MOL   H29728633   1.828   4.904   4.200 -0.2727 -0.1465  0.9529
   89MOL   H29828634   1.839   5.076   4.253  0.5450 -0.2126  3.6335
   89MOL   H29928635   1.947   4.969   4.322  0.6927  1.8871 -0.0538
   89MOL   H30028636   2.163   5.161   4.089 -0.6743 -1.2560 -2.3572
   89MOL   H30128637   2.132   4.807   4.259  0.6718 -0.9912 -1.6857
   89MOL   H30228638   2.202   4.924   4.368 -1.4507 -1.0958 -0.8268
   89MOL   H30328639   2.307   4.811   4.281  1.3747  2.1855 -0.0342
   89MOL   H30428640   2.369   5.081   4.049  1.7889  2.2207  2.2894
   89MOL   H30528641   2.433   4.921   4.107  0.9468  1.5084  3.0555
   89MOL   C30628642   2.114   5.187   4.280  0.6286  0.8418  0.4050
   89MOL   C30728643   2.022   5.303   4.243 -0.4592  0.2057  0.3345
   89MOL   C30828644   2.259   5.233   4.323 -0.1602 -0.7355 -1.0392
   89MOL   C30928645   2.262   5.309   4.453  0.4460 -0.1458 -0.1420
   89MOL   C31028646   2.211   5.240   4.579  0.3170  0.2458  0.4596
   89MOL   C31128647   2.271   5.444   4.457  0.0966 -0.1301  0.6985
   89MOL   H31228648   2.064   5.131   4.359  1.3308  0.8749  0.8840
   89MOL   H31328649   1.993   5.371   4.323 -1.1637  0.3498 -0.0432
   89MOL   H31428650   1.920   5.278   4.214 -0.1801 -1.7128  0.8883
   89MOL   H31528651   2.066   5.362   4.163  2.2869  0.3761  1.8960
   89MOL   H31628652   2.339   5.161   4.341  2.3148  1.8535 -1.2638
   89MOL   H31728653   2.272   5.151   4.593  3.0680  2.1333  0.9427
   89MOL   H31828654   2.107   5.209   4.567  0.3500  1.1677 -2.8420
   89MOL   H31928655   2.230   5.299   4.669 -1.0000 -0.0439  0.9415
   89MOL   H32028656   2.299   5.497   4.367  1.9894 -0.4274  1.1067
   89MOL   H32128657   2.256   5.505   4.545  0.8662  2.9023 -1.1850
   89MOL   H32228658   2.299   5.306   4.252 -0.3001  0.1074 -0.2596
   90MOL     C128659   3.129   5.892   3.823 -0.4648  0.0091 -0.1595
   90MOL     C228660   3.101   5.787   3.922  0.1935  0.1325  0.0848
   90MOL     C328661   3.055   6.019   3.860 -0.3061  0.2973  0.6436
   90MOL     C428662   2.910   6.032   3.826  0.4151  0.5128  0.4253
   90MOL     C528663   2.874   6.040   3.679  0.8295  0.3236 -0.2828
   90MOL     C628664   2.814   6.035   3.919  0.0757 -0.2035 -0.2424
   90MOL     H728665   3.238   5.905   3.821 -0.6296  1.5731 -0.0556
   90MOL     H828666   2.995   5.783   3.947 -0.3843  0.5237 -2.1348
   90MOL     H928667   3.140   5.802   4.022 -2.6715 -0.7117  1.3894
   90MOL    H1028668   3.109   5.688   3.877  0.6694  0.7686 -1.2678
   90MOL    H1128669   3.043   6.006   3.967  0.1670  0.1620  0.6799
   90MOL    H1228670   2.766   6.034   3.664  1.0671  0.1009 -1.9914
   90MOL    H1328671   2.930   5.967   3.621 -1.7619 -0.4965 -1.8193
   90MOL    H1428672   2.906   6.143   3.659 -1.8852  1.9644  3.3068
   90MOL    H1528673   2.833   6.035   4.025  0.0695 -0.4134 -0.2421
   90MOL    H1628674   2.710   6.038   3.890 -0.4359 -1.2447  1.4385
   90MOL    H1728675   3.102   5.851   3.726  0.2004 -0.3323 -0.2065
   90MOL    C1828676   3.136   6.146   3.841  0.2425  0.0454  0.2685
   90MOL    C1928677   3.208   6.146   3.703  0.2073  0.4770 -0.6942
   90MOL    C2028678   3.241   6.167   3.956 -0.0018  0.3037  0.6792
   90MOL    C2128679   3.178   6.173   4.094  0.1029  0.6310  0.0178
   90MOL    C2228680   3.267   6.128   4.209  0.0330 -0.3382  0.4482
   90MOL    C2328681   3.057   6.221   4.120 -0.6394  0.2482 -0.2608
   90MOL    H2428682   3.059   6.223   3.847  0.3378  0.2674 -1.1426
   90MOL    H2528683   3.236   6.250   3.686  1.0322  0.6581  1.6093
   90MOL    H2628684   3.152   6.105   3.620 -0.5233 -0.4783  0.2526
   90MOL    H2728685   3.296   6.083   3.716 -0.5345 -0.6303 -0.9361
   90MOL    H2828686   3.300   6.075   3.955 -0.5611 -0.0489 -1.0588
   90MOL    H2928687   3.289   6.021   4.208 -0.6047 -0.4607 -0.1554
   90MOL    H3028688   3.209   6.140   4.300  0.1880  0.1800  0.4824
   90MOL    H3128689   3.366   6.173   4.224 -0.3641  1.6450 -2.3975
   90MOL    H3228690   2.989   6.255   4.043 -1.9191  0.2627  0.8510
   90MOL    H3328691   3.028   6.224   4.224  0.4768  2.1761  0.0085
   90MOL    C3428692   3.343   6.287   3.937  0.2521 -0.5171  0.0090
   90MOL    C3528693   3.266   6.414   3.904  0.2126  0.0081  0.3455
   90MOL    C3628694   3.468   6.270   3.843 -0.2964  0.0100 -0.5695
   90MOL    C3728695   3.530   6.132   3.862  0.0011  1.0061 -0.4087
   90MOL    C3828696   3.585   6.090   3.999  0.0423  0.7694 -0.1438
   90MOL    C3928697   3.544   6.046   3.757  0.6676 -0.0376 -0.0651
   90MOL    H4028698   3.380   6.318   4.034  0.0331 -1.6548  0.4624
   90MOL    H4128699   3.326   6.502   3.929 -1.3264  1.1842 -0.0766
   90MOL    H4228700   3.166   6.421   3.947  0.8026  0.7045  1.6321
   90MOL    H4328701   3.259   6.424   3.796 -2.2125  3.0975  0.7456
   90MOL    H4428702   3.430   6.280   3.741 -4.3617 -1.8922  0.6490
   90MOL    H4528703   3.546   6.133   4.092 -0.1353 -1.2990  0.7606
   90MOL    H4628704   3.689   6.122   4.006  0.7243 -1.3365 -0.1895
   90MOL    H4728705   3.576   5.981   4.002  1.1675  0.6746 -0.2371
   90MOL    H4828706   3.505   6.076   3.660 -1.0653  0.1972  0.6889
   90MOL    H4928707   3.593   5.951   3.770  1.4122  0.5090  1.1556
   90MOL    C5028708   3.582   6.382   3.842 -0.4986  0.5018 -0.0635
   90MOL    C5128709   3.605   6.438   3.980 -0.5536  0.2930 -0.3621
   90MOL    C5228710   3.564   6.502   3.731  0.3175  0.0627 -0.3223
   90MOL    C5328711   3.533   6.449   3.588  0.3280 -0.5508 -0.1479
   90MOL    C5428712   3.646   6.366   3.521 -0.3106  0.3386 -0.3421
   90MOL    C5528713   3.418   6.480   3.528  0.2507  0.2959  0.1681
   90MOL    H5628714   3.679   6.342   3.813 -2.1036 -2.4542 -1.5497
   90MOL    H5728715   3.537   6.516   4.013  0.4532  1.7422 -1.6423
   90MOL    H5828716   3.702   6.488   3.988 -0.2945 -0.4487  1.2223
   90MOL    H5928717   3.600   6.364   4.060 -0.4998  0.5619 -0.1111
   90MOL    H6028718   3.465   6.541   3.752  0.1213 -1.2062  1.2345
   90MOL    H6128719   3.708   6.440   3.472  0.3846 -0.1698 -0.2370
   90MOL    H6228720   3.600   6.302   3.446  0.5169 -0.4009 -0.2253
   90MOL    H6328721   3.702   6.302   3.590 -0.4931  0.1902 -0.3317
   90MOL    H6428722   3.338   6.542   3.566  1.8004  3.1695 -1.0421
   90MOL    H6528723   3.403   6.443   3.428  0.3388 -0.6679  0.5036
   90MOL    C6628724   3.675   6.615   3.716 -0.3620 -0.3744 -0.4919
   90MOL    C6728725   3.814   6.556   3.730 -0.5730  0.1302 -0.1556
   90MOL    C6828726   3.639   6.741   3.807  0.6369 -0.1653  0.2265
   90MOL    C6928727   3.498   6.790   3.801  0.1577  0.6455  0.1344
   90MOL    C7028728   3.436   6.826   3.668  1.1822 -0.0493 -0.3385
   90MOL    C7128729   3.429   6.806   3.915  0.4938 -0.1907 -0.3376
   90MOL    H7228730   3.666   6.653   3.615  1.2616  0.1948 -0.4294
   90MOL    H7328731   3.835   6.466   3.672  1.2859  0.7971 -0.5382
   90MOL    H7428732   3.838   6.545   3.836 -2.3766 -0.7031  0.1841
   90MOL    H7528733   3.894   6.621   3.694  1.2413 -1.0607  1.5630
   90MOL    H7628734   3.649   6.700   3.907  1.7532 -1.2724 -0.3229
   90MOL    H7728735   3.467   6.742   3.606  2.5296  0.0859  0.1391
   90MOL    H7828736   3.470   6.918   3.619 -0.1884  0.6426 -0.0011
   90MOL    H7928737   3.328   6.832   3.681  1.3436 -2.8575  3.0288
   90MOL    H8028738   3.466   6.790   4.014 -1.9365  1.7675  0.9652
   90MOL    H8128739   3.331   6.850   3.928  1.3817  1.5843  0.4205
   90MOL    C8228740   3.730   6.871   3.806  0.3398 -0.6791  0.4430
   90MOL    C8328741   3.774   6.896   3.658  0.2827 -0.1792 -0.9721
   90MOL    C8428742   3.847   6.864   3.917 -0.1472  0.3262  0.9510
   90MOL    C8528743   3.784   6.864   4.053 -0.5897  0.2002 -0.8027
   90MOL    C8628744   3.829   6.747   4.138 -0.2603  0.2178 -0.7047
   90MOL    C8728745   3.691   6.947   4.098  0.0053 -0.2684 -0.0783
   90MOL    H8828746   3.674   6.962   3.828 -1.1001 -1.3174 -0.4465
   90MOL    H8928747   3.691   6.896   3.588 -0.0718  0.1136 -0.5581
   90MOL    H9028748   3.838   6.816   3.621  1.4971  0.6528 -0.7161
   90MOL    H9128749   3.835   6.986   3.653  0.3057 -0.2528 -1.9554
   90MOL    H9228750   3.893   6.766   3.907  2.3230  1.6803 -1.5489
   90MOL    H9328751   3.833   6.649   4.091 -1.4619 -0.0774 -0.2163
   90MOL    H9428752   3.764   6.728   4.224 -0.9612 -0.1679 -1.3152
   90MOL    H9528753   3.928   6.761   4.182  0.3977 -1.2996 -1.6571
   90MOL    H9628754   3.642   7.022   4.037 -0.5339 -0.0509  0.6105
   90MOL    H9728755   3.651   6.944   4.198 -0.3678  2.4852 -0.1150
   90MOL    C9828756   3.961   6.976   3.910 -0.0041 -0.0911  0.2060
   90MOL    C9928757   3.906   7.117   3.856 -0.0641  0.4682 -0.0899
   90MOL   C10028758   4.094   6.923   3.845 -0.0489 -0.1935  0.3145
   90MOL   C10128759   4.140   6.799   3.922  0.4574  0.8647  0.3015
   90MOL   C10228760   4.181   6.813   4.068 -0.4175  0.0548 -0.5013
   90MOL   C10328761   4.149   6.681   3.858  0.8339  0.0511 -0.0279
   90MOL   H10428762   3.988   7.011   4.009  0.8637  0.0033 -0.0547
   90MOL   H10528763   3.915   7.135   3.749  0.7440  0.3182 -0.0449
   90MOL   H10628764   3.942   7.202   3.914 -2.4253  1.3351  0.1623
   90MOL   H10728765   3.798   7.127   3.872  0.0142  1.0589  0.0864
   90MOL   H10828766   4.061   6.884   3.749  0.9363  1.1189 -0.5777
   90MOL   H10928767   4.192   6.717   4.118  1.9445  0.6602  0.2380
   90MOL   H11028768   4.111   6.876   4.123 -0.4034  1.1430 -1.7154
   90MOL   H11128769   4.273   6.870   4.081  0.2528 -0.7634 -1.6527
   90MOL   H11228770   4.125   6.666   3.754 -3.4499 -2.2768  1.1562
   90MOL   H11328771   4.179   6.587   3.902  1.1713  0.3641  0.4123
   90MOL   C11428772   4.217   7.020   3.818  0.4030 -0.2849  0.4983
   90MOL   C11528773   4.209   7.172   3.871  0.3487 -0.6184  0.1643
   90MOL   C11628774   4.269   7.010   3.668 -0.3547 -0.4121  0.3544
   90MOL   C11728775   4.176   7.068   3.566 -0.3131 -0.2585  0.3913
   90MOL   C11828776   4.207   7.208   3.514 -0.3139  0.4007 -0.5284
   90MOL   C11928777   4.072   7.001   3.515  0.1750 -0.4653  0.3954
   90MOL   H12028778   4.295   6.990   3.888 -0.7515 -1.1206  1.4552
   90MOL   H12128779   4.135   7.224   3.810 -1.3358 -0.9447  1.8787
   90MOL   H12228780   4.298   7.233   3.888  0.3973 -0.3423 -1.0506
   90MOL   H12328781   4.163   7.165   3.970 -1.4304 -1.0270 -0.6905
   90MOL   H12428782   4.356   7.074   3.658 -1.0692  0.1698 -2.4613
   90MOL   H12528783   4.286   7.253   3.573 -0.3780 -0.8773  0.5659
   90MOL   H12628784   4.122   7.275   3.500 -0.3444  0.4272 -0.2279
   90MOL   H12728785   4.243   7.193   3.412 -1.5813 -1.0473 -0.7741
   90MOL   H12828786   4.039   6.902   3.541 -0.4372 -0.7401 -1.3719
   90MOL   H12928787   4.010   7.041   3.436  1.9017 -1.4959 -1.5508
   90MOL   C13028788   4.333   6.869   3.629  0.1609 -0.0443 -0.2825
   90MOL   C13128789   4.449   6.842   3.718 -0.2122  0.2589 -0.3902
   90MOL   C13228790   4.348   6.822   3.478 -0.2694 -0.2024  0.3770
   90MOL   C13328791   4.291   6.676   3.467  0.3453  0.3117  0.5111
   90MOL   C13428792   4.371   6.557   3.512  0.9347  0.6362  0.5246
   90MOL   C13528793   4.177   6.654   3.408 -0.3410 -0.6013  0.3224
   90MOL   H13628794   4.254   6.801   3.662  0.4071  0.0008  0.3999
   90MOL   H13728795   4.526   6.918   3.714 -2.6783  2.9199  0.7416
   90MOL   H13828796   4.497   6.754   3.676 -2.2684 -0.5218 -1.1930
   90MOL   H13928797   4.424   6.819   3.822  2.6799 -3.3513 -0.3723
   90MOL   H14028798   4.268   6.877   3.428 -1.2437  0.6721  2.8075
   90MOL   H14128799   4.364   6.531   3.618 -0.9623 -1.6206 -0.1222
   90MOL   H14228800   4.472   6.548   3.474  1.2833  0.8201  1.3857
   90MOL   H14328801   4.328   6.473   3.459  2.8566  0.7829 -1.3513
   90MOL   H14428802   4.126   6.743   3.374  2.3265  1.3031  1.1936
   90MOL   H14528803   4.131   6.557   3.391 -0.3350 -0.7371  1.0804
   90MOL   C14628804   4.490   6.850   3.414  0.1324  0.0615  0.4136
   90MOL   C14728805   4.534   6.995   3.411  0.6443 -0.0739 -0.3108
   90MOL   C14828806   4.520   6.775   3.274  0.9720 -0.0414 -0.0785
   90MOL   C14928807   4.671   6.755   3.276 -0.8062  0.0540 -0.4260
   90MOL   C15028808   4.714   6.638   3.362  0.0475 -0.8527 -0.9259
   90MOL   C15128809   4.757   6.834   3.217  0.2334 -0.6240  0.4541
   90MOL   H15228810   4.560   6.799   3.481  0.2761 -1.8259 -1.1127
   90MOL   H15328811   4.528   7.033   3.513  2.2031  1.1565 -0.6553
   90MOL   H15428812   4.478   7.049   3.335 -0.6542  0.8884  1.2893
   90MOL   H15528813   4.640   7.005   3.387  0.3587 -0.5033 -1.7649
   90MOL   H15628814   4.476   6.676   3.261  0.1128 -0.0200  2.3263
   90MOL   H15728815   4.715   6.674   3.465  0.1837 -0.7569 -0.9611
   90MOL   H15828816   4.819   6.621   3.339  0.6162  2.6337 -1.2252
   90MOL   H15928817   4.651   6.549   3.359  0.9570 -1.4947 -1.3933
   90MOL   H16028818   4.733   6.918   3.154  0.3434 -1.0658 -0.1851
   90MOL   H16128819   4.862   6.814   3.229  0.4173  0.9990  1.5162
   90MOL   C16228820   4.457   6.844   3.145  0.7229 -0.2687 -0.4838
   90MOL   C16328821   4.301   6.884   3.150  0.4044  0.1085  0.2204
   90MOL   C16428822   4.480   6.761   3.013  0.0483 -0.1674  0.1355
   90MOL   C16528823   4.505   6.866   2.899 -0.0782 -0.0535  0.4169
   90MOL   C16628824   4.641   6.938   2.885  0.5499  0.2353 -0.4845
   90MOL   C16728825   4.408   6.893   2.811 -0.9621 -1.1372 -0.0020
   90MOL   H16828826   4.508   6.941   3.142 -1.6241  1.0724  0.9965
   90MOL   H16928827   4.237   6.806   3.193  0.4737  0.1383  0.3774
   90MOL   H17028828   4.257   6.897   3.051  1.1336 -0.9923 -0.2629
   90MOL   H17128829   4.287   6.972   3.213 -0.9070 -1.5400  2.3391
   90MOL   H17228830   4.579   6.720   3.033 -1.6573 -4.7498 -0.1350
   90MOL   H17328831   4.639   7.013   2.805 -1.2679 -0.0877 -0.7692
   90MOL   H17428832   4.715   6.860   2.866 -0.8913 -1.4819  0.8059
   90MOL   H17528833   4.664   6.987   2.980 -0.5177  0.2640 -0.2287
   90MOL   H17628834   4.318   6.834   2.814 -2.5914  1.3070  0.0813
   90MOL   H17728835   4.425   6.968   2.735  0.9440 -2.5378 -1.0072
   90MOL   C17828836   4.386   6.631   2.979  0.0247 -0.3108 -0.6718
   90MOL   C17928837   4.343   6.550   3.100  0.3480  0.8587 -0.3003
   90MOL   C18028838   4.433   6.546   2.856  0.4645 -1.1034 -0.2764
   90MOL   C18128839   4.313   6.509   2.760 -0.0451  0.6193 -0.0203
   90MOL   C18228840   4.215   6.406   2.812  0.4371  0.2211  0.4371
   90MOL   C18328841   4.298   6.564   2.638  0.4552 -0.3659  0.1005
   90MOL   H18428842   4.295   6.676   2.939 -0.0443 -0.7163 -0.9738
   90MOL   H18528843   4.273   6.477   3.060  1.6719 -1.0826  0.8516
   90MOL   H18628844   4.286   6.617   3.165  0.8649  0.4223  0.6152
   90MOL   H18728845   4.421   6.500   3.158  0.8140 -0.6398 -2.1640
   90MOL   H18828846   4.488   6.623   2.800  0.5590  0.8040  2.3629
   90MOL   H18928847   4.278   6.322   2.842  1.3154  1.1427  1.1968
   90MOL   H19028848   4.145   6.364   2.740  0.9044  0.2462 -0.0392
   90MOL   H19128849   4.161   6.445   2.897  0.8756  0.7634  0.4684
   90MOL   H19228850   4.365   6.639   2.598  1.4240 -1.5059 -0.4364
   90MOL   H19328851   4.215   6.540   2.573 -0.1548 -1.8162  1.3887
   90MOL   C19428852   4.540   6.436   2.895  0.2380 -0.3062  0.2337
   90MOL   C19528853   4.666   6.501   2.968  0.0549 -0.4247  0.6211
   90MOL   C19628854   4.587   6.333   2.782  0.0854 -0.0603  0.4734
   90MOL   C19728855   4.586   6.188   2.847 -0.1955 -0.1562  0.5485
   90MOL   C19828856   4.705   6.135   2.926 -0.3314  0.1685 -0.0387
   90MOL   C19928857   4.485   6.104   2.826  0.3978 -0.1340 -0.7251
   90MOL   H20028858   4.503   6.379   2.980  0.5699  1.5629  1.6868
   90MOL   H20128859   4.691   6.599   2.927 -1.6653  0.3423  1.3436
   90MOL   H20228860   4.754   6.437   2.970 -0.5812 -1.4035 -0.9437
   90MOL   H20328861   4.649   6.515   3.074 -0.7548  0.1519  0.4192
   90MOL   H20428862   4.504   6.331   2.711  2.6571 -3.5441 -2.5965
   90MOL   H20528863   4.696   6.139   3.034  0.7187  1.6455  0.0101
   90MOL   H20628864   4.796   6.195   2.918 -0.8696  0.8944 -0.8145
   90MOL   H20728865   4.739   6.041   2.883 -0.5983  1.0748 -2.3295
   90MOL   H20828866   4.404   6.125   2.758  0.2535 -0.1703 -0.5612
   90MOL   H20928867   4.483   6.005   2.869 -0.0306 -0.3344 -1.1953
   90MOL   C21028868   4.719   6.364   2.695  0.3057  0.2396  0.5935
   90MOL   C21128869   4.731   6.510   2.641  0.1077 -0.0282 -0.2773
   90MOL   C21228870   4.763   6.247   2.596 -0.1625 -0.0654  0.1935
   90MOL   C21328871   4.912   6.260   2.561  0.6984 -0.3897  0.4288
   90MOL   C21428872   4.961   6.359   2.456  0.2469  0.2228  0.2123
   90MOL   C21528873   5.001   6.182   2.619  0.4456 -0.3184 -0.2284
   90MOL   H21628874   4.798   6.355   2.770 -0.6865 -1.5898  1.4637
   90MOL   H21728875   4.669   6.575   2.703  0.4569  1.3261 -1.3183
   90MOL   H21828876   4.684   6.525   2.543  0.4654 -0.0296 -0.4514
   90MOL   H21928877   4.837   6.536   2.641 -0.2494  1.4702 -1.1574
   90MOL   H22028878   4.766   6.156   2.656 -1.5332 -0.5141 -0.3979
   90MOL   H22128879   5.069   6.349   2.451  0.4245  1.8314  0.4114
   90MOL   H22228880   4.946   6.463   2.485 -0.2469 -0.0652  0.9994
   90MOL   H22328881   4.925   6.340   2.354  0.1145 -0.8312  0.4491
   90MOL   H22428882   4.973   6.112   2.696  0.8012 -1.6909 -1.3296
   90MOL   H22528883   5.102   6.183   2.581 -0.7120 -0.8213 -3.4744
   90MOL   C22628884   4.674   6.214   2.467  0.0259 -0.6483 -0.0037
   90MOL   C22728885   4.534   6.278   2.468 -0.5065  0.6198 -0.0363
   90MOL   C22828886   4.676   6.060   2.435 -0.0086 -0.4117 -0.0492
   90MOL   C22928887   4.808   5.983   2.446 -0.3650  0.6499 -0.0273
   90MOL   C23028888   4.916   6.016   2.336  0.1029  0.2559  0.2570
   90MOL   C23128889   4.839   5.891   2.545 -0.6458  0.0972  0.1028
   90MOL   H23228890   4.712   6.274   2.384 -0.1732  1.4757  1.3907
   90MOL   H23328891   4.464   6.224   2.531  0.7869  0.4432  1.2648
   90MOL   H23428892   4.504   6.283   2.363 -0.2361  1.1756 -0.0880
   90MOL   H23528893   4.537   6.383   2.497  2.3756  0.8936 -1.1589
   90MOL   H23628894   4.641   6.015   2.528 -0.9172  1.2007  0.4078
   90MOL   H23728895   5.016   5.989   2.369 -0.3917  0.7499  2.2541
   90MOL   H23828896   4.906   6.122   2.312 -2.0745  0.1381  0.4639
   90MOL   H23928897   4.889   5.970   2.241  0.5022 -2.3034  1.3326
   90MOL   H24028898   4.787   5.864   2.635  0.2109  0.6730  0.7790
   90MOL   H24128899   4.933   5.842   2.523  0.1946  1.3672  0.7876
   90MOL   C24228900   4.603   6.017   2.294 -0.2261  0.6445 -0.6547
   90MOL   C24328901   4.645   6.102   2.169  0.3139  0.1360 -0.6484
   90MOL   C24428902   4.450   5.990   2.309 -0.0766  0.4481 -0.4467
   90MOL   C24528903   4.414   5.918   2.437  0.1816  0.3605 -0.4029
   90MOL   C24628904   4.484   5.786   2.472  0.0270  0.8900  0.2254
   90MOL   C24728905   4.342   5.983   2.531  0.6072  0.1773  0.1069
   90MOL   H24828906   4.646   5.919   2.273 -0.4912  0.5097 -0.5727
   90MOL   H24928907   4.627   6.048   2.076  1.0805  1.4010 -1.5428
   90MOL   H25028908   4.749   6.133   2.170  0.2360  0.4956 -2.4887
   90MOL   H25128909   4.581   6.190   2.160 -3.3824 -2.3385  0.3980
   90MOL   H25228910   4.392   6.083   2.313 -1.1510 -0.1997 -0.6116
   90MOL   H25328911   4.421   5.702   2.445  1.0011  0.1904  0.1197
   90MOL   H25428912   4.492   5.787   2.581 -0.4986  2.0501  0.2674
   90MOL   H25528913   4.585   5.775   2.432  1.2716  2.0882  2.9242
   90MOL   H25628914   4.292   6.078   2.522  0.2463 -0.0018  0.1887
   90MOL   H25728915   4.330   5.935   2.627  1.1665 -0.0917  0.0470
   90MOL   C25828916   4.389   5.909   2.185 -0.0307  0.1790  0.0271
   90MOL   C25928917   4.474   5.792   2.130 -0.2025 -0.3846  0.2750
   90MOL   C26028918   4.333   5.998   2.074 -0.0594  0.1144 -0.4409
   90MOL   C26128919   4.258   6.117   2.133 -0.2882 -0.6678  0.6818
   90MOL   C26228920   4.123   6.094   2.213 -0.0679  0.1374 -0.2834
   90MOL   C26328921   4.303   6.244   2.129  0.0201  0.1697 -0.4678
   90MOL   H26428922   4.297   5.869   2.227  0.1671 -3.8421 -3.0837
   90MOL   H26528923   4.412   5.723   2.073  1.2565 -2.5300  1.2497
   90MOL   H26628924   4.519   5.727   2.205 -1.2587  0.1242  1.3738
   90MOL   H26728925   4.551   5.830   2.064 -0.3036  0.5369  0.6818
   90MOL   H26828926   4.423   6.043   2.032 -0.1127  1.5089  0.8921
   90MOL   H26928927   4.071   6.187   2.235 -0.7009  0.2420 -2.1068
   90MOL   H27028928   4.149   6.039   2.303 -0.6848 -0.1464 -0.2777
   90MOL   H27128929   4.058   6.039   2.146  0.7443 -0.0957 -0.8998
   90MOL   H27228930   4.393   6.275   2.078  0.7756  1.3080  1.5137
   90MOL   H27328931   4.242   6.315   2.182 -0.4760 -0.8926  0.4110
   90MOL   C27428932   4.243   5.921   1.968  0.0680 -0.4050 -0.6243
   90MOL   C27528933   4.159   5.804   2.025  0.9078 -0.0783 -0.4015
   90MOL   C27628934   4.298   5.892   1.826  0.6610  0.0536 -0.2715
   90MOL   C27728935   4.398   5.788   1.817 -0.5968  0.0506  0.0302
   90MOL   C27828936   4.356   5.644   1.795  0.3173  0.7625  0.2535
   90MOL   C27928937   4.530   5.809   1.831 -0.6225  0.2347  0.1698
   90MOL   H28028938   4.164   5.989   1.936  1.4122  1.4036 -0.1716
   90MOL   H28128939   4.114   5.822   2.123 -3.2625 -2.2611 -1.8030
   90MOL   H28228940   4.200   5.704   2.021  1.1915  0.0858 -2.1503
   90MOL   H28328941   4.073   5.802   1.958  0.2525 -0.1593  0.4404
   90MOL   H28428942   4.214   5.855   1.766  0.4232 -0.3045  0.2889
   90MOL   H28528943   4.430   5.566   1.784  0.0296  0.4436  0.5682
   90MOL   H28628944   4.311   5.648   1.696  1.0719 -0.1473 -0.1233
   90MOL   H28728945   4.277   5.607   1.861  0.0372  2.4803  0.9307
   90MOL   H28828946   4.582   5.902   1.844 -2.2439  1.2102 -0.1988
   90MOL   H28928947   4.600   5.726   1.830 -0.7252  0.1429 -2.7765
   90MOL   C29028948   4.326   6.017   1.739  0.1965  0.6025  0.3072
   90MOL   C29128949   4.249   6.146   1.766 -0.0462 -0.4461  0.0568
   90MOL   C29228950   4.324   5.981   1.584  0.0339  0.1095 -0.1973
   90MOL   C29328951   4.457   6.020   1.506  0.4106  0.4220  0.7245
   90MOL   C29428952   4.491   6.170   1.500 -0.5404 -0.0709 -0.1370
   90MOL   C29528953   4.533   5.927   1.438 -0.5323 -0.4945  0.2962
   90MOL   H29628954   4.431   6.043   1.756  0.6165 -1.4873  1.0766
   90MOL   H29728955   4.270   6.187   1.865 -0.5036 -0.3339  0.1095
   90MOL   H29828956   4.140   6.142   1.763  0.0201 -1.3357 -2.0675
   90MOL   H29928957   4.273   6.228   1.699 -0.0086 -0.6071 -0.1259
   90MOL   H30028958   4.329   5.872   1.582  2.8037  0.1788  0.3731
   90MOL   H30128959   4.416   6.230   1.449 -3.0822 -0.9073  2.5028
   90MOL   H30228960   4.589   6.187   1.455 -0.1862 -1.2234  0.1710
   90MOL   H30328961   4.487   6.210   1.602 -2.1055  0.5758 -0.4450
   90MOL   H30428962   4.502   5.824   1.439 -0.8514 -0.4010  0.1109
   90MOL   H30528963   4.623   5.964   1.390 -0.5838 -1.6069 -0.6764
   90MOL   C30628964   4.201   6.021   1.506  0.1811 -0.3429  0.2252
   90MOL   C30728965   4.070   5.949   1.552 -0.0144 -0.3113  0.4363
   90MOL   C30828966   4.215   6.005   1.348  0.8292  0.2549  0.1122
   90MOL   C30928967   4.092   6.061   1.280 -0.7285  0.3119 -0.3276
   90MOL   C31028968   4.094   6.213   1.262  0.6213  0.0105 -0.4157
   90MOL   C31128969   4.000   5.980   1.226  0.3306  0.3912  0.2687
   90MOL   H31228970   4.195   6.129   1.518  3.5822 -0.0331 -0.3938
   90MOL   H31328971   4.061   5.964   1.660 -0.3478  0.8490  0.2578
   90MOL   H31428972   4.079   5.842   1.535  1.9194  0.1364 -1.5549
   90MOL   H31528973   3.978   5.978   1.502  0.7831 -0.2731 -1.0265
   90MOL   H31628974   4.305   6.056   1.313  1.0314 -0.6469 -0.6788
   90MOL   H31728975   4.196   6.249   1.250  1.0737 -0.5997  1.5395
   90MOL   H31828976   4.053   6.258   1.353  1.0166 -1.4991  0.5197
   90MOL   H31928977   4.036   6.258   1.181  0.5712  0.5434 -0.0845
   90MOL   H32028978   4.005   5.873   1.239  1.4370  0.3386 -0.5161
   90MOL   H32128979   3.915   6.016   1.169 -0.4112 -3.2274 -1.0606
   90MOL   H32228980   4.238   5.903   1.319  1.1018  0.0640  0.9897
   91MOL     C128981   6.243   6.524   7.735 -0.0570  0.1046 -0.0438
   91MOL     C228982   6.364   6.460   7.789  0.3538 -0.3678 -0.0316
   91MOL     C328983   6.218   6.493   7.582  0.1711 -0.4875  0.6939
   91MOL     C428984   6.339   6.537   7.498 -0.3606  0.4234 -0.4780
   91MOL     C528985   6.382   6.436   7.392 -0.2744 -0.8099  0.2883
   91MOL     C628986   6.421   6.645   7.515  0.3878  0.0113  0.1006
   91MOL     H728987   6.155   6.487   7.789  0.5393 -1.9834 -0.4414
   91MOL     H828988   6.350   6.359   7.752 -2.5928  0.4130 -1.1705
   91MOL     H928989   6.349   6.461   0.005  0.6974 -2.8200  0.0731
   91MOL    H1028990   6.461   6.499   7.758  1.4853  0.2807  3.9732
   91MOL    H1128991   6.216   6.384   7.582 -0.9215 -0.4707  1.7627
   91MOL    H1228992   6.295   6.412   7.330  0.7032 -0.8048 -1.1076
   91MOL    H1328993   6.397   6.342   7.446 -0.4185  0.2584  2.2132
   91MOL    H1428994   6.470   6.459   7.331 -0.9470  2.1436  0.3933
   91MOL    H1528995   6.408   6.719   7.593  1.8118 -1.5296  1.8362
   91MOL    H1628996   6.510   6.651   7.455 -0.1520 -2.0035 -0.9582
   91MOL    H1728997   6.247   6.631   7.756 -0.6756 -0.3472  2.5235
   91MOL    C1828998   6.085   6.550   7.527 -0.1179 -0.1416  0.7114
   91MOL    C1928999   6.080   6.698   7.542  0.0628 -0.1857  0.1115
   91MOL    C2029000   5.964   6.463   7.581 -0.5163  0.1656 -0.5953
   91MOL    C2129001   5.976   6.313   7.553  0.0445  0.2708 -0.6275
   91MOL    C2229002   5.911   6.217   7.658  0.1667  0.5004 -0.1134
   91MOL    C2329003   6.010   6.257   7.439  0.3175 -1.2270  0.0224
   91MOL    H2429004   6.088   6.532   7.419  0.9979  0.1947  0.6850
   91MOL    H2529005   6.078   6.718   7.649  0.1891  0.1130  0.0571
   91MOL    H2629006   5.991   6.750   7.504  1.2955  0.3893 -2.0868
   91MOL    H2729007   6.163   6.756   7.503  0.2725 -0.1466  0.6224
   91MOL    H2829008   5.971   6.447   7.688 -2.1230  0.6794 -0.4097
   91MOL    H2929009   5.805   6.240   7.659  0.1220  0.2812  0.1619
   91MOL    H3029010   5.940   6.238   7.761 -0.4962 -2.5102  0.7284
   91MOL    H3129011   5.927   6.111   7.638 -0.5435  0.2239  0.7718
   91MOL    H3229012   6.037   6.315   7.352  1.9416 -1.1851  0.5309
   91MOL    H3329013   6.022   6.151   7.427 -2.2575 -1.3956 -1.2694
   91MOL    C3429014   5.822   6.509   7.548  0.4425 -0.0050 -0.0511
   91MOL    C3529015   5.799   6.526   7.399  0.0460  0.1131 -0.4966
   91MOL    C3629016   5.765   6.624   7.646 -0.1733  0.0243  0.9157
   91MOL    C3729017   5.805   6.609   7.794  0.9736  0.2397  0.2826
   91MOL    C3829018   5.733   6.490   7.870  0.2795 -0.3732  0.1522
   91MOL    C3929019   5.881   6.696   7.854 -0.2381 -0.0846 -0.2249
   91MOL    H4029020   5.757   6.426   7.575  2.1291 -0.7425  1.8365
   91MOL    H4129021   5.848   6.447   7.342 -0.1062 -0.0579 -0.3894
   91MOL    H4229022   5.836   6.623   7.365 -1.5814  1.7247  2.1059
   91MOL    H4329023   5.695   6.522   7.367  0.3406 -1.0132 -1.3365
   91MOL    H4429024   5.820   6.709   7.606  0.9591 -0.7826  0.7285
   91MOL    H4529025   5.726   6.388   7.833  0.5962 -1.1552  2.2485
   91MOL    H4629026   5.632   6.523   0.003  0.6593  0.7484  0.2531
   91MOL    H4729027   5.785   6.478   0.072  4.7976 -0.0449 -2.1588
   91MOL    H4829028   5.922   6.782   7.803 -0.1932  0.2694  0.4019
   91MOL    H4929029   5.907   6.688   0.066  0.9477 -1.1936 -0.5879
   91MOL    C5029030   5.620   6.671   7.630 -0.2377  0.3733  0.2554
   91MOL    C5129031   5.526   6.549   7.614 -0.1119 -0.5448 -0.2815
   91MOL    C5229032   5.594   6.795   7.535 -0.2545 -0.1140  0.3810
   91MOL    C5329033   5.695   6.914   7.553 -0.0364  0.1550  0.5416
   91MOL    C5429034   5.755   6.973   7.425 -0.0678  0.0425 -0.0175
   91MOL    C5529035   5.734   6.950   7.675  0.0250 -0.1558 -0.3896
   91MOL    H5629036   5.588   6.709   7.727 -0.7587  1.0618 -0.1798
   91MOL    H5729037   5.425   6.577   7.643 -0.4687  0.7373 -2.6582
   91MOL    H5829038   5.550   6.456   7.666 -0.1369  0.2568  1.2160
   91MOL    H5929039   5.512   6.530   7.508  3.7848 -1.1592 -0.7679
   91MOL    H6029040   5.621   6.762   7.435  0.1373  1.5999 -0.0879
   91MOL    H6129041   5.683   7.038   7.375 -1.2248 -1.3167 -0.1745
   91MOL    H6229042   5.787   6.894   7.358  1.1312 -0.5731  1.2645
   91MOL    H6329043   5.843   7.023   7.464 -0.3421 -0.8819  1.8514
   91MOL    H6429044   5.704   6.905   7.769  1.6280 -1.6041 -0.5461
   91MOL    H6529045   5.806   7.030   7.678  2.4638 -2.2513 -0.5541
   91MOL    C6629046   5.443   6.839   7.533 -0.2949  0.4526  0.3061
   91MOL    C6729047   5.393   6.860   7.678  0.6317 -0.8093 -0.2715
   91MOL    C6829048   5.349   6.763   7.437 -0.3505  0.5764 -0.2215
   91MOL    C6929049   5.410   6.744   7.296  0.2021  0.4580 -0.1353
   91MOL    C7029050   5.387   6.610   7.241 -0.1231  0.5407 -0.0172
   91MOL    C7129051   5.480   6.836   7.224  0.0986  0.2133  0.1629
   91MOL    H7229052   5.445   6.938   7.486 -0.4195  0.2198 -0.1845
   91MOL    H7329053   5.292   6.899   7.688  0.0556 -3.0196  2.9605
   91MOL    H7429054   5.462   6.925   7.732 -0.5112 -0.9709  1.4200
   91MOL    H7529055   5.382   6.778   7.748  0.0203 -1.3757 -1.0255
   91MOL    H7629056   5.337   6.665   7.483  0.2811  0.3188 -0.6060
   91MOL    H7729057   5.303   6.584   7.176 -0.4810  0.4086  0.4878
   91MOL    H7829058   5.391   6.534   7.319 -1.1075  0.2382 -0.2561
   91MOL    H7929059   5.471   6.573   7.183 -0.1100  0.9255 -0.2412
   91MOL    H8029060   5.503   6.937   7.254  0.0583  0.2785 -0.0240
   91MOL    H8129061   5.512   6.809   7.124 -0.9201  1.5218 -0.5389
   91MOL    C8229062   5.197   6.812   7.412  0.8410  0.5280  0.7025
   91MOL    C8329063   5.202   6.970   7.394 -0.5234  1.0355  0.1888
   91MOL    C8429064   5.091   6.758   7.517  0.1058 -0.3158  0.0854
   91MOL    C8529065   5.097   6.605   7.534 -0.1577  0.4133 -0.1238
   91MOL    C8629066   5.107   6.551   7.674  0.2550 -0.5119 -0.0186
   91MOL    C8729067   5.101   6.521   7.426 -0.3247 -0.0150 -0.6331
   91MOL    H8829068   5.171   6.771   7.315  1.5378  1.5956  0.0419
   91MOL    H8929069   5.108   6.995   7.345 -0.0126 -1.2540 -2.0955
   91MOL    H9029070   5.281   7.002   7.325  0.6863  1.6747  1.8363
   91MOL    H9129071   5.237   7.025   7.481  0.6727  1.0094 -0.2623
   91MOL    H9229072   5.116   6.801   7.613 -0.3724  1.8393 -0.7210
   91MOL    H9329073   5.133   6.445   7.670 -2.8076 -1.2994 -0.9814
   91MOL    H9429074   5.015   6.552   7.732  2.4132 -0.8738  3.5038
   91MOL    H9529075   5.169   6.608   7.742 -1.6351  0.1282  1.2080
   91MOL    H9629076   5.091   6.545   7.322 -0.5046  0.7879 -0.4365
   91MOL    H9729077   5.118   6.414   7.435 -1.3892 -0.2131 -0.9169
   91MOL    C9829078   4.943   6.802   7.496  0.5247  0.4904 -0.1780
   91MOL    C9929079   4.910   6.782   7.350 -0.0778 -0.3234 -0.0776
   91MOL   C10029080   4.902   6.938   7.567 -0.5939 -0.4775  0.3360
   91MOL   C10129081   4.890   6.931   7.717  0.0058  0.9151  0.4552
   91MOL   C10229082   4.947   7.042   7.799 -0.0328  0.1395  0.7916
   91MOL   C10329083   4.840   6.822   7.777 -0.1756  0.2585  0.4632
   91MOL   H10429084   4.891   6.720   7.546 -0.1458  1.0280  0.0062
   91MOL   H10529085   4.952   6.696   7.298  1.6870  0.5202 -0.0830
   91MOL   H10629086   4.941   6.870   7.292 -0.0822  0.6662  1.4068
   91MOL   H10729087   4.805   6.755   7.343 -0.0874 -0.1459 -0.6444
   91MOL   H10829088   4.977   7.015   7.547 -0.8854  0.1453  1.6327
   91MOL   H10929089   4.929   7.139   7.751 -0.2984 -0.5204 -0.4707
   91MOL   H11029090   5.055   7.037   7.790  0.1835  2.7953  1.2790
   91MOL   H11129091   4.923   7.038   0.013  1.9697 -3.6514  1.1678
   91MOL   H11229092   4.799   6.733   7.730  0.4578  1.0624 -1.6739
   91MOL   H11329093   4.853   6.813   7.884 -0.2645 -0.1312  0.4442
   91MOL   C11429094   4.756   6.995   7.530  0.2047  0.6627 -0.4970
   91MOL   C11529095   4.647   6.884   7.513 -0.3816  0.5180  0.5984
   91MOL   C11629096   4.772   7.089   7.405  0.1075  0.3720 -0.5223
   91MOL   C11729097   4.861   7.211   7.433  0.9532  0.4625 -0.0158
   91MOL   C11829098   4.821   7.309   7.537 -0.2392  0.3629  0.1446
   91MOL   C11929099   4.971   7.241   7.358 -0.0760 -0.2027  0.5216
   91MOL   H12029100   4.712   7.062   7.604  0.2488  0.2453 -0.0882
   91MOL   H12129101   4.643   6.817   7.599  1.3252  0.0667  0.3431
   91MOL   H12229102   4.644   6.833   7.417  1.2696 -2.2619  1.9691
   91MOL   H12329103   4.549   6.928   7.531  0.3308  1.8148  1.4302
   91MOL   H12429104   4.841   7.038   7.338  1.0542 -0.4443  1.0331
   91MOL   H12529105   4.774   7.257   7.621  2.6906 -1.9340  0.4316
   91MOL   H12629106   4.750   7.379   7.495  0.1908  1.1566  0.7284
   91MOL   H12729107   4.907   7.365   7.574 -0.0491 -0.7586  1.4670
   91MOL   H12829108   4.994   7.179   7.273  1.8589  1.7291 -0.4063
   91MOL   H12929109   5.035   7.324   7.385  1.0481 -1.3441  1.3970
   91MOL   C13029110   4.647   7.148   7.336  0.3247  0.2095 -0.1262
   91MOL   C13129111   4.530   7.193   7.429  0.1624  0.1190 -0.2662
   91MOL   C13229112   4.601   7.062   7.216 -0.3101  0.1800  0.7613
   91MOL   C13329113   4.717   7.024   7.119  0.1833  0.1219 -0.4039
   91MOL   C13429114   4.788   7.121   7.030 -0.3071 -0.6278  0.3144
   91MOL   C13529115   4.746   6.896   7.098  0.9501 -0.3481  0.5039
   91MOL   H13629116   4.676   7.243   7.291  1.9864 -1.6889 -3.2667
   91MOL   H13729117   4.565   7.249   7.516  0.1469  1.1448 -0.9189
   91MOL   H13829118   4.459   7.111   7.444  1.8976 -1.3623  0.0998
   91MOL   H13929119   4.474   7.276   7.387 -0.0977 -0.4448 -1.0408
   91MOL   H14029120   4.564   6.965   7.250 -0.0844 -0.9522 -2.0874
   91MOL   H14129121   4.725   7.160   6.950  0.9129  3.4899  1.2368
   91MOL   H14229122   4.875   7.072   6.986  0.6973  0.1467  1.4122
   91MOL   H14329123   4.821   7.202   7.094 -1.0886  0.7271 -0.9726
   91MOL   H14429124   4.688   6.819   7.147  0.5121  0.1287  0.7352
   91MOL   H14529125   4.830   6.854   7.044  1.0569 -0.6757  0.9196
   91MOL   C14629126   4.480   7.101   7.129 -0.1145 -0.1513 -0.0406
   91MOL   C14729127   4.481   7.252   7.089  0.1941  0.2607 -0.6978
   91MOL   C14829128   4.337   7.067   7.180 -0.2011  1.5835  0.5647
   91MOL   C14929129   4.325   6.922   7.236  0.8805  0.6002 -0.0087
   91MOL   C15029130   4.341   6.811   7.138 -0.4013 -0.3856  0.0531
   91MOL   C15129131   4.307   6.899   7.372  0.6467  0.1812 -0.7028
   91MOL   H15229132   4.486   7.041   7.038  1.6182 -0.3978  0.2171
   91MOL   H15329133   4.427   7.311   7.164  1.0755  0.9847 -0.6187
   91MOL   H15429134   4.419   7.267   7.000  0.5604 -0.0309 -1.0022
   91MOL   H15529135   4.580   7.296   7.084 -0.5854  2.2807  0.8971
   91MOL   H15629136   4.315   7.146   7.252 -1.3960  0.3501  1.5961
   91MOL   H15729137   4.245   6.795   7.089 -2.3069  1.5701  3.0000
   91MOL   H15829138   4.367   6.722   7.195 -0.1904  0.6285  1.5668
   91MOL   H15929139   4.427   6.837   7.076  0.9624 -1.8151  1.2933
   91MOL   H16029140   4.302   6.977   7.446  1.8466 -0.5236  0.1546
   91MOL   H16129141   4.288   6.797   7.403 -0.1013  0.2274 -1.0001
   91MOL   C16229142   4.211   7.079   7.074 -0.1102 -0.0077 -0.1114
   91MOL   C16329143   4.259   7.047   6.927  0.1062  0.5314  0.3637
   91MOL   C16429144   4.135   7.218   7.084  0.0651 -0.7269  0.4509
   91MOL   C16529145   4.086   7.250   7.225  0.3022  0.2607  0.2049
   91MOL   C16629146   4.065   7.391   7.271  0.4185 -0.2010 -0.2844
   91MOL   C16729147   4.048   7.148   7.310  0.1856  0.3453  0.5431
   91MOL   H16829148   4.153   6.992   7.104  0.9640 -1.1681 -1.3052
   91MOL   H16929149   4.316   6.954   6.929  0.0891  0.4902 -0.8134
   91MOL   H17029150   4.321   7.127   6.887 -1.4716  1.2071 -0.7584
   91MOL   H17129151   4.180   7.029   6.855  1.0768  0.4174 -0.6800
   91MOL   H17229152   4.217   7.290   7.079  0.9871 -1.7411  0.4635
   91MOL   H17329153   4.002   7.441   7.197 -0.8495 -2.6589 -0.9141
   91MOL   H17429154   4.165   7.436   7.267  0.1211  0.5385  0.4823
   91MOL   H17529155   4.018   7.407   7.368  2.7440  2.6843  0.4503
   91MOL   H17629156   4.063   7.043   7.290  1.9477  0.6001  0.4196
   91MOL   H17729157   4.012   7.166   7.410 -0.7863  0.7291  0.1351
   91MOL   C17829158   4.019   7.261   6.982 -0.6225 -0.2681  0.6365
   91MOL   C17929159   3.910   7.155   6.977 -0.4913  0.0755 -0.3510
   91MOL   C18029160   4.081   7.311   6.844  0.1029 -0.0144 -0.4022
   91MOL   C18129161   4.194   7.411   6.849 -0.2297 -0.2908 -0.0909
   91MOL   C18229162   4.308   7.391   6.748 -0.1429  0.2630  0.2320
   91MOL   C18329163   4.210   7.510   6.943  0.1179 -0.2320 -0.0718
   91MOL   H18429164   3.964   7.343   7.026 -0.0144  0.7816 -0.5377
   91MOL   H18529165   3.865   7.151   7.076 -0.5822  2.3283 -0.2910
   91MOL   H18629166   3.947   7.054   6.958 -3.1691 -1.5535  2.5477
   91MOL   H18729167   3.826   7.181   6.913 -2.7469 -0.3035  2.3640
   91MOL   H18829168   4.128   7.221   6.802  1.8248  0.1358  1.1514
   91MOL   H18929169   4.381   7.471   6.765 -1.1234  0.7066  2.5053
   91MOL   H19029170   4.272   7.410   6.647 -2.2872  1.0196  1.1162
   91MOL   H19129171   4.361   7.302   6.782 -1.5830 -1.7416 -2.6378
   91MOL   H19229172   4.137   7.527   7.021 -0.0647  0.0860 -0.3115
   91MOL   H19329173   4.300   7.570   6.944 -0.6298  0.8982  1.2187
   91MOL   C19429174   3.974   7.351   6.727 -0.3473 -0.0446  1.1805
   91MOL   C19529175   3.873   7.462   6.775  0.1198 -0.2953  0.5217
   91MOL   C19629176   3.904   7.238   6.644  0.3607 -0.2908 -0.4699
   91MOL   C19729177   3.999   7.113   6.636 -0.1628 -0.1590  0.1559
   91MOL   C19829178   4.125   7.131   6.548 -0.1147 -0.6685 -0.8357
   91MOL   C19929179   3.967   6.998   6.690  0.1253 -0.0102 -0.6019
   91MOL   H20029180   4.040   7.409   6.662 -1.9922 -1.5664 -1.9417
   91MOL   H20129181   3.823   7.493   6.683  1.3897 -1.7302 -0.6735
   91MOL   H20229182   3.914   7.548   6.827 -0.3046 -1.0186  2.0844
   91MOL   H20329183   3.792   7.411   6.826 -1.6729  1.0062 -0.9633
   91MOL   H20429184   3.821   7.210   6.710  0.2161 -0.0780 -0.5626
   91MOL   H20529185   4.190   7.208   6.589 -0.2664 -0.5785 -0.7616
   91MOL   H20629186   4.107   7.144   6.442 -1.0582 -0.0508 -0.6138
   91MOL   H20729187   4.190   7.046   6.569 -0.3385 -0.2668  1.6371
   91MOL   H20829188   3.874   6.991   6.744  1.2598 -1.3828  1.2429
   91MOL   H20929189   4.030   6.910   6.689  0.7563  0.4417 -1.0348
   91MOL   C21029190   3.841   7.266   6.500  0.0483 -0.2227 -0.4905
   91MOL   C21129191   3.909   7.376   6.430  0.6025  0.2382 -0.1906
   91MOL   C21229192   3.690   7.285   6.507  0.9537 -0.1102  0.0548
   91MOL   C21329193   3.618   7.161   6.564  0.1312  0.6154  0.0146
   91MOL   C21429194   3.520   7.188   6.675  0.7798 -0.2541 -0.2031
   91MOL   C21529195   3.656   7.033   6.530 -0.4633 -0.6952 -0.5726
   91MOL   H21629196   3.847   7.178   6.435 -0.1714 -2.1822  2.0515
   91MOL   H21729197   3.903   7.475   6.475 -0.0756 -1.1074  2.7566
   91MOL   H21829198   3.877   7.385   6.326  0.3992  1.9074 -0.0080
   91MOL   H21929199   4.016   7.356   6.420  0.3701 -1.2045  0.1205
   91MOL   H22029200   3.667   7.356   6.586 -0.8668  0.0074 -0.5507
   91MOL   H22129201   3.573   7.230   6.761  3.0795  0.4898 -1.9341
   91MOL   H22229202   3.484   7.090   6.706  0.4454  0.0041  0.2281
   91MOL   H22329203   3.444   7.263   6.655  0.1831 -0.5664  0.8380
   91MOL   H22429204   3.734   7.011   6.459  0.0358  2.9669 -1.2572
   91MOL   H22529205   3.609   6.945   6.573 -2.5328  0.9427  0.6385
   91MOL   C22629206   3.607   7.342   6.387 -0.4163  0.6400 -0.3277
   91MOL   C22729207   3.643   7.265   6.256 -0.3047  0.5875  0.2248
   91MOL   C22829208   3.613   7.501   6.367 -0.0438  0.4719  0.1707
   91MOL   C22929209   3.579   7.586   6.490  0.3800  0.2108 -0.7772
   91MOL   C23029210   3.654   7.708   6.508  0.4689 -0.5277 -0.7528
   91MOL   C23129211   3.490   7.545   6.580 -0.3833  0.0706 -0.4132
   91MOL   H23229212   3.502   7.322   6.410  0.1498  1.1280  2.9756
   91MOL   H23329213   3.577   7.275   6.170 -0.0109 -0.4314 -0.1304
   91MOL   H23429214   3.654   7.161   6.288 -0.1020  0.7612  0.7328
   91MOL   H23529215   3.738   7.299   6.216 -0.6692  1.1122 -0.2047
   91MOL   H23629216   3.719   7.526   6.362 -0.1318  0.9570  0.6840
   91MOL   H23729217   3.760   7.684   6.502  0.5547 -0.6213  0.9133
   91MOL   H23829218   3.629   7.754   6.604  0.2795 -2.0649 -0.0425
   91MOL   H23929219   3.638   7.765   6.417  0.4430 -1.7831 -1.5339
   91MOL   H24029220   3.430   7.457   6.565  0.6036 -0.9219  1.3501
   91MOL   H24129221   3.463   7.608   6.664  1.9921 -0.9360  1.1579
   91MOL   C24229222   3.545   7.571   6.245 -0.0984 -0.4089 -0.1267
   91MOL   C24329223   3.391   7.525   6.244 -0.0985  0.0033 -0.3721
   91MOL   C24429224   3.619   7.564   6.103 -0.5419  0.2528  0.1874
   91MOL   C24529225   3.775   7.568   6.114  1.1680  0.4933  0.5238
   91MOL   C24629226   3.845   7.469   6.020  0.2186 -0.5779 -0.2731
   91MOL   C24729227   3.839   7.661   6.190  0.4655 -0.2482  0.4723
   91MOL   H24829228   3.545   7.678   6.263 -2.3771 -0.0962 -1.7058
   91MOL   H24929229   3.323   7.601   6.204  0.5253  0.3909 -0.6991
   91MOL   H25029230   3.360   7.516   6.348 -1.3136  1.5542 -0.5871
   91MOL   H25129231   3.381   7.422   6.209  1.4614 -0.3402  0.1694
   91MOL   H25229232   3.594   7.466   6.063 -0.4776  0.2142  0.2435
   91MOL   H25329233   3.851   7.524   5.926  0.8181  0.0688  0.1398
   91MOL   H25429234   3.795   7.372   6.019 -2.3218  0.7014 -0.5406
   91MOL   H25529235   3.945   7.448   6.059 -0.6336 -2.0708  1.1438
   91MOL   H25629236   3.800   7.721   6.271  1.8511  0.1838  0.8403
   91MOL   H25729237   3.947   7.666   6.187  0.4306  1.1100  1.2335
   91MOL   C25829238   3.568   7.664   5.994 -0.1986  0.1495 -0.3956
   91MOL   C25929239   3.541   7.807   6.048 -0.4870  0.6843 -0.5269
   91MOL   C26029240   3.455   7.600   5.902 -0.0596 -0.2042  0.1896
   91MOL   C26129241   3.477   7.456   5.856  0.6051  0.0539  0.2101
   91MOL   C26229242   3.579   7.439   5.748 -0.7430  0.1539 -0.2550
   91MOL   C26329243   3.402   7.353   5.900 -0.6636 -0.0969 -0.7847
   91MOL   H26429244   3.647   7.684   5.922  1.6358  1.8612  2.0030
   91MOL   H26529245   3.516   7.879   5.970 -1.1487  0.6271 -0.3690
   91MOL   H26629246   3.611   7.856   6.115 -0.5825  0.0315  0.0568
   91MOL   H26729247   3.448   7.803   6.104 -0.3963 -1.4656 -0.4827
   91MOL   H26829248   3.386   7.593   5.986  1.2001  1.0440  1.3567
   91MOL   H26929249   3.681   7.465   5.778 -0.7776  0.9966 -0.8625
   91MOL   H27029250   3.573   7.506   5.662  4.6118 -1.0688 -1.7414
   91MOL   H27129251   3.584   7.338   5.709  2.1169  0.2759 -0.3442
   91MOL   H27229252   3.327   7.370   5.976  0.1403 -0.1503  0.0363
   91MOL   H27329253   3.425   7.255   5.861  0.2397 -1.0758  2.0597
   91MOL   C27429254   3.394   7.686   5.783  0.3813  0.1651 -0.7727
   91MOL   C27529255   3.495   7.776   5.703  0.4222 -0.8871  0.1643
   91MOL   C27629256   3.268   7.763   5.826  0.6750 -0.4517  0.2730
   91MOL   C27729257   3.161   7.660   5.869  0.3087  0.1556 -0.2552
   91MOL   C27829258   3.076   7.698   5.983 -0.4629 -0.8056 -0.3961
   91MOL   C27929259   3.149   7.540   5.821  0.1005 -0.0373  0.2855
   91MOL   H28029260   3.362   7.616   5.707  1.3306 -1.1749  0.0450
   91MOL   H28129261   3.597   7.741   5.715  0.4300 -0.9623 -0.1152
   91MOL   H28229262   3.500   7.872   5.754  2.8115  0.1499 -1.9474
   91MOL   H28329263   3.474   7.787   5.597  3.1837  1.5093 -0.1981
   91MOL   H28429264   3.290   7.819   5.917 -0.4119  1.7337 -0.7519
   91MOL   H28529265   3.132   7.741   6.066 -4.1627 -0.7479  2.2367
   91MOL   H28629266   3.027   7.615   6.034  2.0190 -1.8657  0.3433
   91MOL   H28729267   2.996   7.767   5.955  1.0389  1.8187  1.5924
   91MOL   H28829268   3.207   7.493   5.743 -0.0763  0.7916 -0.3433
   91MOL   H28929269   3.069   7.475   5.853 -0.0273  0.3324  0.7196
   91MOL   C29029270   3.193   7.851   5.718  0.2580  0.5127 -0.1571
   91MOL   C29129271   3.180   7.788   5.580 -0.2944  0.0141  0.2874
   91MOL   C29229272   3.220   0.109   5.717 -0.1713  0.3795 -0.3040
   91MOL   C29329273   3.235   0.177   5.855  0.1759  0.0916 -0.0953
   91MOL   C29429274   3.115   0.199   5.948  0.5793 -0.7263 -0.5105
   91MOL   C29529275   3.357   0.225   5.897 -0.0074 -0.9580  0.6492
   91MOL   H29629276   3.091   7.869   5.753 -0.2036 -0.4791 -0.9806
   91MOL   H29729277   3.275   7.776   5.529 -0.3865  1.9452 -0.3731
   91MOL   H29829278   3.115   7.844   5.512  0.5347  0.5956 -0.0348
   91MOL   H29929279   3.133   7.690   5.589  1.2737 -0.8025 -0.3191
   91MOL   H30029280   3.323   0.122   5.682 -1.2262  1.3429 -3.2226
   91MOL   H30129281   3.084   0.102   5.989  0.9314 -1.2939 -1.5686
   91MOL   H30229282   3.030   0.241   5.895 -0.0298  1.9225  2.4133
   91MOL   H30329283   3.140   0.261   6.034 -2.2759  0.9130 -0.8051
   91MOL   H30429284   3.445   0.220   5.834  1.0144 -0.4752  2.0230
   91MOL   H30529285   3.369   0.275   5.992  2.3879 -0.2363  0.0006
   91MOL   C30629286   3.131   0.200   5.620  0.6379  0.0809  0.1474
   91MOL   C30729287   2.986   0.162   5.607 -0.2728 -0.3231  0.3574
   91MOL   C30829288   3.199   0.234   5.487 -0.3394  0.5920 -0.1976
   91MOL   C30929289   3.331   0.313   5.499  0.1698  0.3149 -0.6699
   91MOL   C31029290   3.337   0.443   5.577 -0.6114 -0.9864 -0.3829
   91MOL   C31129291   3.440   0.272   5.440 -0.2181  0.4330 -0.1766
   91MOL   H31229292   3.124   0.295   5.673  1.3353 -0.2494  0.8468
   91MOL   H31329293   2.924   0.186   5.693 -1.2112 -1.0329 -0.1163
   91MOL   H31429294   2.965   0.055   5.603  1.4413 -0.7002  0.8350
   91MOL   H31529295   2.941   0.218   5.525 -0.5480 -0.8863  0.1222
   91MOL   H31629296   3.214   0.143   5.429  2.1822  1.1431 -0.4910
   91MOL   H31729297   3.344   0.440   5.686  3.0137  0.3613 -0.5162
   91MOL   H31829298   3.259   0.511   5.543 -0.6679 -2.5845 -3.6010
   91MOL   H31929299   3.430   0.493   5.551 -0.7338 -0.4413  0.2076
   91MOL   H32029300   3.436   0.179   5.386  1.4704  0.4264 -0.3325
   91MOL   H32129301   3.533   0.326   5.432  0.3506 -0.0058  2.7416
   91MOL   H32229302   3.133   0.298   5.429  0.5683  2.2830  0.5908
   92MOL     C129303   2.373   2.324   2.283 -0.1697  0.0345  0.6313
   92MOL     C229304   2.306   2.190   2.293 -0.3735  0.4409  0.0128
   92MOL     C329305   2.531   2.318   2.292 -0.3889  0.0102 -0.4214
   92MOL     C429306   2.579   2.283   2.438  0.1867  0.4043 -0.1130
   92MOL     C529307   2.564   2.386   2.550 -0.2920  0.2803  0.6415
   92MOL     C629308   2.639   2.168   2.463  0.0057  0.5765 -0.0639
   92MOL     H729309   2.334   2.366   2.190  1.0121  0.0939  0.1477
   92MOL     H829310   2.197   2.197   2.281 -0.3583 -0.6109 -0.8513
   92MOL     H929311   2.317   2.159   2.397 -1.6567  1.0786  0.3545
   92MOL    H1029312   2.340   2.116   2.220 -1.9904 -1.0439  0.7253
   92MOL    H1129313   2.563   2.244   2.219  0.4461  0.5772 -0.6437
   92MOL    H1229314   2.566   2.344   2.651 -1.1811 -4.0309 -1.0027
   92MOL    H1329315   2.464   2.427   2.537 -1.6891 -2.8343  1.0712
   92MOL    H1429316   2.642   2.460   2.532 -1.3637  1.1922 -0.3596
   92MOL    H1529317   2.648   2.086   2.392 -1.1457  1.7614 -1.6205
   92MOL    H1629318   2.673   2.147   2.563 -0.3113 -3.2712 -0.6618
   92MOL    H1729319   2.319   2.391   2.350 -0.6068 -2.0097  2.3775
   92MOL    C1829320   2.589   2.447   2.231 -0.0754  0.0044  0.4741
   92MOL    C1929321   2.517   2.576   2.266 -0.2682 -0.3583  0.5542
   92MOL    C2029322   2.622   2.427   2.079  0.4684 -0.0887 -0.6382
   92MOL    C2129323   2.505   2.377   1.989  0.9427 -0.0103 -0.1338
   92MOL    C2229324   2.416   2.484   1.924  0.2386  0.3023 -0.2038
   92MOL    C2329325   2.477   2.247   1.971 -0.0253  0.4312 -0.2866
   92MOL    H2429326   2.685   2.461   2.281  0.2225  1.6247 -0.5216
   92MOL    H2529327   2.414   2.582   2.230  0.6678  1.1906 -2.0271
   92MOL    H2629328   2.571   2.662   2.225  0.9167 -1.1985  0.3242
   92MOL    H2729329   2.507   2.592   2.373  1.4182  0.5661  0.6001
   92MOL    H2829330   2.629   2.527   2.036  3.0506  0.4962  0.9900
   92MOL    H2929331   2.482   2.550   1.868 -0.2445 -0.3936 -1.6177
   92MOL    H3029332   2.357   2.545   1.992  1.6985 -0.1775  1.5327
   92MOL    H3129333   2.348   2.433   1.856  0.9741 -0.5063 -0.3454
   92MOL    H3229334   2.532   2.170   2.025  0.0071 -0.1005 -1.0635
   92MOL    H3329335   2.402   2.205   1.906 -1.1947  0.8449  0.7895
   92MOL    C3429336   2.763   2.353   2.043  0.9979 -0.5656  0.1280
   92MOL    C3529337   2.875   2.357   2.152  0.2549 -0.6471 -0.2210
   92MOL    C3629338   2.814   2.385   1.898 -0.8607  0.1770  0.6629
   92MOL    C3729339   2.884   2.256   1.845 -0.2930 -0.1624  0.1656
   92MOL    C3829340   2.791   2.156   1.785  0.4131  0.6278  0.3156
   92MOL    C3929341   3.017   2.226   1.850 -0.0590  0.0269 -0.1565
   92MOL    H4029342   2.735   2.248   2.037 -0.4280 -0.1607 -0.5890
   92MOL    H4129343   2.924   2.453   2.167 -1.2369  0.6590 -3.3629
   92MOL    H4229344   2.958   2.292   2.125  1.0543  1.3858 -2.8359
   92MOL    H4329345   2.847   2.315   2.249  0.5131 -1.8915 -0.6722
   92MOL    H4429346   2.729   2.402   1.832  0.6497  2.7008 -0.7273
   92MOL    H4529347   2.704   2.139   1.849 -0.4118  0.4538 -0.8331
   92MOL    H4629348   2.829   2.058   1.756  0.5180  0.5286  0.7794
   92MOL    H4729349   2.747   2.212   1.702  1.3660 -0.3210 -0.8481
   92MOL    H4829350   3.092   2.281   1.905 -0.7111 -0.1535  0.9273
   92MOL    H4929351   3.061   2.139   1.802  0.9652  0.6205 -0.3214
   92MOL    C5029352   2.894   2.519   1.874  0.1319  0.2150  0.0255
   92MOL    C5129353   2.850   2.646   1.951  0.4857  0.1476  0.1345
   92MOL    C5229354   2.937   2.550   1.729  0.4642 -0.2188  0.1976
   92MOL    C5329355   3.075   2.608   1.742 -0.2987 -1.2325  0.0538
   92MOL    C5429356   3.191   2.508   1.765  0.1970 -0.2259 -0.2811
   92MOL    C5529357   3.107   2.737   1.712 -0.3451  0.3636 -0.8165
   92MOL    H5629358   2.982   2.494   1.934 -0.2832  2.3678  1.6006
   92MOL    H5729359   2.922   2.728   1.950 -1.0455  1.5478  1.5200
   92MOL    H5829360   2.846   2.616   2.055  0.1124  2.1259  0.7145
   92MOL    H5929361   2.761   2.685   1.902  0.3381 -1.8965 -1.2745
   92MOL    H6029362   2.958   2.452   1.687 -1.0899 -1.3405  1.9500
   92MOL    H6129363   3.172   2.419   1.704  0.3079  0.5292 -1.4314
   92MOL    H6229364   3.206   2.477   1.868 -0.5085 -0.5718 -0.2735
   92MOL    H6329365   3.285   2.552   1.733  1.5476 -2.2442  0.8561
   92MOL    H6429366   3.033   2.813   1.688  1.5766  2.0151 -1.6520
   92MOL    H6529367   3.210   2.769   1.720  0.4863 -1.2471 -4.2598
   92MOL    C6629368   2.833   2.618   1.632 -0.6447  0.6533  0.0962
   92MOL    C6729369   2.682   2.585   1.655  0.2320 -1.2688  0.4006
   92MOL    C6829370   2.880   2.618   1.482 -0.4951  0.9433 -0.0687
   92MOL    C6929371   2.851   2.760   1.420 -0.1904 -0.3321 -0.0571
   92MOL    C7029372   2.711   2.793   1.373  0.1990 -0.0589 -0.2252
   92MOL    C7129373   2.953   2.848   1.406  0.5745  0.2538 -0.2488
   92MOL    H7229374   2.838   2.722   1.662  2.8959  0.3076  0.8510
   92MOL    H7329375   2.624   2.631   1.575 -0.9847 -0.4726  1.7212
   92MOL    H7429376   2.633   2.631   1.741  4.0878  0.5532  1.7372
   92MOL    H7529377   2.649   2.482   1.645 -1.6351 -0.7269  0.6893
   92MOL    H7629378   2.988   2.623   1.487 -0.5076 -0.0452  1.6328
   92MOL    H7729379   2.641   2.815   1.454  0.0429  2.4929 -1.0087
   92MOL    H7829380   2.663   2.706   1.327 -1.3905  0.0249  1.2590
   92MOL    H7929381   2.707   2.876   1.303 -1.9936  0.3912  0.3870
   92MOL    H8029382   3.053   2.825   1.439  0.4326  1.6944  1.2723
   92MOL    H8129383   2.929   2.943   1.361  1.1929  0.1866 -0.7219
   92MOL    C8229384   2.846   2.495   1.398  0.2656  0.3354  0.5332
   92MOL    C8329385   2.860   2.357   1.469  0.2098  1.2159 -0.1198
   92MOL    C8429386   2.913   2.506   1.243  0.3623  0.3150 -0.0055
   92MOL    C8529387   2.807   2.501   1.138  0.1329 -0.0342 -0.0435
   92MOL    C8629388   2.818   2.602   1.022 -0.2342  0.2283  0.1331
   92MOL    C8729389   2.698   2.417   1.148  0.0861 -0.2141  0.1319
   92MOL    H8829390   2.739   2.508   1.386 -0.0246 -1.6807  0.7870
   92MOL    H8929391   2.829   2.273   1.407 -0.4889  1.7845 -0.5443
   92MOL    H9029392   2.800   2.355   1.560 -0.4785 -0.5241 -0.5877
   92MOL    H9129393   2.966   2.332   1.482 -0.3600 -1.3656 -0.3065
   92MOL    H9229394   2.943   2.610   1.234  1.2625  0.1489  0.9761
   92MOL    H9329395   2.845   2.701   1.058 -0.7959  0.5591 -0.3528
   92MOL    H9429396   2.721   2.610   0.973 -0.5150 -2.2398  0.1922
   92MOL    H9529397   2.890   2.566   0.948  1.2053  0.2412  1.4983
   92MOL    H9629398   2.675   2.352   1.230 -2.7623 -0.4304 -0.7971
   92MOL    H9729399   2.625   2.423   1.069 -0.5794 -3.7799  0.4064
   92MOL    C9829400   3.033   2.423   1.191 -0.0023 -0.4679  0.0637
   92MOL    C9929401   2.995   2.271   1.195 -0.4118  0.0942 -0.1584
   92MOL   C10029402   3.169   2.463   1.258  0.2826 -0.2221  0.2616
   92MOL   C10129403   3.203   2.614   1.250 -0.0179 -0.0615 -0.2787
   92MOL   C10229404   3.277   2.688   1.363  0.3909  0.2185 -0.1119
   92MOL   C10329405   3.172   2.683   1.144  0.0486  0.5718  0.1365
   92MOL   H10429406   3.042   2.453   1.087  1.6700  1.2296  0.6509
   92MOL   H10529407   2.894   2.258   1.156 -1.3660  2.7845  1.2361
   92MOL   H10629408   3.018   2.215   1.286  2.1410 -1.1667 -1.5426
   92MOL   H10729409   3.048   2.207   1.125 -1.0991 -0.0278 -0.5759
   92MOL   H10829410   3.156   2.447   1.365 -1.0353  0.5207  0.2218
   92MOL   H10929411   3.378   2.652   1.346 -0.5828 -1.3489 -2.8898
   92MOL   H11029412   3.246   2.662   1.465 -0.9254  2.2556  0.0410
   92MOL   H11129413   3.278   2.797   1.371  0.4323  0.0882  1.9558
   92MOL   H11229414   3.131   2.638   1.054  1.3620 -0.5198  0.0598
   92MOL   H11329415   3.182   2.789   1.126  3.4134  0.0319 -1.7647
   92MOL   C11429416   3.298   2.382   1.203  0.9073 -0.1567  0.4397
   92MOL   C11529417   3.291   2.362   1.046  0.3614  0.1224 -0.1854
   92MOL   C11629418   3.333   2.251   1.280 -0.4904 -0.7944  0.4665
   92MOL   C11729419   3.345   2.268   1.432  0.1246  0.3327  0.0931
   92MOL   C11829420   3.302   2.147   1.510 -0.0749  0.1136 -0.1196
   92MOL   C11929421   3.404   2.368   1.499  0.3913 -0.0114 -0.3220
   92MOL   H12029422   3.382   2.446   1.231  1.9504 -1.1716 -0.3432
   92MOL   H12129423   3.390   2.354   1.000  1.2936  1.5007  1.4987
   92MOL   H12229424   3.263   2.452   0.991 -0.7112  2.8499  4.5413
   92MOL   H12329425   3.228   2.279   1.014 -0.5733 -0.0513  2.0440
   92MOL   H12429426   3.246   2.188   1.260 -0.0444 -0.5453 -2.3375
   92MOL   H12529427   3.195   2.136   1.494  0.1357 -3.8670  0.5282
   92MOL   H12629428   3.312   2.145   1.618 -0.2778  0.4240 -0.0940
   92MOL   H12729429   3.359   2.065   1.466 -1.9996 -0.5398 -1.4618
   92MOL   H12829430   3.437   2.460   1.453  2.8388 -1.1118 -0.8459
   92MOL   H12929431   3.412   2.350   1.605 -1.0230 -2.2426 -0.5639
   92MOL   C13029432   3.462   2.187   1.223  0.1393 -0.4270 -0.3201
   92MOL   C13129433   3.577   2.290   1.209 -0.7026  0.0918  0.3212
   92MOL   C13229434   3.452   2.087   1.105  0.1184 -0.8211  0.2528
   92MOL   C13329435   3.319   2.007   1.084 -0.1199 -0.5978  0.2419
   92MOL   C13429436   3.287   1.916   1.202 -0.4775 -0.4734  0.1001
   92MOL   C13529437   3.250   1.987   0.972  0.2765  0.1941  0.5836
   92MOL   H13629438   3.492   2.109   1.294  0.0769  0.4524  0.6774
   92MOL   H13729439   3.641   2.251   1.130 -1.1728  1.9417 -1.0103
   92MOL   H13829440   3.631   2.304   1.302 -0.1864 -2.0624  0.3681
   92MOL   H13929441   3.564   2.387   1.161 -0.1346  1.2348  2.4551
   92MOL   H14029442   3.447   2.156   1.020 -0.8781 -2.6955 -1.2674
   92MOL   H14129443   3.180   1.898   1.214 -1.1184  2.0983 -1.4710
   92MOL   H14229444   3.323   1.962   1.294 -2.6711  0.0231  0.7411
   92MOL   H14329445   3.338   1.820   1.186 -1.2393 -0.4180 -2.9942
   92MOL   H14429446   3.265   2.044   0.881  1.5617 -0.5421  0.3198
   92MOL   H14529447   3.165   1.921   0.961 -0.6677  2.0245 -4.2524
   92MOL   C14629448   3.574   1.981   1.085 -0.6203  0.3245  0.8828
   92MOL   C14729449   3.706   2.001   1.156  0.4875  0.2540 -0.0411
   92MOL   C14829450   3.591   1.914   0.943  0.3149  0.0013 -0.6820
   92MOL   C14929451   3.644   1.772   0.963  0.2944 -0.3800 -0.5542
   92MOL   C15029452   3.534   1.670   0.978  0.2926 -0.5901  0.6520
   92MOL   C15129453   3.775   1.739   0.958  0.3402  0.3402 -0.4755
   92MOL   H15229454   3.545   1.899   1.151  0.4494 -1.4739 -0.8632
   92MOL   H15329455   3.779   2.060   1.101 -0.0904  1.2555  0.2683
   92MOL   H15429456   3.761   1.910   1.182 -1.6861 -0.5221  2.0653
   92MOL   H15529457   3.686   2.037   1.257 -0.7740  0.0478 -0.2080
   92MOL   H15629458   3.489   1.901   0.907 -0.2367  3.3677 -0.5721
   92MOL   H15729459   3.454   1.716   1.037  0.4251 -2.1587  2.0829
   92MOL   H15829460   3.559   1.576   1.025  1.3594 -0.4004  0.4632
   92MOL   H15929461   3.494   1.653   0.878 -2.0549  1.3287  1.1873
   92MOL   H16029462   3.854   1.806   0.929 -1.2962  3.1183  1.2860
   92MOL   H16129463   3.809   1.640   0.987  1.0572  0.2765 -1.4926
   92MOL   C16229464   3.674   1.991   0.844 -0.0838  0.6657 -0.5006
   92MOL   C16329465   3.624   2.132   0.841 -0.3283 -0.2846  1.1701
   92MOL   C16429466   3.688   1.924   0.695 -0.7084  0.5538  0.0863
   92MOL   C16529467   3.823   1.949   0.626  0.5261  0.5292 -1.0421
   92MOL   C16629468   3.915   1.828   0.617 -0.0789  0.6670  0.0347
   92MOL   C16729469   3.855   2.064   0.569 -0.4839 -0.1737  0.3285
   92MOL   H16829470   3.777   1.989   0.879 -0.7389 -2.6580  1.4116
   92MOL   H16929471   3.666   2.187   0.925  2.6266 -1.4624  0.4997
   92MOL   H17029472   3.516   2.130   0.823  0.2190  1.4994 -2.7966
   92MOL   H17129473   3.662   2.192   0.758  0.9411 -1.4587  0.8826
   92MOL   H17229474   3.696   1.818   0.721 -0.3683  0.5946  0.1487
   92MOL   H17329475   3.875   1.734   0.654  1.5014  0.3044  0.8734
   92MOL   H17429476   4.003   1.851   0.677  0.0201  0.3019  0.0290
   92MOL   H17529477   3.950   1.817   0.514  0.8585  0.2219  0.3949
   92MOL   H17629478   3.792   2.152   0.564 -0.1785 -0.0372 -1.5172
   92MOL   H17729479   3.949   2.074   0.516 -0.6018 -1.0375 -0.0384
   92MOL   C17829480   3.569   1.933   0.592 -0.1370 -0.5525 -0.3424
   92MOL   C17929481   3.435   1.911   0.654 -0.4174  0.9475  0.6224
   92MOL   C18029482   3.592   1.848   0.465 -0.0313 -0.3391  0.2251
   92MOL   C18129483   3.553   1.940   0.343 -0.9535 -0.4258 -0.0822
   92MOL   C18229484   3.657   2.028   0.277 -0.1446 -0.3900 -0.1061
   92MOL   C18329485   3.427   1.953   0.308 -0.3167 -0.7488 -0.3772
   92MOL   H18429486   3.570   2.038   0.563 -4.0593  0.5380  3.0903
   92MOL   H18529487   3.404   1.995   0.717  0.6690  1.3154  0.6663
   92MOL   H18629488   3.420   1.817   0.706 -1.8899  1.6036  1.4264
   92MOL   H18729489   3.353   1.906   0.581 -2.2422 -0.1922  2.6926
   92MOL   H18829490   3.696   1.819   0.449 -0.1134 -0.8660  0.6339
   92MOL   H18929491   3.724   1.956   0.229 -0.4794 -2.3425  2.2080
   92MOL   H19029492   3.700   2.090   0.355  0.4901 -2.3510  1.1596
   92MOL   H19129493   3.626   2.092   0.195  0.5074 -1.4147 -1.1742
   92MOL   H19229494   3.351   1.892   0.355 -1.0140  1.5714  1.6155
   92MOL   H19329495   3.399   2.017   0.226 -0.5047  0.4574  0.6068
   92MOL   C19429496   3.530   1.699   0.454  0.0484 -0.0254 -0.4716
   92MOL   C19529497   3.580   1.607   0.564 -0.4722 -0.3841 -0.3907
   92MOL   C19629498   3.540   1.626   0.313  0.6836 -0.4753  0.4862
   92MOL   C19729499   3.397   1.576   0.268 -0.3938  1.0421  0.4270
   92MOL   C19829500   3.344   1.462   0.352  0.4701  0.3787  0.1053
   92MOL   C19929501   3.329   1.637   0.168  0.3370  0.0298  0.2221
   92MOL   H20029502   3.427   1.719   0.484  0.6441 -0.7588  2.2304
   92MOL   H20129503   3.545   1.505   0.550  1.6087 -0.8253 -2.6652
   92MOL   H20229504   3.544   1.636   0.663 -1.0633  1.4485 -1.1017
   92MOL   H20329505   3.688   1.608   0.578 -0.3893 -1.1877 -0.9154
   92MOL   H20429506   3.572   1.703   0.243 -2.7388  0.3211 -0.3184
   92MOL   H20529507   3.346   1.509   0.450  1.1899  0.1164  0.2166
   92MOL   H20629508   3.406   1.373   0.348 -1.3269 -0.9565  1.3247
   92MOL   H20729509   3.244   1.440   0.316  0.6817 -1.0641  0.3759
   92MOL   H20829510   3.382   1.710   0.109  1.6998 -0.3281  0.9898
   92MOL   H20929511   3.228   1.607   0.140 -0.2876  1.5542  0.8256
   92MOL   C21029512   3.651   1.520   0.293 -0.4394  0.0890 -0.0780
   92MOL   C21129513   3.793   1.546   0.344  0.2131  0.4437 -0.1449
   92MOL   C21229514   3.664   1.483   0.140  0.4062  0.0979 -0.5890
   92MOL   C21329515   3.675   1.330   0.117  0.3594 -0.1391 -0.2415
   92MOL   C21429516   3.806   1.265   0.143  0.0728 -0.0580  0.3311
   92MOL   C21529517   3.577   1.254   0.065 -0.0519 -0.0048  0.3843
   92MOL   H21629518   3.629   1.428   0.348  1.4840 -0.3117  0.0673
   92MOL   H21729519   3.806   1.489   0.436  2.1525  0.2511 -0.5291
   92MOL   H21829520   3.815   1.653   0.351 -1.1744  0.6759  1.2605
   92MOL   H21929521   3.877   1.525   0.279  0.5369  0.5320  0.2426
   92MOL   H22029522   3.563   1.505   0.106  0.6428  0.2203 -1.2259
   92MOL   H22129523   3.865   1.314   0.221 -0.3957  1.4849 -0.2790
   92MOL   H22229524   3.874   1.260   0.059  3.6803 -1.7354  3.2050
   92MOL   H22329525   3.792   1.159   0.168 -0.6412 -0.1309 -0.3751
   92MOL   H22429526   3.482   1.296   0.036 -0.3138 -0.6403  0.3187
   92MOL   H22529527   3.578   1.148   0.047 -0.5991 -0.2261  1.5766
   92MOL   C22629528   3.763   1.560   0.043 -0.4926  0.3140 -0.7237
   92MOL   C22729529   3.774   1.714   0.052 -0.0147  0.2409 -0.1820
   92MOL   C22829530   3.763   1.508   7.784  0.6240  0.3525  0.1826
   92MOL   C22929531   3.903   1.484   7.732  0.0129 -0.1028  0.3305
   92MOL   C23029532   3.988   1.607   7.716 -0.1471 -0.1246  0.4821
   92MOL   C23129533   3.953   1.362   7.697  0.2860 -0.0856  0.0325
   92MOL   H23229534   3.860   1.517   0.070  0.7960  2.0984 -2.4042
   92MOL   H23329535   3.822   1.741   0.146  1.2295  0.8357 -0.9966
   92MOL   H23429536   3.683   1.769   0.027  0.5306  1.5713  0.7296
   92MOL   H23529537   3.851   1.754   7.879 -2.1414  0.1247 -2.8289
   92MOL   H23629538   3.713   1.411   7.779  1.7714 -0.3576  1.9936
   92MOL   H23729539   4.064   1.595   7.638 -0.1658  0.7671  0.3238
   92MOL   H23829540   4.039   1.631   7.809  3.8992  0.2883 -1.7511
   92MOL   H23929541   3.934   1.697   7.688  1.2358  1.0607  1.5740
   92MOL   H24029542   3.907   1.266   7.709  2.2620 -0.6252  4.3899
   92MOL   H24129543   4.055   1.375   7.662 -0.4877 -1.2239 -2.7994
   92MOL   C24229544   3.676   1.589   7.680  0.0067  0.4824 -0.1647
   92MOL   C24329545   3.523   1.566   7.713  0.0650 -0.2613  0.3695
   92MOL   C24429546   3.705   1.584   7.525  0.2928 -0.2486  0.1223
   92MOL   C24529547   3.668   1.725   7.471  0.3786 -0.1735  0.5122
   92MOL   C24629548   3.776   1.829   7.487  0.7582 -0.6315  0.1016
   92MOL   C24729549   3.557   1.748   7.399  0.2106 -0.8343 -0.5177
   92MOL   H24829550   3.701   1.692   7.704  0.9093  0.3836 -0.6601
   92MOL   H24929551   3.462   1.628   7.647 -0.1151  0.5372  1.2804
   92MOL   H25029552   3.492   1.596   7.813  0.7133  2.7926 -0.2789
   92MOL   H25129553   3.509   1.459   7.699 -0.9270 -0.0427 -0.3476
   92MOL   H25229554   3.814   1.580   7.513  0.3994  0.8095  0.6547
   92MOL   H25329555   3.750   1.928   7.451 -1.6271 -0.3575  2.4581
   92MOL   H25429556   3.857   1.805   7.417 -0.2361  0.9969 -1.6420
   92MOL   H25529557   3.807   1.850   7.589  2.6565  0.4516 -0.6749
   92MOL   H25629558   3.484   1.669   7.390  0.3275 -0.7882 -2.0580
   92MOL   H25729559   3.547   1.844   7.349 -4.0463 -1.4460 -0.9912
   92MOL   C25829560   3.644   1.459   7.444  0.4056 -0.0971  0.3212
   92MOL   C25929561   3.667   1.321   7.500 -0.1252  0.4644 -0.0374
   92MOL   C26029562   3.658   1.458   7.290  0.5478 -0.2221  0.6448
   92MOL   C26129563   3.528   1.392   7.228 -0.4059  0.2904 -0.1548
   92MOL   C26229564   3.400   1.478   7.221 -0.5978 -0.3520  0.5802
   92MOL   C26329565   3.529   1.266   7.186 -0.3041 -0.7238 -0.2353
   92MOL   H26429566   3.537   1.459   7.464 -0.0065  2.3398 -1.6511
   92MOL   H26529567   3.651   1.324   7.607  0.1331 -0.7672  0.0465
   92MOL   H26629568   3.767   1.280   7.483  0.3337  0.9752  1.4252
   92MOL   H26729569   3.613   1.237   7.457  2.0378  0.2799 -2.5195
   92MOL   H26829570   3.640   1.558   7.252 -1.8831 -0.7385  0.3844
   92MOL   H26929571   3.320   1.419   7.176  0.4735 -1.7862  0.5212
   92MOL   H27029572   3.429   1.568   7.167 -2.7228  0.3690  0.5912
   92MOL   H27129573   3.373   1.498   7.325 -0.5191  1.5779  0.2486
   92MOL   H27229574   3.615   1.202   7.198  0.2016 -0.2278 -1.1246
   92MOL   H27329575   3.445   1.214   7.141 -1.2106 -2.1746  3.0250
   92MOL   C27429576   3.793   1.399   7.232 -0.2871  0.1579 -0.1732
   92MOL   C27529577   3.918   1.453   7.308 -0.0764 -0.8754 -0.2745
   92MOL   C27629578   3.806   1.410   7.078 -0.1486  0.0021 -0.5120
   92MOL   C27729579   3.884   1.288   7.019  0.2857  0.0520 -0.3240
   92MOL   C27829580   4.038   1.288   7.022 -0.0811  1.0258  0.0208
   92MOL   C27929581   3.808   1.187   6.968  0.4936  0.4966  0.3350
   92MOL   H28029582   3.780   1.293   7.256 -0.8660  0.4958  1.0635
   92MOL   H28129583   3.999   1.394   7.265  0.5487  0.5137 -1.0490
   92MOL   H28229584   3.925   1.438   7.416  0.5959 -1.8016 -0.4377
   92MOL   H28329585   3.933   1.559   7.287 -1.2778 -0.8353 -0.9494
   92MOL   H28429586   3.704   1.399   7.041 -0.7197  0.4190  0.8823
   92MOL   H28529587   4.080   1.386   7.002  2.3225 -0.2520 -1.4778
   92MOL   H28629588   4.073   1.216   6.948 -0.7130 -0.2144  0.9058
   92MOL   H28729589   4.059   1.260   7.125  1.3653  1.1830 -0.2213
   92MOL   H28829590   3.700   1.186   6.971  0.5382  0.5272  2.0579
   92MOL   H28929591   3.858   1.103   6.921  1.0435  1.3055 -0.5383
   92MOL   C29029592   3.849   1.542   7.001  0.2946 -0.0173  0.1660
   92MOL   C29129593   3.795   1.672   7.066 -0.4786 -0.9631 -0.1008
   92MOL   C29229594   3.844   1.535   6.842  0.0067  0.0827 -0.3663
   92MOL   C29329595   3.980   1.575   6.777 -0.4960 -0.0467 -0.2671
   92MOL   C29429596   4.009   1.721   6.779  0.1093  0.8605 -0.2120
   92MOL   C29529597   4.068   1.484   6.735  0.3722 -0.3647 -0.6385
   92MOL   H29629598   3.956   1.551   7.023  0.3615  3.1679 -1.1393
   92MOL   H29729599   3.686   1.673   7.075 -0.6555 -1.9100 -1.9311
   92MOL   H29829600   3.827   1.762   7.014 -0.5360 -0.8557  0.0497
   92MOL   H29929601   3.827   1.683   7.170 -0.8765 -0.3769 -0.0427
   92MOL   H30029602   3.841   1.434   6.801 -1.2374 -0.9159  2.1000
   92MOL   H30129603   4.039   1.763   6.875 -2.4745  0.0650  0.9717
   92MOL   H30229604   3.927   1.785   6.746 -2.6006 -2.3279  0.1801
   92MOL   H30329605   4.089   1.748   6.710 -1.2627  1.0113 -1.7715
   92MOL   H30429606   4.046   1.379   6.750  1.0866 -0.6799 -1.7010
   92MOL   H30529607   4.163   1.511   6.690  0.9895 -1.7898 -0.2196
   92MOL   C30629608   3.717   1.594   6.771  0.3905  0.6990  0.3358
   92MOL   C30729609   3.594   1.514   6.820 -0.5295  0.0158 -0.2848
   92MOL   C30829610   3.729   1.590   6.617  0.1675 -0.6372  0.4377
   92MOL   C30929611   3.624   1.664   6.540  0.2729 -0.1759 -0.4296
   92MOL   C31029612   3.649   1.820   6.552  0.2607 -0.5597 -0.2751
   92MOL   C31129613   3.534   1.611   6.458 -0.3267 -0.7594 -0.0128
   92MOL   H31229614   3.699   1.695   6.810  1.1671  0.2950  1.7690
   92MOL   H31329615   3.560   1.543   6.920  1.6831  2.9534 -0.3183
   92MOL   H31429616   3.599   1.405   6.815 -0.5533  0.0026 -0.0468
   92MOL   H31529617   3.508   1.541   6.759  0.1426  2.0291 -0.3592
   92MOL   H31629618   3.817   1.646   6.587  0.7526 -1.2402  1.0288
   92MOL   H31729619   3.602   1.854   6.644  0.6472 -1.4044  0.2352
   92MOL   H31829620   3.600   1.876   6.472  0.2504 -0.6549 -0.3359
   92MOL   H31929621   3.753   1.849   6.541 -0.0664  0.5814 -0.3870
   92MOL   H32029622   3.513   1.508   6.434  2.5523 -1.7963  1.6939
   92MOL   H32129623   3.459   1.670   6.407 -0.2838 -1.5543 -1.0095
   92MOL   H32229624   3.739   1.491   6.572  0.5650 -0.7890  0.8580
   93MOL     C129625   6.538   5.291   2.084  0.4444 -0.1415  0.2204
   93MOL     C229626   6.636   5.372   1.989 -1.1581 -0.5727  0.2027
   93MOL     C329627   6.609   5.188   2.166  0.3857 -0.3806 -0.1466
   93MOL     C429628   6.687   5.074   2.093  0.0321 -0.6533  0.3598
   93MOL     C529629   6.802   5.011   2.175 -0.1210  0.8192 -0.1895
   93MOL     C629630   6.667   5.045   1.960 -0.3734  0.3707  0.2721
   93MOL     H729631   6.471   5.351   2.145 -0.2409  2.1955 -2.7216
   93MOL     H829632   6.611   5.335   1.889  0.0318  0.0241 -0.3334
   93MOL     H929633   6.742   5.346   1.992 -1.1263 -0.3331  1.1444
   93MOL    H1029634   6.612   5.478   1.992 -1.0407 -0.5425  0.0791
   93MOL    H1129635   6.695   5.236   2.212  0.1889  0.8938 -1.0838
   93MOL    H1229636   6.870   4.966   2.103  1.6720  2.3620  0.4903
   93MOL    H1329637   6.755   4.937   2.239  1.4774  0.5493  0.6842
   93MOL    H1429638   6.864   5.086   2.225 -1.8944  1.7259  0.6875
   93MOL    H1529639   6.594   5.094   1.897  0.4261  0.0709 -0.8964
   93MOL    H1629640   6.719   4.966   1.908  0.6425  1.5109 -0.4729
   93MOL    H1729641   6.475   5.224   2.025 -0.2557 -0.1541  0.9805
   93MOL    C1829642   6.520   5.137   2.283  0.0162  0.6213  0.0834
   93MOL    C1929643   6.417   5.034   2.231 -0.2156  0.5319  0.6320
   93MOL    C2029644   6.472   5.244   2.390 -0.6106 -0.6896  1.1247
   93MOL    C2129645   6.591   5.336   2.430 -0.8789 -0.5211  0.2404
   93MOL    C2229646   6.711   5.273   2.498  0.4931 -0.5998 -0.2818
   93MOL    C2329647   6.574   5.463   2.409 -0.3713 -0.3565  0.0358
   93MOL    H2429648   6.586   5.072   2.341 -1.8675 -2.9504 -1.6222
   93MOL    H2529649   6.378   4.975   2.314  1.9447 -0.2182  1.1620
   93MOL    H2629650   6.450   4.960   2.159 -0.3981  1.7157 -0.6836
   93MOL    H2729651   6.340   5.091   2.180  1.3591  1.2953 -0.9316
   93MOL    H2829652   6.401   5.314   2.346 -0.8271 -0.3823  1.9459
   93MOL    H2929653   6.747   5.192   2.433  0.1708  0.1004 -1.3485
   93MOL    H3029654   6.683   5.237   2.597 -0.0620 -0.0831 -0.2531
   93MOL    H3129655   6.793   5.343   2.506  0.6677 -0.9565  1.1566
   93MOL    H3229656   6.484   5.512   2.374 -0.0097  2.0647  2.3816
   93MOL    H3329657   6.648   5.541   2.420 -0.0968 -0.0021 -3.5161
   93MOL    C3429658   6.396   5.188   2.516 -0.0644  0.2041 -0.0387
   93MOL    C3529659   6.457   5.051   2.567  0.6068  0.0262 -0.3694
   93MOL    C3629660   6.240   5.192   2.504  0.0172  0.1074 -0.5438
   93MOL    C3729661   6.181   5.316   2.443 -0.0443 -0.2921 -0.1550
   93MOL    C3829662   6.098   5.297   2.318 -0.0832  0.5989  0.2768
   93MOL    C3929663   6.207   5.432   2.502 -0.1168 -0.4852  0.0865
   93MOL    H4029664   6.404   5.266   2.592  0.1033 -0.5131  0.6790
   93MOL    H4129665   6.560   5.034   2.538  0.2930 -0.5598 -1.1302
   93MOL    H4229666   6.389   4.976   2.527  0.4328 -1.0350  1.8355
   93MOL    H4329667   6.451   5.049   2.676 -0.3751 -0.1802 -0.4247
   93MOL    H4429668   6.212   5.113   2.434  0.3654 -1.1003  0.6595
   93MOL    H4529669   6.122   5.210   2.256  1.7351  0.2611  1.3973
   93MOL    H4629670   6.108   5.385   2.255  1.2011  0.2726  0.0114
   93MOL    H4729671   5.997   5.286   2.359  0.1023 -3.6705 -0.1489
   93MOL    H4829672   6.278   5.450   2.581  2.1918 -1.8704 -1.5983
   93MOL    H4929673   6.161   5.521   2.462 -0.4632  0.2987  2.1532
   93MOL    C5029674   6.156   5.148   2.632 -1.0751 -0.2903  0.1676
   93MOL    C5129675   6.205   5.214   2.755 -0.2581  0.3016 -0.5871
   93MOL    C5229676   6.130   4.988   2.655  0.2844 -0.1148  0.3616
   93MOL    C5329677   6.073   4.920   2.529 -0.6322  0.0699 -0.4725
   93MOL    C5429678   5.936   4.956   2.485  0.3005  0.1464  0.3717
   93MOL    C5529679   6.151   4.835   2.456  1.0693 -0.5976 -0.3074
   93MOL    H5629680   6.057   5.186   2.605 -0.0493 -0.0417 -3.4792
   93MOL    H5729681   6.286   5.154   2.795 -0.1873  0.5557 -0.3507
   93MOL    H5829682   6.132   5.210   2.836 -0.5838 -2.7026 -0.9873
   93MOL    H5929683   6.236   5.318   2.741  0.3384 -0.0296 -1.8029
   93MOL    H6029684   6.227   4.938   2.665 -0.2495 -1.0283  1.0249
   93MOL    H6129685   5.927   5.057   2.446 -3.9098 -0.0102  0.7144
   93MOL    H6229686   5.859   4.951   2.562 -1.7683 -1.0058 -1.6789
   93MOL    H6329687   5.901   4.897   2.399 -1.2360  1.7652 -0.1449
   93MOL    H6429688   6.246   4.796   2.487  0.8320 -3.3808 -2.8256
   93MOL    H6529689   6.123   4.797   2.358 -0.1746  0.7810 -0.5075
   93MOL    C6629690   6.046   4.951   2.779 -0.0905 -0.1590  0.0458
   93MOL    C6729691   5.933   5.045   2.813 -0.2976 -0.0142 -0.3643
   93MOL    C6829692   6.125   4.906   2.911  0.0767 -0.3433  0.2242
   93MOL    C6929693   6.253   4.819   2.887 -0.1770  0.2884  0.2195
   93MOL    C7029694   6.381   4.854   2.965 -0.0333  0.4414  0.0593
   93MOL    C7129695   6.258   4.721   2.790 -0.1145 -0.0837  0.4724
   93MOL    H7229696   5.992   4.862   2.746  0.2460  0.3322 -1.8693
   93MOL    H7329697   5.907   5.105   2.725  0.6733  0.5021 -0.3099
   93MOL    H7429698   5.954   5.121   2.888 -0.4051  0.7311 -1.0789
   93MOL    H7529699   5.838   4.993   2.827 -0.0365 -0.4126 -0.0732
   93MOL    H7629700   6.163   5.000   2.950  2.8163 -2.1386  2.0292
   93MOL    H7729701   6.477   4.837   2.916  0.3127  2.2408  0.0878
   93MOL    H7829702   6.390   4.801   3.060  0.0797 -0.6870 -0.5788
   93MOL    H7929703   6.372   4.958   2.998 -0.9873  0.0198  1.1568
   93MOL    H8029704   6.174   4.692   2.729  1.6166 -0.5004 -1.8086
   93MOL    H8129705   6.346   4.660   2.776 -0.9341 -1.2631  0.4042
   93MOL    C8229706   6.043   4.835   3.026 -0.1016 -0.1440 -0.6605
   93MOL    C8329707   5.927   4.746   2.982  0.6192  0.2947 -0.1494
   93MOL    C8429708   5.993   4.930   3.144 -0.4651 -0.0178  0.7592
   93MOL    C8529709   6.114   4.996   3.201 -0.0268 -0.3348  0.0693
   93MOL    C8629710   6.121   5.145   3.191  0.3285 -0.1394 -0.6743
   93MOL    C8729711   6.218   4.923   3.252  0.2493 -0.2445 -0.3741
   93MOL    H8829712   6.112   4.763   3.070 -1.0571 -0.2622  0.6709
   93MOL    H8929713   5.981   4.684   2.910 -0.9693  0.8608 -1.8614
   93MOL    H9029714   5.850   4.795   2.922 -0.1654  0.1132  0.6930
   93MOL    H9129715   5.875   4.683   3.054  0.6033 -1.2816 -1.5019
   93MOL    H9229716   5.953   5.017   3.092  1.9618  0.6096 -0.1394
   93MOL    H9329717   6.202   5.192   3.248  0.0638 -1.8456  1.1416
   93MOL    H9429718   6.023   5.189   3.209 -0.6822 -2.2918 -0.7749
   93MOL    H9529719   6.146   5.173   3.088  1.9118 -0.2405 -0.3334
   93MOL    H9629720   6.224   4.816   3.248 -0.9233 -0.3720  0.6806
   93MOL    H9729721   6.306   4.972   3.290  1.3689 -1.6215 -1.1398
   93MOL    C9829722   5.894   4.884   3.251  0.1214  0.0475  0.4301
   93MOL    C9929723   5.934   4.760   3.339 -0.3234 -0.4297  0.1145
   93MOL   C10029724   5.738   4.904   3.224 -0.4737  0.2544 -0.1633
   93MOL   C10129725   5.693   5.005   3.118  0.2859 -0.3146 -0.4781
   93MOL   C10229726   5.715   5.151   3.150  0.0740 -0.6658  0.0849
   93MOL   C10329727   5.615   4.969   3.016  0.1761 -0.9436  0.6544
   93MOL   H10429728   5.904   4.973   3.313 -0.0931  0.1445  0.3242
   93MOL   H10529729   6.042   4.754   3.353  0.0805  2.1730 -1.4913
   93MOL   H10629730   5.899   4.667   3.293 -0.3619 -0.3854  0.0543
   93MOL   H10729731   5.893   4.763   3.440 -0.9503 -1.5147 -0.0941
   93MOL   H10829732   5.723   4.810   3.170  0.6916 -0.0287  0.0115
   93MOL   H10929733   5.820   5.180   3.159 -0.6091  1.6485  1.0592
   93MOL   H11029734   5.663   5.183   3.240 -1.3511  0.4669 -1.1129
   93MOL   H11129735   5.687   5.216   3.067 -2.4267  0.0252  1.4399
   93MOL   H11229736   5.610   4.864   2.994 -0.4881 -0.3467 -2.3987
   93MOL   H11329737   5.576   5.038   2.942  1.4637 -1.3211 -0.4070
   93MOL   C11429738   5.640   4.898   3.340 -0.0087  0.1869 -0.3037
   93MOL   C11529739   5.703   4.973   3.460 -0.5787  0.5152  0.3036
   93MOL   C11629740   5.584   4.759   3.381  0.1920 -0.3678  0.1110
   93MOL   C11729741   5.507   4.692   3.267  0.5358 -0.0202 -0.2185
   93MOL   C11829742   5.519   4.538   3.259 -0.3627 -1.5018 -0.0191
   93MOL   C11929743   5.432   4.756   3.176  0.6209 -0.2971 -0.1648
   93MOL   H12029744   5.550   4.957   3.321  0.1612  0.7821  0.7101
   93MOL   H12129745   5.746   5.064   3.418 -0.3799  1.1746  1.8798
   93MOL   H12229746   5.777   4.916   3.516 -2.4555 -0.8431  1.4758
   93MOL   H12329747   5.638   5.009   3.540 -0.8236  0.4048  0.1544
   93MOL   H12429748   5.670   4.699   3.407  0.4771  0.3975  0.9654
   93MOL   H12529749   5.495   4.490   3.354  1.1771  0.1989  1.2751
   93MOL   H12629750   5.627   4.532   3.244 -0.7530 -2.6562 -2.5734
   93MOL   H12729751   5.452   4.499   3.182 -0.1525  0.0263 -1.0013
   93MOL   H12829752   5.421   4.863   3.174  2.7645 -0.0628 -0.3306
   93MOL   H12929753   5.362   4.712   3.106 -0.0893 -0.6045  0.7224
   93MOL   C13029754   5.511   4.770   3.523  0.1107  0.6974 -0.3189
   93MOL   C13129755   5.494   4.630   3.586 -0.1172  0.2955 -0.0675
   93MOL   C13229756   5.387   4.861   3.537  0.1459 -0.6835 -0.8776
   93MOL   C13329757   5.382   4.942   3.668  0.4951  0.0320  0.5723
   93MOL   C13429758   5.388   4.870   3.795 -0.1592 -0.3429 -0.3716
   93MOL   C13529759   5.375   5.078   3.667 -0.2730  0.1839 -0.2226
   93MOL   H13629760   5.585   4.806   3.594 -0.6549 -2.3094  2.1272
   93MOL   H13729761   5.581   4.564   3.587 -0.4935 -0.2816 -2.6745
   93MOL   H13829762   5.423   4.566   3.534 -0.4046 -0.7861  1.5942
   93MOL   H13929763   5.467   4.641   3.691  0.1377 -2.6501  0.3587
   93MOL   H14029764   5.393   4.939   3.461 -0.2102 -1.1983 -1.4363
   93MOL   H14129765   5.477   4.815   3.826 -0.7059 -0.8758  0.2964
   93MOL   H14229766   5.310   4.793   3.797  0.7755 -1.2871  0.0777
   93MOL   H14329767   5.359   4.931   3.881 -0.6088 -0.1566 -0.6527
   93MOL   H14429768   5.358   5.129   3.573 -0.1638  1.6078  0.5118
   93MOL   H14529769   5.375   5.134   3.759 -0.7834  0.7621 -0.5686
   93MOL   C14629770   5.252   4.798   3.485  0.4304 -0.5683 -0.2745
   93MOL   C14729771   5.171   4.903   3.406  0.7511  0.0647 -0.7663
   93MOL   C14829772   5.169   4.696   3.576  0.2211  0.0339  0.0715
   93MOL   C14929773   5.137   4.571   3.498  0.3742 -0.3704  0.1159
   93MOL   C15029774   5.058   4.586   3.366  0.1749  0.4875  0.1149
   93MOL   C15129775   5.172   4.445   3.536  0.6994 -0.4901  0.3129
   93MOL   H15229776   5.290   4.730   3.408 -0.9468  0.5972 -2.0231
   93MOL   H15329777   5.072   4.866   3.379  1.2284 -3.6351  2.1032
   93MOL   H15429778   5.227   4.941   3.320  2.1132 -1.7811 -0.7332
   93MOL   H15529779   5.152   4.992   3.466 -2.6963 -0.9473 -0.2701
   93MOL   H15629780   5.239   4.670   3.654 -0.3270 -1.3279  0.1112
   93MOL   H15729781   5.056   4.492   3.310  0.2896  1.2223 -1.1342
   93MOL   H15829782   5.093   4.665   3.299  2.4313  0.0484  0.7148
   93MOL   H15929783   4.955   4.608   3.391 -0.3169  0.3272 -1.7239
   93MOL   H16029784   5.230   4.429   3.626  0.0546  0.6550  0.9494
   93MOL   H16129785   5.139   4.362   3.476  1.5653 -0.7535  0.1999
   93MOL   C16229786   5.031   4.756   3.642  0.3283 -1.1384  0.2457
   93MOL   C16329787   5.049   4.885   3.725  0.3117  0.4394 -0.2080
   93MOL   C16429788   4.932   4.657   3.707  0.9000  0.2975  0.3499
   93MOL   C16529789   4.794   4.733   3.698  0.0203 -0.0278 -0.2088
   93MOL   C16629790   4.722   4.723   3.565  0.6933 -0.4077  0.4379
   93MOL   C16729791   4.731   4.808   3.791  0.8477  0.4160  0.1755
   93MOL   H16829792   4.978   4.796   3.556  1.8766  3.0242  1.1069
   93MOL   H16929793   5.105   4.871   3.818 -1.0135  1.0940  0.7059
   93MOL   H17029794   4.952   4.929   3.745 -0.4302 -2.4617  3.2720
   93MOL   H17129795   5.103   4.955   3.662 -0.2148  0.8185 -0.2321
   93MOL   H17229796   4.932   4.572   3.639 -2.2735  0.7422 -0.2775
   93MOL   H17329797   4.753   4.794   3.488 -0.3184 -1.5258 -1.0201
   93MOL   H17429798   4.614   4.722   3.575  0.5395  0.2039 -0.9665
   93MOL   H17529799   4.734   4.624   3.521 -1.5341 -0.6535  0.3696
   93MOL   H17629800   4.760   4.823   3.894 -1.3236 -1.0849  1.0284
   93MOL   H17729801   4.644   4.868   3.769  0.4710 -0.4621 -0.7274
   93MOL   C17829802   4.973   4.620   3.859 -0.0910 -0.0610  0.5085
   93MOL   C17929803   5.125   4.595   3.895 -0.2757 -0.8813 -0.4601
   93MOL   C18029804   4.866   4.528   3.931  0.3756  0.1681 -0.1280
   93MOL   C18129805   4.842   4.560   4.087 -0.8012  0.0123  0.2992
   93MOL   C18229806   4.948   4.517   4.192 -0.0330 -0.5590 -0.3972
   93MOL   C18329807   4.723   4.601   4.133  0.2786 -0.8466 -0.4000
   93MOL   H18429808   4.945   4.714   3.907 -1.1258 -0.3970  0.5777
   93MOL   H18529809   5.186   4.542   3.823  1.0055 -1.2590  0.8887
   93MOL   H18629810   5.139   4.537   3.986  1.2687  1.0941  0.6031
   93MOL   H18729811   5.178   4.680   3.938 -1.9866  0.1503 -0.3175
   93MOL   H18829812   4.768   4.553   3.890 -0.5568  0.0028  1.9602
   93MOL   H18929813   4.970   4.412   4.170  1.6512 -0.2944 -0.0450
   93MOL   H19029814   4.906   4.529   4.292 -0.9705  1.2380 -0.9952
   93MOL   H19129815   5.034   4.584   4.193  1.0325 -1.8994  0.0926
   93MOL   H19229816   4.645   4.631   4.065  0.8470  1.8454  0.0807
   93MOL   H19329817   4.694   4.603   4.237 -0.2925  0.1956 -0.5766
   93MOL   C19429818   4.878   4.368   3.903  0.5189  0.1456  0.6201
   93MOL   C19529819   4.913   4.330   3.753 -0.1837 -0.8875 -0.2518
   93MOL   C19629820   4.763   4.273   3.966 -0.1119 -0.3582  0.0224
   93MOL   C19729821   4.822   4.148   4.025  0.3506 -0.1722  0.3804
   93MOL   C19829822   4.862   4.036   3.927  0.0227 -0.2591  0.1089
   93MOL   C19929823   4.824   4.130   4.158  0.6152  0.6937  0.4316
   93MOL   H20029824   4.970   4.337   3.952 -0.0500 -3.9233 -0.6233
   93MOL   H20129825   4.852   4.387   3.682  0.4235 -0.7111 -0.6354
   93MOL   H20229826   4.892   4.225   3.735 -3.3890 -0.1164 -1.5160
   93MOL   H20329827   5.020   4.340   3.733  0.1502 -0.3745  1.7140
   93MOL   H20429828   4.736   4.328   4.056  3.2962  0.5458  0.5599
   93MOL   H20529829   4.907   3.949   3.974 -2.6619 -0.8628  1.7001
   93MOL   H20629830   4.939   4.073   3.860 -0.6567 -0.6301 -0.8799
   93MOL   H20729831   4.773   4.013   3.868 -0.7518  4.0809 -0.6153
   93MOL   H20829832   4.785   4.202   4.229  0.3966  1.3135 -0.3088
   93MOL   H20929833   4.864   4.038   4.198  0.7711 -0.1272 -1.6064
   93MOL   C21029834   4.629   4.262   3.881  0.5994  0.5756 -1.3619
   93MOL   C21129835   4.577   4.397   3.822  0.3624  0.4452 -0.1020
   93MOL   C21229836   4.521   4.182   3.960 -0.5793  0.5822 -0.9049
   93MOL   C21329837   4.455   4.077   3.873  0.4024  0.2865  0.3130
   93MOL   C21429838   4.385   4.123   3.751  0.9116 -0.5782  0.2003
   93MOL   C21529839   4.466   3.947   3.902  0.6026  0.4445 -0.1624
   93MOL   H21629840   4.658   4.196   3.799  0.2391  1.0375 -1.8587
   93MOL   H21729841   4.633   4.445   3.742  1.1367  1.1016  0.8242
   93MOL   H21829842   4.564   4.474   3.899  2.2316  1.3343 -0.6447
   93MOL   H21929843   4.474   4.397   3.787  0.1398 -0.4965  0.5450
   93MOL   H22029844   4.569   4.125   4.040 -0.2103 -3.0603 -3.6333
   93MOL   H22129845   4.327   4.045   3.702  0.0904 -0.7177  1.3499
   93MOL   H22229846   4.453   4.168   3.680 -0.7701  2.1805  0.2701
   93MOL   H22329847   4.318   4.207   3.772  1.6477  0.2117 -0.5883
   93MOL   H22429848   4.513   3.918   3.995  0.9116 -1.6030 -0.9432
   93MOL   H22529849   4.418   3.869   3.845  0.4193 -0.1097  0.7414
   93MOL   C22629850   4.414   4.266   4.049  0.0365 -0.0194  0.1640
   93MOL   C22729851   4.486   4.360   4.150  0.9733 -0.3230 -0.4887
   93MOL   C22829852   4.300   4.188   4.124  0.0689 -0.0784  0.0455
   93MOL   C22929853   4.170   4.259   4.088  0.1068  0.4425  0.0551
   93MOL   C23029854   4.135   4.392   4.149  0.1283  0.0562 -0.3574
   93MOL   C23129855   4.087   4.217   3.989 -0.1086  0.6844  0.5421
   93MOL   H23229856   4.375   4.325   3.966  0.1785 -1.7653 -1.1872
   93MOL   H23329857   4.504   4.454   4.099  1.5897  0.2499  0.7645
   93MOL   H23429858   4.580   4.317   4.184  0.4992  0.6043  2.1515
   93MOL   H23529859   4.431   4.393   4.238 -1.8009 -0.1123 -2.2350
   93MOL   H23629860   4.287   4.096   4.068  0.9075 -0.1091 -0.0996
   93MOL   H23729861   4.059   4.443   4.090  0.2172 -0.8445 -1.2708
   93MOL   H23829862   4.226   4.451   4.148 -0.7148  1.3729 -0.4326
   93MOL   H23929863   4.098   4.380   4.250  1.5989  0.3963  0.2312
   93MOL   H24029864   4.103   4.122   3.940  0.5932  1.3387 -0.5240
   93MOL   H24129865   3.997   4.269   3.961  0.6545  0.5023 -2.3376
   93MOL   C24229866   4.322   4.141   4.276 -0.1864 -0.4533 -0.0466
   93MOL   C24329867   4.463   4.078   4.314 -0.4198  0.6208 -0.2813
   93MOL   C24429868   4.214   4.034   4.326  0.5151 -0.9123  0.5742
   93MOL   C24529869   4.185   3.918   4.227 -0.0045  0.0019 -0.3697
   93MOL   C24629870   4.277   3.798   4.236 -0.6966  0.6385  0.5496
   93MOL   C24729871   4.098   3.928   4.127 -0.4312 -0.0183  0.1494
   93MOL   H24829872   4.313   4.232   4.335 -0.3514 -0.4232 -0.1188
   93MOL   H24929873   4.493   4.009   4.235 -1.3626 -1.7041  1.3500
   93MOL   H25029874   4.475   4.021   4.406 -3.1202  2.2441  1.1463
   93MOL   H25129875   4.545   4.150   4.323 -0.3490  0.3070  1.8440
   93MOL   H25229876   4.265   3.982   4.407  0.3186  1.0727  2.0071
   93MOL   H25329877   4.380   3.815   4.269 -0.6593  0.7145  0.3977
   93MOL   H25429878   4.288   3.741   4.143 -0.9261  0.8821  0.3748
   93MOL   H25529879   4.239   3.729   4.311  0.5464  1.7594  2.2313
   93MOL   H25629880   4.035   4.015   4.128  1.0995  1.1086  1.6141
   93MOL   H25729881   4.086   3.854   4.049  2.1263 -1.0259  0.6690
   93MOL   C25829882   4.081   4.103   4.388 -0.4911  0.5991 -0.3498
   93MOL   C25929883   4.117   4.207   4.502  0.6459  0.3367  0.1601
   93MOL   C26029884   3.954   4.010   4.415  0.1025  0.4806 -0.0453
   93MOL   C26129885   3.829   4.106   4.394 -0.5710  0.0146  0.2343
   93MOL   C26229886   3.790   4.132   4.249  0.1883  0.2608 -0.0303
   93MOL   C26329887   3.768   4.165   4.500  0.0939 -0.6323  0.5332
   93MOL   H26429888   4.058   4.165   4.302  1.0077 -0.6748 -1.7077
   93MOL   H26529889   4.225   4.212   4.522  0.8060  1.7051 -0.9536
   93MOL   H26629890   4.053   4.188   4.588  0.2407 -0.4166 -0.3074
   93MOL   H26729891   4.081   4.304   4.467 -1.3354 -0.6072 -0.4931
   93MOL   H26829892   3.942   3.936   4.336 -1.5869  0.7412 -0.0462
   93MOL   H26929893   3.703   4.198   4.245  0.2993  0.3531 -0.8967
   93MOL   H27029894   3.747   4.048   4.196  0.7018 -0.3743  0.5509
   93MOL   H27129895   3.861   4.196   4.197  0.2723  0.0844 -0.1340
   93MOL   H27229896   3.794   4.152   4.604  0.2370 -1.4562  0.3996
   93MOL   H27329897   3.688   4.236   4.486 -1.0397 -1.5281  2.3129
   93MOL   C27429898   3.950   3.930   4.543 -0.0457 -0.0866 -0.5350
   93MOL   C27529899   4.093   3.860   4.573  0.4351 -0.1405  0.1783
   93MOL   C27629900   3.827   3.833   4.556 -0.5245 -0.1384  0.2495
   93MOL   C27729901   3.810   3.796   4.707  0.1412 -0.1515  0.7263
   93MOL   C27829902   3.752   3.906   4.797  0.3774 -0.0830  0.0587
   93MOL   C27929903   3.851   3.673   4.755 -0.1672 -0.0549 -0.0501
   93MOL   H28029904   3.940   4.001   4.626 -1.8325 -1.1833  0.2127
   93MOL   H28129905   4.085   3.788   4.655 -2.6425 -0.3243 -0.2401
   93MOL   H28229906   4.160   3.929   4.625 -0.2129  0.5131  0.1549
   93MOL   H28329907   4.151   3.811   4.495 -0.6765  0.4882 -1.0641
   93MOL   H28429908   3.737   3.893   4.539 -0.0456  0.2413 -1.0049
   93MOL   H28529909   3.821   3.990   4.802 -2.0907  1.9636  0.8411
   93MOL   H28629910   3.741   3.853   4.892  1.8620  0.3625  0.4920
   93MOL   H28729911   3.650   3.927   4.765  0.7105  0.7184 -0.4815
   93MOL   H28829912   3.901   3.610   4.683  0.0173  1.9251 -1.7123
   93MOL   H28929913   3.832   3.648   4.858 -0.1427 -0.1850 -0.0771
   93MOL   C29029914   3.820   3.710   4.464  0.2317 -0.5487  1.1301
   93MOL   C29129915   3.952   3.651   4.409  0.3315 -0.0121 -0.7611
   93MOL   C29229916   3.711   3.730   4.355 -1.1354  0.1290  0.7475
   93MOL   C29329917   3.570   3.769   4.400 -0.1660 -0.2114  0.3004
   93MOL   C29429918   3.512   3.692   4.517  0.0119 -0.3415 -0.2401
   93MOL   C29529919   3.511   3.882   4.357  0.3133  0.5720  0.3478
   93MOL   H29629920   3.780   3.620   4.511  0.8562 -3.1429 -3.1001
   93MOL   H29729921   4.001   3.719   4.339 -2.9038  3.1909 -0.0678
   93MOL   H29829922   3.939   3.557   4.354 -0.5063  0.0657 -0.7011
   93MOL   H29929923   4.027   3.623   4.483 -0.1329 -3.1589 -1.4191
   93MOL   H30029924   3.751   3.817   4.304 -0.5242 -0.0404  0.9375
   93MOL   H30129925   3.517   3.586   4.490  1.0428 -0.1540 -0.8041
   93MOL   H30229926   3.409   3.704   4.551  0.2650 -1.6064  1.0720
   93MOL   H30329927   3.569   3.700   4.610 -0.3020 -1.0364  0.0182
   93MOL   H30429928   3.564   3.947   4.289 -0.1347  1.6124  0.9738
   93MOL   H30529929   3.414   3.923   4.383 -0.3703  1.5270 -3.4936
   93MOL   C30629930   3.713   3.623   4.234 -0.4825  0.0329 -0.4037
   93MOL   C30729931   3.613   3.657   4.126  0.1785  0.0542  0.9199
   93MOL   C30829932   3.677   3.480   4.285  0.3215  0.6387  0.1445
   93MOL   C30929933   3.717   3.364   4.193  0.0742  0.1327 -0.1262
   93MOL   C31029934   3.864   3.338   4.153  0.2892  0.1051 -0.4888
   93MOL   C31129935   3.628   3.279   4.143 -0.2179  0.3492  0.4882
   93MOL   H31229936   3.812   3.635   4.189  1.7275  0.5855  4.2676
   93MOL   H31329937   3.616   3.592   4.039  1.0748  0.2252  0.8191
   93MOL   H31429938   3.635   3.751   4.077  0.0547  0.9532  2.5363
   93MOL   H31529939   3.513   3.652   4.171  0.7122 -0.2114  2.1141
   93MOL   H31629940   3.717   3.454   4.383 -0.0753  0.7358  0.3357
   93MOL   H31729941   3.926   3.317   4.241 -0.2278 -0.2656 -0.2068
   93MOL   H31829942   3.909   3.419   4.096  2.0086  0.0814  0.7781
   93MOL   H31929943   3.883   3.247   4.096  0.3729 -0.1000 -0.1362
   93MOL   H32029944   3.523   3.286   4.164  0.2190  0.9615  2.6050
   93MOL   H32129945   3.654   3.199   4.074 -0.6259  0.3425  0.3377
   93MOL   H32229946   3.569   3.477   4.298 -0.1630  2.9866 -2.7806
   94MOL     C129947   4.086   7.750   0.015  0.4156  0.1332  0.2615
   94MOL     C229948   4.229   7.777   7.857  0.4076  0.1428  0.2179
   94MOL     C329949   3.992   7.703   7.784  0.2921  0.1303  0.0238
   94MOL     C429950   3.950   7.823   7.697 -0.1567  0.5122 -0.3948
   94MOL     C529951   3.948   7.794   7.551  0.1440  0.7063 -0.1995
   94MOL     C629952   3.921   0.055   7.743 -0.2667  0.3656 -0.5823
   94MOL     H729953   4.086   7.680   0.098 -0.9237 -1.2620 -0.8776
   94MOL     H829954   4.302   7.794   0.044  2.1994  0.6598 -1.4949
   94MOL     H929955   4.239   7.858   7.785  1.2510  0.8280  1.0898
   94MOL    H1029956   4.264   7.690   7.802 -0.1075  0.1514 -0.1221
   94MOL    H1129957   4.053   7.635   7.724 -0.6041 -0.6148 -0.0480
   94MOL    H1229958   3.869   7.732   7.508  0.3818 -1.8289  2.9141
   94MOL    H1329959   4.039   7.742   7.523 -0.8987 -1.1072 -0.3234
   94MOL    H1429960   3.939   7.892   7.502  1.4928  0.8253 -0.2144
   94MOL    H1529961   3.921   0.069   7.850 -0.4465 -1.9726 -0.2504
   94MOL    H1629962   3.896   0.137   7.677  0.6722  0.3574 -0.9653
   94MOL    H1729963   4.043   7.842   0.054 -0.7282  0.5388 -1.8797
   94MOL    C1829964   3.870   7.627   7.828  0.2523  0.6673  0.5467
   94MOL    C1929965   3.770   7.706   0.021 -0.4882  0.2828  0.5958
   94MOL    C2029966   3.900   7.487   0.001 -0.0246 -0.0670 -0.3901
   94MOL    C2129967   4.013   7.412   7.814  0.6653 -0.3659 -0.3788
   94MOL    C2229968   3.994   7.369   7.669 -0.2193  0.5367 -0.0148
   94MOL    C2329969   4.127   7.386   7.876 -0.0447 -0.4403  0.0810
   94MOL    H2429970   3.813   7.619   7.735  0.0861  2.3905  0.4745
   94MOL    H2529971   3.681   7.653   0.054 -0.7832  1.1239  1.1809
   94MOL    H2629972   3.729   7.792   7.861 -1.2745 -1.0496 -1.0061
   94MOL    H2729973   3.818   7.743   0.112 -0.7423 -1.0311  1.2735
   94MOL    H2829974   3.940   7.509   0.100  0.9330  0.6491 -0.9233
   94MOL    H2929975   3.910   7.299   7.664  1.5375 -1.6435  0.1551
   94MOL    H3029976   4.086   7.331   7.625 -0.1410 -0.8750  1.3496
   94MOL    H3129977   3.968   7.458   7.612  1.6535  1.4548  0.5456
   94MOL    H3229978   4.136   7.416   0.087  1.2061 -0.8839  0.1070
   94MOL    H3329979   4.214   7.340   7.832 -0.2503  0.2290 -1.0316
   94MOL    C3429980   3.778   7.384   0.024 -0.5298 -0.2531 -0.1566
   94MOL    C3529981   3.676   7.400   7.807  0.2452 -1.0903 -0.0813
   94MOL    C3629982   3.724   7.379   0.170  0.3692  0.2608  0.1188
   94MOL    C3729983   3.841   7.373   0.274 -0.6194 -0.2832  0.2659
   94MOL    C3829984   3.834   7.467   0.394 -0.5335  0.1717  0.6836
   94MOL    C3929985   3.955   7.298   0.255 -0.2676  0.2699  0.2054
   94MOL    H4029986   3.831   7.289   0.009  0.0564 -0.0646  0.6963
   94MOL    H4129987   3.721   7.416   7.709 -0.8729 -1.2240 -0.6164
   94MOL    H4229988   3.604   7.480   7.819  2.0342  0.5012  0.4222
   94MOL    H4329989   3.610   7.314   7.803 -0.2902 -0.7061  0.3734
   94MOL    H4429990   3.682   7.479   0.175  2.4610  1.1959 -0.5854
   94MOL    H4529991   3.935   7.481   0.433 -0.3939  0.3485  0.2620
   94MOL    H4629992   3.767   7.431   0.472  1.0357 -1.0917  1.4860
   94MOL    H4729993   3.810   7.569   0.363 -0.7198  0.2421  1.0624
   94MOL    H4829994   3.960   7.228   0.173  0.1546  2.1845 -1.4505
   94MOL    H4929995   4.029   7.308   0.333 -0.1092 -3.6335  0.6660
   94MOL    C5029996   3.614   7.275   0.200  0.7794  0.3243 -0.3031
   94MOL    C5129997   3.644   7.127   0.143 -0.1707 -1.5034 -0.5368
   94MOL    C5229998   3.466   7.321   0.173  0.6119 -0.2021  0.5599
   94MOL    C5329999   3.438   7.459   0.237  0.1549 -0.2702 -1.1353
   94MOL    C5430000   3.436   7.468   0.387  0.0197 -0.2595 -0.4196
   94MOL    C5530001   3.410   7.571   0.163 -0.1212  0.7669 -0.3780
   94MOL    H5630002   3.620   7.269   0.308 -1.7136 -0.1359 -0.1608
   94MOL    H5730003   3.584   7.047   0.186 -1.9610 -0.5759 -1.2453
   94MOL    H5830004   3.750   7.104   0.151  0.0160 -0.5698 -0.2439
   94MOL    H5930005   3.627   7.124   0.035 -2.4476  3.5596 -0.4747
   94MOL    H6030006   3.462   7.341   0.066 -0.4609 -1.2263  0.3995
   94MOL    H6130007   3.438   7.573   0.416 -1.1315  0.2849 -2.1495
   94MOL    H6230008   3.517   7.409   0.429  0.0224  0.8030  1.0848
   94MOL    H6330009   3.337   7.440   0.425 -1.1725  0.3723 -2.9524
   94MOL    H6430010   3.406   7.562   0.056 -0.7201  1.5064 -0.4268
   94MOL    H6530011   3.380   7.669   0.198 -0.9107  1.1337 -2.0648
   94MOL    C6630012   3.357   7.216   0.201  0.0474 -0.3149  0.3555
   94MOL    C6730013   3.379   7.147   0.336 -0.7131 -0.0843 -0.6263
   94MOL    C6830014   3.318   7.126   0.078 -0.7919  0.4187  0.6752
   94MOL    C6930015   3.302   7.201   7.838  0.5215 -0.7577 -0.2409
   94MOL    C7030016   3.378   7.135   7.721  0.0443 -0.3500  0.1165
   94MOL    C7130017   3.240   7.318   7.826 -0.1413 -0.2187  0.0818
   94MOL    H7230018   3.273   7.284   0.213  0.4960  0.7494 -2.1450
   94MOL    H7330019   3.300   7.078   0.367 -0.5327  0.3579  0.8673
   94MOL    H7430020   3.375   7.222   0.414  1.7436 -0.7964  0.2207
   94MOL    H7530021   3.474   7.104   0.369  0.9268  4.1827  0.4801
   94MOL    H7630022   3.400   7.063   0.043 -1.4307 -1.0245  1.7185
   94MOL    H7730023   3.354   7.030   7.705  0.9165 -0.4781 -0.3702
   94MOL    H7830024   3.484   7.147   7.744  0.0385 -2.0841  1.1257
   94MOL    H7930025   3.354   7.184   7.627  0.7864 -1.8169 -0.8604
   94MOL    H8030026   3.199   7.374   0.017  0.9535  1.2937 -0.3739
   94MOL    H8130027   3.233   7.363   7.728 -1.9789 -0.6518 -0.0119
   94MOL    C8230028   3.202   7.020   0.104 -0.1657  0.5030 -0.7308
   94MOL    C8330029   3.079   7.076   0.177  0.1992  0.1326  0.2248
   94MOL    C8430030   3.249   6.875   0.155  0.6279  0.4957  0.4544
   94MOL    C8530031   3.355   6.803   0.071  0.9244 -0.1852  0.0309
   94MOL    C8630032   3.320   6.759   7.824 -0.1194 -0.1884 -0.2403
   94MOL    C8730033   3.476   6.777   0.116 -0.1415  0.3942  0.2535
   94MOL    H8830034   3.171   7.001   0.002  0.0974 -0.9077 -0.5570
   94MOL    H8930035   3.099   7.106   0.280 -1.5871 -0.8388  0.8612
   94MOL    H9030036   3.000   7.003   0.165  0.2622  0.0852  0.0946
   94MOL    H9130037   3.040   7.166   0.128 -1.4931 -1.1279 -0.7713
   94MOL    H9230038   3.306   6.897   0.245  1.0421  0.8854  0.0984
   94MOL    H9330039   3.260   6.838   7.778 -1.8562 -1.2874  0.0756
   94MOL    H9430040   3.257   6.670   7.816 -0.0731 -0.3881  1.4599
   94MOL    H9530041   3.411   6.737   7.768  1.3011 -0.5936  2.1967
   94MOL    H9630042   3.511   6.808   0.214  1.9281  1.1278 -0.7018
   94MOL    H9730043   3.547   6.734   0.048 -1.0738  1.2323 -1.2709
   94MOL    C9830044   3.146   6.762   0.195 -0.5947  0.5229  0.2194
   94MOL    C9930045   3.038   6.742   0.089  0.5452 -0.0816  0.3538
   94MOL   C10030046   3.085   6.758   0.341  1.4102 -1.0354  0.6683
   94MOL   C10130047   3.198   6.775   0.449  0.0375  0.0143  0.3903
   94MOL   C10230048   3.296   6.664   0.451  0.8208 -0.3575 -0.4393
   94MOL   C10330049   3.220   6.883   0.525 -0.1067 -0.1392 -0.4015
   94MOL   H10430050   3.199   6.667   0.200 -0.7276  0.5256  1.7652
   94MOL   H10530051   2.940   6.783   0.114  0.4454  1.5161 -2.4489
   94MOL   H10630052   3.027   6.635   0.075  0.5768  0.1550 -1.6145
   94MOL   H10730053   3.063   6.787   7.886 -1.3614 -1.1202 -0.6656
   94MOL   H10830054   3.044   6.859   0.348  0.6779 -1.2406 -0.5599
   94MOL   H10930055   3.321   6.623   0.352 -1.7853  1.4131 -1.8781
   94MOL   H11030056   3.256   6.585   0.515 -0.2266  1.0539  0.6617
   94MOL   H11130057   3.392   6.693   0.494 -0.0511 -0.7122  1.7640
   94MOL   H11230058   3.160   6.973   0.522  0.4978  0.2236 -1.8177
   94MOL   H11330059   3.301   6.884   0.596 -0.3911  3.1940 -0.0768
   94MOL   C11430060   2.979   6.643   0.382  0.2813  0.4093 -0.0610
   94MOL   C11530061   3.023   6.503   0.321  0.1449 -0.9186  0.4081
   94MOL   C11630062   2.827   6.690   0.374 -0.7025  0.6698  1.1465
   94MOL   C11730063   2.796   6.827   0.429  1.6861 -0.3571  0.1838
   94MOL   C11830064   2.678   6.902   0.364  0.5254  0.1863  0.1664
   94MOL   C11930065   2.867   6.893   0.523  0.3712 -0.6035  0.2085
   94MOL   H12030066   3.000   6.633   0.488 -2.0791  1.1030  0.4841
   94MOL   H12130067   2.988   6.491   0.219  0.0051 -1.6631  0.5425
   94MOL   H12230068   2.995   6.415   0.378  0.1019 -2.4509 -1.8979
   94MOL   H12330069   3.130   6.480   0.311  0.2872 -1.2786  2.5105
   94MOL   H12430070   2.807   6.712   0.270 -1.9844  1.2357  1.5007
   94MOL   H12530071   2.586   6.872   0.414  0.1604  2.1518  0.7208
   94MOL   H12630072   2.667   6.866   0.262  0.8187 -0.8529  0.5016
   94MOL   H12730073   2.679   7.011   0.365  1.1877  0.1827  0.5750
   94MOL   H12830074   2.956   6.850   0.566  0.2001 -1.1387  0.0370
   94MOL   H12930075   2.834   6.989   0.560 -0.6092 -1.0263  0.4337
   94MOL   C13030076   2.730   6.586   0.446  0.6838  0.0005 -0.1609
   94MOL   C13130077   2.764   6.554   0.596 -0.4101  0.5067  0.4833
   94MOL   C13230078   2.684   6.460   0.368 -0.4314  0.0317 -0.6454
   94MOL   C13330079   2.640   6.496   0.227  0.5545 -0.7263  0.5380
   94MOL   C13430080   2.704   6.418   0.111  0.1761 -0.1604 -0.0499
   94MOL   C13530081   2.557   6.597   0.201 -0.3488  0.3083 -0.4506
   94MOL   H13630082   2.634   6.633   0.469 -0.0392 -2.7964  2.9289
   94MOL   H13730083   2.824   6.463   0.595 -1.0840  0.0344 -2.4056
   94MOL   H13830084   2.677   6.532   0.657 -0.8146  0.3999 -0.1230
   94MOL   H13930085   2.818   6.632   0.649 -0.5114 -0.9536  2.7614
   94MOL   H14030086   2.778   6.410   0.345 -1.1090 -0.8628 -1.5284
   94MOL   H14130087   2.668   6.316   0.101  1.8172 -0.4588 -3.6662
   94MOL   H14230088   2.811   6.403   0.128  0.4515  2.3132  0.6477
   94MOL   H14330089   2.694   6.462   0.012  2.8936 -0.0948 -0.3369
   94MOL   H14430090   2.532   6.664   0.282 -0.6370 -1.5803  1.0742
   94MOL   H14530091   2.516   6.613   0.102  1.1441 -1.0141 -1.3085
   94MOL   C14630092   2.588   6.357   0.449 -0.4096 -0.0819  0.3733
   94MOL   C14730093   2.627   6.209   0.430 -0.3650 -0.2894  0.1645
   94MOL   C14830094   2.428   6.394   0.455  0.2043 -0.4380  0.1775
   94MOL   C14930095   2.378   6.409   0.598 -0.3582  0.0206 -0.2457
   94MOL   C15030096   2.382   6.548   0.658 -0.8800 -1.2214  0.3669
   94MOL   C15130097   2.351   6.314   0.686 -0.0129 -0.1557 -0.1004
   94MOL   H15230098   2.621   6.367   0.552  0.4240  1.5549 -0.0379
   94MOL   H15330099   2.578   6.159   0.514  0.9363 -0.1976  0.9847
   94MOL   H15430100   2.730   6.184   0.455 -0.0889  1.0974  0.4348
   94MOL   H15530101   2.609   6.163   0.333 -1.0249  0.8459 -0.2626
   94MOL   H15630102   2.421   6.497   0.421 -0.3145 -0.9681 -1.3477
   94MOL   H15730103   2.292   6.600   0.627 -0.2926 -0.1230  0.5000
   94MOL   H15830104   2.458   6.614   0.616  1.6608 -0.6990  5.3758
   94MOL   H15930105   2.384   6.548   0.767 -1.0042  0.6309  0.3732
   94MOL   H16030106   2.351   6.212   0.650 -1.9509  0.3718 -1.7220
   94MOL   H16130107   2.327   6.344   0.787 -0.5499 -1.0259  0.0372
   94MOL   C16230108   2.336   6.291   0.373 -0.2420 -0.3074  0.5365
   94MOL   C16330109   2.381   6.281   0.227  0.1667  1.0831 -0.0017
   94MOL   C16430110   2.175   6.303   0.379 -0.1678 -0.1480  0.7316
   94MOL   C16530111   2.117   6.166   0.374 -0.0979  0.1845  0.2269
   94MOL   C16630112   2.088   6.108   0.512 -0.5734  0.2283 -0.1143
   94MOL   C16730113   2.090   6.101   0.257 -0.3824  0.4157 -0.1703
   94MOL   H16830114   2.364   6.195   0.415  0.2936 -0.7522 -0.8040
   94MOL   H16930115   2.359   6.366   0.164 -2.1084  1.4205  1.1825
   94MOL   H17030116   2.344   6.185   0.190  2.5854  0.4614 -0.8624
   94MOL   H17130117   2.488   6.267   0.217  0.6192  3.0399  1.8154
   94MOL   H17230118   2.170   6.337   0.482 -3.2394  1.6462  0.0372
   94MOL   H17330119   2.059   6.174   0.594 -0.4286 -1.0132  0.9539
   94MOL   H17430120   2.162   6.034   0.541 -1.9368 -0.9989  0.3150
   94MOL   H17530121   1.998   6.049   0.492 -1.3809  1.3872  0.0346
   94MOL   H17630122   2.109   6.142   0.159  1.1122  0.1889  0.0198
   94MOL   H17730123   2.043   6.005   0.266 -2.3880  1.5735  2.3980
   94MOL   C17830124   2.108   6.409   0.284 -0.2731 -0.6266 -0.1090
   94MOL   C17930125   2.173   6.547   0.279  0.5396  0.0881  0.1577
   94MOL   C18030126   1.950   6.422   0.280 -0.0600  0.2499  0.1309
   94MOL   C18130127   1.903   6.481   0.141  0.2749 -0.1447 -0.0460
   94MOL   C18230128   1.875   6.379   0.021  0.3955 -0.5747  0.2118
   94MOL   C18330129   1.893   6.613   0.108 -0.1899  0.4115 -0.2054
   94MOL   H18430130   2.130   6.383   0.181 -1.2144 -2.0602  0.0503
   94MOL   H18530131   2.129   6.613   0.204 -1.6605 -3.1579 -1.5735
   94MOL   H18630132   2.278   6.538   0.254  0.6551  0.9839  0.3097
   94MOL   H18730133   2.161   6.607   0.369 -1.4045 -0.1776  0.1182
   94MOL   H18830134   1.925   6.316   0.285  1.0429 -0.0569 -0.7394
   94MOL   H18930135   1.811   6.295   0.047  1.0470 -1.3524 -0.6691
   94MOL   H19030136   1.974   6.340   7.890  0.5869 -1.2690  2.1208
   94MOL   H19130137   1.835   6.432   7.827  2.4439  2.4793  1.0655
   94MOL   H19230138   1.895   6.697   0.175 -1.4760  1.9721 -2.0677
   94MOL   H19330139   1.876   6.630   0.002 -2.6892  0.4313  0.1547
   94MOL   C19430140   1.869   6.493   0.400  0.1110 -0.8827  0.4821
   94MOL   C19530141   1.923   6.450   0.532 -0.2270  0.1940  0.6270
   94MOL   C19630142   1.715   6.491   0.402  0.1443 -0.7742 -0.2778
   94MOL   C19730143   1.667   6.356   0.335  0.1142  0.3676 -0.6324
   94MOL   C19830144   1.692   6.231   0.412  0.5712 -0.2443 -0.5507
   94MOL   C19930145   1.618   6.349   0.211  0.3982  0.2372  0.2824
   94MOL   H20030146   1.903   6.596   0.400 -0.5796 -0.6461 -0.9939
   94MOL   H20130147   1.909   6.343   0.542  0.3501  0.2127  1.6186
   94MOL   H20230148   1.888   6.504   0.620 -1.2750 -0.3005  0.5179
   94MOL   H20330149   2.027   6.480   0.524 -0.2259 -0.1701 -0.9016
   94MOL   H20430150   1.686   6.478   0.506  0.0156  1.0581 -0.0621
   94MOL   H20530151   1.795   6.195   0.404  0.0619 -1.6527 -0.9146
   94MOL   H20630152   1.625   6.147   0.392  0.7366 -0.5222  0.0454
   94MOL   H20730153   1.685   6.257   0.517  0.5442 -1.4945 -0.2314
   94MOL   H20830154   1.608   6.432   0.142 -0.0135  1.0043  1.2628
   94MOL   H20930155   1.586   6.253   0.173 -0.0600  0.5331 -0.0937
   94MOL   C21030156   1.653   6.628   0.369 -0.4461 -0.5258  0.5454
   94MOL   C21130157   1.718   6.756   0.435  0.0557 -0.5875  0.4150
   94MOL   C21230158   1.497   6.635   0.375  0.5492  0.3299 -0.0471
   94MOL   C21330159   1.434   6.755   0.300 -0.6373  0.0358 -0.0451
   94MOL   C21430160   1.429   6.743   0.156  0.7851  0.5208  0.2956
   94MOL   C21530161   1.387   6.863   0.368 -0.0391 -0.7149  0.3343
   94MOL   H21630162   1.674   6.636   0.263 -2.9522 -0.0528  0.0353
   94MOL   H21730163   1.806   6.791   0.381  0.7500 -1.5866  0.8742
   94MOL   H21830164   1.739   6.732   0.539 -0.5036 -0.7648  0.4905
   94MOL   H21930165   1.649   6.840   0.442 -1.4728 -1.9341  1.9702
   94MOL   H22030166   1.471   6.552   0.309 -0.6229 -1.5300  2.6597
   94MOL   H22130167   1.524   6.750   0.104  0.5198 -0.4940 -0.3400
   94MOL   H22230168   1.355   6.809   0.108  0.6698 -1.9799 -3.1739
   94MOL   H22330169   1.393   6.646   0.123  0.0026  1.2933 -1.2274
   94MOL   H22430170   1.409   6.866   0.474 -0.6808 -0.9159  0.4716
   94MOL   H22530171   1.341   6.947   0.318  1.6689  0.0359 -0.0492
   94MOL   C22630172   1.421   6.607   0.514 -0.0705 -0.1333 -0.7783
   94MOL   C22730173   1.511   6.651   0.632 -0.8921  0.4761  0.4270
   94MOL   C22830174   1.353   6.464   0.528  0.6431 -0.8290  0.0677
   94MOL   C22930175   1.270   6.427   0.407  0.5197  0.1083  0.1538
   94MOL   C23030176   1.276   6.280   0.373 -0.0733  0.0445  0.0891
   94MOL   C23130177   1.209   6.515   0.325 -0.4172 -0.2413  0.5293
   94MOL   H23230178   1.332   6.669   0.520  0.1975  0.0447  2.6532
   94MOL   H23330179   1.443   6.673   0.714 -1.5615 -0.4389  0.1173
   94MOL   H23430180   1.551   6.751   0.616 -2.0741  0.7727 -0.7497
   94MOL   H23530181   1.589   6.585   0.669 -1.3986 -2.1711 -2.9144
   94MOL   H23630182   1.436   6.393   0.524  0.7335 -0.6536 -1.6648
   94MOL   H23730183   1.208   6.254   0.291 -1.3534 -1.1506  1.4843
   94MOL   H23830184   1.243   6.222   0.459 -0.4349  1.6605  1.0469
   94MOL   H23930185   1.377   6.247   0.350  0.1026  1.0808 -0.6262
   94MOL   H24030186   1.207   6.622   0.339 -0.3144 -0.2957  0.9638
   94MOL   H24130187   1.158   6.487   0.234  0.0897  2.4760 -0.6315
   94MOL   C24230188   1.272   6.428   0.660  0.4047 -0.4517  0.0254
   94MOL   C24330189   1.154   6.518   0.684 -0.1871  0.4613  0.4684
   94MOL   C24430190   1.352   6.398   0.795 -0.4222  1.3096 -0.0102
   94MOL   C24530191   1.465   6.300   0.760 -0.2600  0.7153  0.5197
   94MOL   C24630192   1.593   6.332   0.835  0.3103 -0.3682  0.6339
   94MOL   C24730193   1.451   6.193   0.675 -0.1044  0.6749 -1.0005
   94MOL   H24830194   1.217   6.334   0.660  0.7065 -0.6355 -1.6177
   94MOL   H24930195   1.118   6.548   0.585 -0.4270  0.0691  0.4381
   94MOL   H25030196   1.202   6.606   0.729  0.7817  0.3191 -0.2587
   94MOL   H25130197   1.072   6.473   0.739 -1.8889  2.3266 -0.4596
   94MOL   H25230198   1.404   6.489   0.824 -0.9848  1.6442 -0.0432
   94MOL   H25330199   1.652   6.241   0.825  0.7667  0.1286 -1.3791
   94MOL   H25430200   1.574   6.361   0.938  0.5237  1.1816  0.2456
   94MOL   H25530201   1.649   6.413   0.788  1.3655 -1.0067  0.7709
   94MOL   H25630202   1.359   6.171   0.623 -0.1235 -0.3951 -0.5211
   94MOL   H25730203   1.533   6.128   0.649 -1.0434 -1.6095  1.4993
   94MOL   C25830204   1.275   6.350   0.920 -0.5803  0.5075  0.9686
   94MOL   C25930205   1.183   6.236   0.886  0.5807  0.5188 -0.7770
   94MOL   C26030206   1.187   6.456   1.006 -1.4270 -0.5353  0.0297
   94MOL   C26130207   1.247   6.596   1.004 -0.4503 -0.4153 -0.2334
   94MOL   C26230208   1.386   6.616   1.050 -0.6183  0.9833  0.3780
   94MOL   C26330209   1.172   6.706   0.974 -0.2462  0.2969 -0.9030
   94MOL   H26430210   1.355   6.319   0.988 -1.7069 -2.4482  1.0238
   94MOL   H26530211   1.095   6.267   0.829 -1.5521  0.5369  2.4025
   94MOL   H26630212   1.147   6.192   0.979  1.3898 -1.3343 -1.3216
   94MOL   H26730213   1.239   6.154   0.841  0.1434 -0.2752  0.0977
   94MOL   H26830214   1.092   6.469   0.954  0.2549 -1.3080 -3.4689
   94MOL   H26930215   1.396   6.634   1.157  1.8050 -2.8137  0.8574
   94MOL   H27030216   1.444   6.692   0.998  0.1879 -0.6908 -1.2467
   94MOL   H27130217   1.446   6.525   1.040  0.1340  1.5196 -0.0574
   94MOL   H27230218   1.070   6.689   0.942  0.2945 -1.3271 -1.8086
   94MOL   H27330219   1.227   6.800   0.974  0.3415 -0.0463 -0.8144
   94MOL   C27430220   1.162   6.411   1.157  0.2549 -0.3258 -0.0760
   94MOL   C27530221   1.285   6.335   1.221 -0.0764  0.3045 -0.8903
   94MOL   C27630222   1.031   6.344   1.197  0.0359 -0.9139  0.4831
   94MOL   C27730223   0.912   6.388   1.120  0.4714 -0.2363  0.4423
   94MOL   C27830224   0.863   6.524   1.145 -0.2868  0.5574  0.6527
   94MOL   C27930225   0.855   6.310   1.027 -0.0741 -0.4272  0.9409
   94MOL   H28030226   1.173   6.506   1.209  0.8694 -1.7153  2.3901
   94MOL   H28130227   1.288   6.228   1.205 -2.1299  0.0727  0.0946
   94MOL   H28230228   1.273   6.350   1.328 -3.0790  0.5703 -1.2076
   94MOL   H28330229   1.379   6.387   1.201 -1.1443  2.4868 -0.4583
   94MOL   H28430230   1.040   6.240   1.168  0.5526 -0.1907 -2.0486
   94MOL   H28530231   0.796   6.544   1.061  1.2359 -0.4878 -0.8405
   94MOL   H28630232   0.954   6.582   1.151 -0.5480  1.2103 -1.3563
   94MOL   H28730233   0.817   6.539   1.243  0.8915  0.2077  1.2578
   94MOL   H28830234   0.895   6.214   0.999  3.2760  1.8252 -2.5358
   94MOL   H28930235   0.768   6.340   0.971  0.7589 -0.3156 -0.3148
   94MOL   C29030236   1.008   6.347   1.353  0.1674  0.1885 -0.4944
   94MOL   C29130237   1.046   6.478   1.425 -0.1012 -0.1595  0.0309
   94MOL   C29230238   1.051   6.211   1.422 -0.4394 -0.0053 -0.1574
   94MOL   C29330239   0.961   6.087   1.383  0.4100  0.4680 -0.0263
   94MOL   C29430240   0.815   6.105   1.405  0.2844  0.8609  0.9350
   94MOL   C29530241   1.008   5.975   1.327  0.2173  0.3837 -0.7476
   94MOL   H29630242   0.900   6.351   1.365  0.2907  0.3069  0.5593
   94MOL   H29730243   1.015   6.574   1.385  0.8607  0.4861  0.8054
   94MOL   H29830244   1.152   6.490   1.449 -0.3058 -0.2286  0.9834
   94MOL   H29930245   0.993   6.468   1.519 -0.4373  0.6744 -0.0696
   94MOL   H30030246   1.146   6.181   1.377  0.0080  1.6958 -0.3654
   94MOL   H30130247   0.761   6.010   1.403  1.1492  0.3718  0.6400
   94MOL   H30230248   0.787   6.169   1.321  2.4642  1.3601  0.5579
   94MOL   H30330249   0.788   6.151   1.500 -4.4235 -0.8623  0.5763
   94MOL   H30430250   1.112   5.951   1.314  0.5970  0.5411  1.7439
   94MOL   H30530251   0.942   5.898   1.290  0.1199 -0.4445  1.1212
   94MOL   C30630252   1.091   6.207   1.580 -0.0290  0.8226 -0.4523
   94MOL   C30730253   1.159   6.071   1.624  0.5879 -0.3859 -0.3914
   94MOL   C30830254   0.978   6.235   1.669  0.4577 -0.5117  0.2701
   94MOL   C30930255   1.031   6.279   1.808  0.7739 -0.2145  0.3651
   94MOL   C31030256   1.077   6.424   1.828  0.2965 -0.0014 -0.2236
   94MOL   C31130257   1.031   6.194   1.913 -0.1879  0.3844 -0.5036
   94MOL   H31230258   1.171   6.280   1.587 -0.6176  1.7270 -2.7728
   94MOL   H31330259   1.086   5.991   1.612  0.7972 -0.4274 -1.3753
   94MOL   H31430260   1.184   6.079   1.730  0.9625 -0.8030 -0.4487
   94MOL   H31530261   1.253   6.047   1.576  0.8009 -0.1262 -0.1083
   94MOL   H31630262   0.910   6.308   1.624  1.7214  0.8668  0.5450
   94MOL   H31730263   1.073   6.454   1.933  0.1675  4.0233 -1.3034
   94MOL   H31830264   1.010   6.498   1.784  1.0282  1.1406  0.5550
   94MOL   H31930265   1.180   6.435   1.794 -0.0706  1.2999 -0.9294
   94MOL   H32030266   0.993   6.094   1.898 -0.7702  0.7985 -1.9456
   94MOL   H32130267   1.063   6.223   2.012  2.6653 -1.2522 -0.9120
   94MOL   H32230268   0.918   6.146   1.683 -0.8690  0.3601  0.1682
   95MOL     C130269   3.210   2.858   4.496  0.1870 -0.3517 -0.6233
   95MOL     C230270   3.295   2.748   4.559 -0.4688 -0.1349  0.0047
   95MOL     C330271   3.072   2.876   4.562 -0.2396 -0.0652  0.1342
   95MOL     C430272   2.966   2.770   4.512 -0.0482  0.3427 -0.3411
   95MOL     C530273   2.901   2.680   4.618 -0.4727  0.7036  0.1921
   95MOL     C630274   2.942   2.739   4.380  0.3025 -0.5926 -0.0376
   95MOL     H730275   3.275   2.946   4.501  0.7844 -0.7554 -1.2412
   95MOL     H830276   3.332   2.774   4.658  1.4706 -2.9583  0.1015
   95MOL     H930277   3.384   2.743   4.496  1.0078  1.7817  1.8693
   95MOL    H1030278   3.245   2.652   4.570 -1.3848  0.3116 -0.2063
   95MOL    H1130279   3.085   2.842   4.665  3.2995 -1.9674 -0.8399
   95MOL    H1230280   2.975   2.619   4.670  0.7615 -1.0557 -3.3968
   95MOL    H1330281   2.825   2.617   4.572 -2.0604  2.2772  0.6297
   95MOL    H1430282   2.843   2.742   4.686 -0.9119  1.8685 -1.2209
   95MOL    H1530283   2.983   2.783   4.290  1.2809 -0.5919  0.3993
   95MOL    H1630284   2.872   2.659   4.362 -1.6533  1.2734 -1.1546
   95MOL    H1730285   3.196   2.836   4.390 -0.9661  0.0651 -0.5627
   95MOL    C1830286   3.024   3.024   4.550 -0.6966  0.1790 -0.2203
   95MOL    C1930287   3.030   3.070   4.402  0.2926 -0.4260  0.3754
   95MOL    C2030288   3.102   3.122   4.648  0.1344  0.0503  0.0148
   95MOL    C2130289   3.075   3.088   4.793  0.1274 -0.2282  0.2188
   95MOL    C2230290   3.185   3.135   4.895  0.5333  0.1810  0.5894
   95MOL    C2330291   2.967   3.023   4.843  0.0849  0.0951 -0.0584
   95MOL    H2430292   2.918   3.024   4.577 -0.7523 -1.3811 -0.4018
   95MOL    H2530293   2.964   3.154   4.383  0.3570 -0.3889  0.3135
   95MOL    H2630294   3.007   3.000   4.322  0.2963 -2.1628  1.8585
   95MOL    H2730295   3.131   3.100   4.373  0.2683  1.4400  2.1418
   95MOL    H2830296   3.208   3.099   4.635  0.7353  2.5008  0.3970
   95MOL    H2930297   3.284   3.121   4.851 -0.3082 -0.9448 -1.0281
   95MOL    H3030298   3.185   3.096   4.996  1.9730 -0.7525  0.2417
   95MOL    H3130299   3.168   3.240   4.917  1.7478  0.5956 -0.3591
   95MOL    H3230300   2.878   2.995   4.789 -1.2337  2.2254  0.9534
   95MOL    H3330301   2.972   3.015   4.951 -2.1847  0.4800  0.0934
   95MOL    C3430302   3.075   3.277   4.627 -0.1017  0.2937 -0.1302
   95MOL    C3530303   2.920   3.312   4.614 -0.0868  0.9384  0.4123
   95MOL    C3630304   3.162   3.342   4.519  0.0731 -0.5791  0.1127
   95MOL    C3730305   3.312   3.319   4.535 -0.3869 -0.0180 -0.0797
   95MOL    C3830306   3.373   3.270   4.410  0.3442  0.3038 -0.3824
   95MOL    C3930307   3.375   3.327   4.655 -0.1541  0.1944  0.1679
   95MOL    H4030308   3.107   3.320   4.721  2.7124 -0.7651 -0.5434
   95MOL    H4130309   2.910   3.420   4.627 -1.0789  1.1745 -2.0014
   95MOL    H4230310   2.856   3.267   4.689 -0.5438  0.3039 -0.3454
   95MOL    H4330311   2.878   3.288   4.516 -0.2969 -2.3690  1.2643
   95MOL    H4430312   3.130   3.294   4.427 -1.7699 -0.2954  0.5993
   95MOL    H4530313   3.318   3.188   4.363 -0.7514  0.3763  0.7340
   95MOL    H4630314   3.475   3.233   4.421  0.3198 -0.1258 -1.5737
   95MOL    H4730315   3.376   3.357   4.345 -0.1574  0.9828  0.4795
   95MOL    H4830316   3.330   3.342   4.752  2.8416  0.7459  1.5303
   95MOL    H4930317   3.480   3.302   4.647 -0.1643  0.3225 -0.4157
   95MOL    C5030318   3.135   3.498   4.495 -0.9831  0.1950  0.2266
   95MOL    C5130319   3.136   3.570   4.632  0.3261  0.0534  0.5534
   95MOL    C5230320   3.019   3.551   4.391 -0.4160  1.0441 -0.4561
   95MOL    C5330321   3.027   3.473   4.260  0.2753 -0.7433 -0.0025
   95MOL    C5430322   2.893   3.410   4.215  0.6077  0.4817  0.2595
   95MOL    C5530323   3.145   3.454   4.194  0.3806 -0.3584 -0.1649
   95MOL    H5630324   3.232   3.527   4.457 -1.6334 -0.6640 -2.1620
   95MOL    H5730325   3.057   3.536   4.699 -1.5051  1.1991 -0.9870
   95MOL    H5830326   3.121   3.676   4.617  0.7758  0.2378  1.3795
   95MOL    H5930327   3.230   3.567   4.687  0.0989 -0.4957  0.9228
   95MOL    H6030328   2.929   3.516   4.441 -0.3175 -2.6001 -2.6598
   95MOL    H6130329   2.822   3.486   4.183 -0.5505 -0.1624  1.2401
   95MOL    H6230330   2.846   3.360   4.300 -0.1857  2.7960  1.2209
   95MOL    H6330331   2.898   3.341   4.131 -0.6875  1.5137 -0.6813
   95MOL    H6430332   3.230   3.506   4.236  1.6460 -3.0261  0.6357
   95MOL    H6530333   3.154   3.396   4.103  2.5020  0.6295 -0.6386
   95MOL    C6630334   3.006   3.706   4.365  0.2735 -0.1876  0.2501
   95MOL    C6730335   3.140   3.768   4.344  0.2140 -0.4563  0.5536
   95MOL    C6830336   2.904   3.771   4.471 -0.1412 -0.1204  0.0827
   95MOL    C6930337   2.764   3.703   4.474  0.2014 -0.4483 -0.2291
   95MOL    C7030338   2.675   3.715   4.348  0.2448 -0.2118  0.0907
   95MOL    C7130339   2.708   3.643   4.580  0.2982 -0.4110  0.8603
   95MOL    H7230340   2.958   3.712   4.267  2.2824 -0.1439 -0.7677
   95MOL    H7330341   3.139   3.859   4.283  0.4138 -0.7404  0.1216
   95MOL    H7430342   3.205   3.704   4.284 -1.0616 -2.1375  0.9232
   95MOL    H7530343   3.185   3.787   4.441  0.1924 -2.3864  0.9607
   95MOL    H7630344   2.943   3.749   4.570 -0.5733  0.0549  0.2909
   95MOL    H7730345   2.717   3.712   4.247  0.1710  2.8351 -0.0822
   95MOL    H7830346   2.628   3.813   4.359 -2.2449 -1.6251  2.4832
   95MOL    H7930347   2.590   3.646   4.345 -0.3622  0.5755 -2.5012
   95MOL    H8030348   2.749   3.624   4.678  1.2729 -2.7016  0.0527
   95MOL    H8130349   2.606   3.611   4.561  0.6425  0.2755 -2.6079
   95MOL    C8230350   2.886   3.928   4.474 -0.3942 -0.5713  0.1128
   95MOL    C8330351   2.862   3.976   4.329 -0.4740  0.1910  0.1364
   95MOL    C8430352   2.979   4.012   4.570  0.9805 -0.3432  0.2742
   95MOL    C8530353   3.010   3.945   4.703  0.4217  1.1723 -0.4436
   95MOL    C8630354   2.890   3.918   4.793  0.2280 -0.0118  0.0441
   95MOL    C8730355   3.140   3.929   4.743 -0.0803  0.1207 -0.5407
   95MOL    H8830356   2.788   3.940   4.521 -0.6689 -1.6558 -0.1786
   95MOL    H8930357   2.801   3.911   4.266 -2.9876  0.8688  1.7908
   95MOL    H9030358   2.960   3.985   4.281 -0.6460 -0.6437 -0.3898
   95MOL    H9130359   2.814   4.074   4.330 -0.2503  0.3670 -2.2430
   95MOL    H9230360   3.080   3.994   4.531  0.6400 -2.0049  0.1268
   95MOL    H9330361   2.793   3.923   4.745 -0.5255  1.2596  1.6795
   95MOL    H9430362   2.897   4.004   4.860 -4.0855  0.8762 -0.4915
   95MOL    H9530363   2.908   3.820   4.836  1.2221  0.1920  0.1218
   95MOL    H9630364   3.229   3.951   4.687 -0.9989  0.7480 -1.7694
   95MOL    H9730365   3.173   3.880   4.834 -0.3667  0.1904 -0.3975
   95MOL    C9830366   2.950   4.162   4.592  0.7345  0.2123 -0.3117
   95MOL    C9930367   2.801   4.189   4.637 -0.0836  0.5709 -0.5305
   95MOL   C10030368   3.008   4.249   4.476  0.4479 -0.2068  0.4569
   95MOL   C10130369   3.151   4.215   4.452  0.6724 -0.1907  0.0477
   95MOL   C10230370   3.199   4.217   4.305  0.1644 -0.0771 -0.9778
   95MOL   C10330371   3.244   4.195   4.545  0.8001 -0.2323 -0.0223
   95MOL   H10430372   3.006   4.201   4.677  0.2562 -0.3528  0.2780
   95MOL   H10530373   2.730   4.155   4.562 -2.0204 -0.0398  1.5086
   95MOL   H10630374   2.772   4.291   4.661 -0.0679  0.7380 -1.2227
   95MOL   H10730375   2.779   4.130   4.726  1.2811 -0.2003 -0.6821
   95MOL   H10830376   2.959   4.211   4.386 -0.1502  4.0021 -1.1233
   95MOL   H10930377   3.295   4.167   4.297  0.7560  1.0435 -1.0610
   95MOL   H11030378   3.206   4.319   4.266 -3.5154  0.6254 -0.0379
   95MOL   H11130379   3.126   4.164   4.243  0.5122 -1.4975 -0.1889
   95MOL   H11230380   3.228   4.204   4.652  2.9548  3.0445  0.0932
   95MOL   H11330381   3.350   4.186   4.531  0.7911  2.8074 -2.5115
   95MOL   C11430382   2.973   4.411   4.479  0.7094  0.1130  0.2182
   95MOL   C11530383   3.000   4.482   4.616  0.0293 -0.9499 -0.1783
   95MOL   C11630384   2.832   4.453   4.416  0.7881 -0.4432  0.2858
   95MOL   C11730385   2.792   4.374   4.293 -0.2845 -0.0404  0.9532
   95MOL   C11830386   2.876   4.383   4.167  0.0218 -0.1445 -0.2481
   95MOL   C11930387   2.685   4.293   4.286  0.5094  0.2442 -0.0069
   95MOL   H12030388   3.045   4.448   4.406  1.0541  0.5703  0.7826
   95MOL   H12130389   2.915   4.465   4.683  0.3096  0.9867  0.6815
   95MOL   H12230390   2.996   4.590   4.604  0.2193 -0.6612  2.1153
   95MOL   H12330391   3.087   4.435   4.661  0.8634 -0.0784 -0.8818
   95MOL   H12430392   2.770   4.404   4.491  2.5805 -2.6082  0.3892
   95MOL   H12530393   2.818   4.339   4.085  0.3368 -0.8681 -0.0818
   95MOL   H12630394   2.973   4.334   4.162  0.6064  0.9372  0.4298
   95MOL   H12730395   2.889   4.489   4.147 -0.1402 -0.2302 -0.8365
   95MOL   H12830396   2.617   4.283   4.369  2.9744  2.9245  2.4354
   95MOL   H12930397   2.668   4.227   4.202 -1.9868  0.6217  0.1508
   95MOL   C13030398   2.817   4.604   4.380 -0.0392 -0.3557 -0.6344
   95MOL   C13130399   2.950   4.671   4.334  0.3244 -0.5025 -0.0743
   95MOL   C13230400   2.741   4.692   4.489  0.4131  0.2843 -0.1631
   95MOL   C13330401   2.616   4.627   4.549  0.3225 -0.9192 -0.0263
   95MOL   C13430402   2.493   4.610   4.459  0.2000  0.0044 -0.0546
   95MOL   C13530403   2.623   4.591   4.679  0.5989 -0.0413 -1.0732
   95MOL   H13630404   2.755   4.609   4.291  1.2705  1.0398 -1.4860
   95MOL   H13730405   3.007   4.620   4.256 -0.8736 -1.9539 -0.0255
   95MOL   H13830406   3.020   4.684   4.416 -1.5392  2.1034  1.1691
   95MOL   H13930407   2.927   4.770   4.295 -0.0126 -0.2658  0.7172
   95MOL   H14030408   2.810   4.700   4.573  0.9185 -1.6516 -0.3763
   95MOL   H14130409   2.442   4.706   4.445 -0.4971 -0.0107  2.1354
   95MOL   H14230410   2.416   4.547   4.504  2.1953 -1.4776  1.3376
   95MOL   H14330411   2.526   4.565   4.366  2.2196  0.5057  0.4040
   95MOL   H14430412   2.712   4.607   4.737  0.5970  1.7740 -1.5232
   95MOL   H14530413   2.542   4.537   4.725  2.4102 -1.2950  0.7145
   95MOL   C14630414   2.694   4.836   4.448 -0.7157 -0.0318 -0.4898
   95MOL   C14730415   2.664   4.850   4.297 -0.2686 -0.1707 -0.5534
   95MOL   C14830416   2.793   4.955   4.499  0.3482 -0.4416 -0.2551
   95MOL   C14930417   2.827   4.936   4.650  0.5335  0.6850 -0.4205
   95MOL   C15030418   2.970   4.942   4.684  0.0918 -0.2715  0.2060
   95MOL   C15130419   2.730   4.916   4.743  0.6876  0.1392  0.0776
   95MOL   H15230420   2.605   4.860   4.506 -0.0066 -0.1683  0.6771
   95MOL   H15330421   2.604   4.763   4.270  0.7528 -1.2594  0.6086
   95MOL   H15430422   2.753   4.840   4.235  0.0813 -1.2375  0.1009
   95MOL   H15530423   2.622   4.948   4.278  0.9452  0.5176  0.2470
   95MOL   H15630424   2.890   4.931   4.456  0.0416  0.5295 -1.5046
   95MOL   H15730425   2.991   4.889   4.777  1.4496 -1.7536 -0.8986
   95MOL   H15830426   2.989   5.047   4.704  0.1616 -0.6841  2.4416
   95MOL   H15930427   3.045   4.902   4.614 -0.9602  1.8768 -2.2119
   95MOL   H16030428   2.624   4.923   4.721  0.2153 -1.1972  1.7910
   95MOL   H16130429   2.757   4.896   4.845  0.8721  0.4732  0.0944
   95MOL   C16230430   2.741   5.105   4.478 -0.3877  0.1041 -0.3824
   95MOL   C16330431   2.591   5.122   4.514  0.1824 -0.2313 -0.1814
   95MOL   C16430432   2.780   5.167   4.341 -0.1252 -0.0857 -0.1620
   95MOL   C16530433   2.917   5.116   4.282 -0.2284  0.2894 -0.1912
   95MOL   C16630434   3.043   5.148   4.370  0.1245  0.4299 -0.1927
   95MOL   C16730435   2.930   5.048   4.163  0.2340 -0.2595 -0.2439
   95MOL   H16830436   2.790   5.155   4.562 -0.1413 -2.3191  0.9813
   95MOL   H16930437   2.567   5.131   4.620  2.6811 -0.3783  0.4294
   95MOL   H17030438   2.534   5.036   4.479  1.1270 -1.3673  1.0064
   95MOL   H17130439   2.538   5.204   4.466 -0.6382 -0.0268  1.0430
   95MOL   H17230440   2.700   5.137   4.273  0.8005 -1.6202 -0.5997
   95MOL   H17330441   3.127   5.084   4.344  0.3767  0.3927  0.7110
   95MOL   H17430442   3.032   5.131   4.477 -1.8027  1.2004 -0.2312
   95MOL   H17530443   3.085   5.247   4.355  0.0524  0.5655  0.4809
   95MOL   H17630444   2.841   5.021   4.109  0.4649 -1.3548 -0.0939
   95MOL   H17730445   3.022   5.017   4.115  0.0294 -1.1887 -0.0475
   95MOL   C17830446   2.786   5.325   4.343 -0.2840 -0.8707 -0.7519
   95MOL   C17930447   2.688   5.408   4.430  0.0289  0.1699 -0.6112
   95MOL   C18030448   2.804   5.391   4.192  0.1128 -0.0175  1.1008
   95MOL   C18130449   2.892   5.520   4.199  0.6034  0.3189  0.1556
   95MOL   C18230450   3.042   5.500   4.182  0.5932 -0.1139  0.5622
   95MOL   C18330451   2.846   5.646   4.228 -0.3529  0.2112  0.0774
   95MOL   H18430452   2.874   5.342   4.405  0.0766  1.0707 -1.7293
   95MOL   H18530453   2.742   5.501   4.447  0.8585 -0.1609 -1.4033
   95MOL   H18630454   2.663   5.368   4.528 -0.8364  0.4507 -0.7112
   95MOL   H18730455   2.594   5.435   4.381  0.3214  0.0212 -1.2528
   95MOL   H18830456   2.861   5.331   4.121 -1.5985  1.7043 -1.8281
   95MOL   H18930457   3.084   5.601   4.175 -1.2961  0.7220  0.8579
   95MOL   H19030458   3.066   5.428   4.104  0.2321 -3.1216  3.1465
   95MOL   H19130459   3.091   5.452   4.266  1.9582  1.2274  0.5540
   95MOL   H19230460   2.741   5.667   4.242 -0.9327 -2.3044 -0.1645
   95MOL   H19330461   2.911   5.730   4.246 -1.1155  1.0228 -0.8887
   95MOL   C19430462   2.683   5.410   4.092  0.5091  0.2175 -0.6961
   95MOL   C19530463   2.570   5.309   4.105  0.6392 -0.9014  0.3614
   95MOL   C19630464   2.721   5.444   3.946 -0.1674 -1.6596 -0.0707
   95MOL   C19730465   2.616   5.551   3.906  0.1492  0.3619 -0.8051
   95MOL   C19830466   2.657   5.694   3.918  0.0219 -0.4095 -1.2190
   95MOL   C19930467   2.492   5.528   3.858 -0.2428  0.2612  0.5140
   95MOL   H20030468   2.630   5.497   4.129  1.0079  1.1929 -2.2406
   95MOL   H20130469   2.596   5.203   4.103 -1.8793 -1.5280 -0.3735
   95MOL   H20230470   2.499   5.325   4.025  1.5650 -0.9497 -0.4780
   95MOL   H20330471   2.513   5.310   4.198 -2.0609  1.2698 -1.2348
   95MOL   H20430472   2.819   5.491   3.947 -1.0573  0.2807 -0.8973
   95MOL   H20530473   2.610   5.758   3.844 -0.2053  0.6398 -0.1717
   95MOL   H20630474   2.765   5.699   3.904  0.0821  1.3567 -0.1547
   95MOL   H20730475   2.629   5.736   4.014  0.5846  1.7115 -1.9602
   95MOL   H20830476   2.458   5.426   3.848  0.6999  0.0019 -0.0922
   95MOL   H20930477   2.427   5.610   3.831  0.5066  1.1548  1.3939
   95MOL   C21030478   2.735   5.338   3.832  0.1508  0.4553  0.3480
   95MOL   C21130479   2.832   5.224   3.861 -0.2128 -0.2375 -0.0359
   95MOL   C21230480   2.768   5.394   3.689 -0.0891 -0.3740  0.0192
   95MOL   C21330481   2.678   5.330   3.578  0.4083  0.5523  0.3522
   95MOL   C21430482   2.716   5.184   3.542 -1.0354  0.0837 -0.0011
   95MOL   C21530483   2.580   5.403   3.527 -0.6733 -0.0739  0.0990
   95MOL   H21630484   2.643   5.279   3.827  0.1964  0.3634  0.5937
   95MOL   H21730485   2.788   5.143   3.919 -1.9927  0.6649 -0.0559
   95MOL   H21830486   2.913   5.262   3.923  0.5276 -0.5468 -0.8019
   95MOL   H21930487   2.860   5.171   3.770 -0.2360 -2.0205  0.9871
   95MOL   H22030488   2.732   5.497   3.689  0.1690 -0.2817 -0.3312
   95MOL   H22130489   2.823   5.162   3.532 -0.7335  1.5111 -0.1109
   95MOL   H22230490   2.667   5.162   3.447 -0.5363  1.2738 -0.5451
   95MOL   H22330491   2.675   5.111   3.612  1.5186 -1.9644 -0.5388
   95MOL   H22430492   2.550   5.497   3.570  0.3318  0.4044 -0.2311
   95MOL   H22530493   2.522   5.361   3.447  0.2758 -0.1683 -0.5499
   95MOL   C22630494   2.918   5.404   3.642  0.0077  0.6730 -0.3758
   95MOL   C22730495   3.006   5.489   3.741 -0.0766  0.5474 -0.1582
   95MOL   C22830496   2.944   5.425   3.485  0.2150 -0.2640 -0.4358
   95MOL   C22930497   3.071   5.348   3.440 -0.6473 -0.2619  0.0211
   95MOL   C23030498   3.055   5.203   3.391 -0.0708 -0.3897  0.2542
   95MOL   C23130499   3.192   5.397   3.461  0.0762 -0.0101 -0.3478
   95MOL   H23230500   2.961   5.304   3.653 -0.3762  0.5961  0.3961
   95MOL   H23330501   3.034   5.438   3.833  1.3307  1.3905 -0.1061
   95MOL   H23430502   2.952   5.580   3.766  1.1176  0.8013  1.5429
   95MOL   H23530503   3.094   5.537   3.697  0.6359 -0.2258  0.4160
   95MOL   H23630504   2.861   5.389   3.424 -0.1299 -0.1394 -0.0433
   95MOL   H23730505   3.153   5.180   3.350  0.7783  0.0138  1.9750
   95MOL   H23830506   2.974   5.186   3.320  0.7705 -2.8564 -0.1736
   95MOL   H23930507   3.040   5.143   3.481 -0.2982  1.9381  1.8090
   95MOL   H24030508   3.212   5.493   3.508  2.1702  0.0248 -1.2508
   95MOL   H24130509   3.275   5.334   3.431 -1.2434 -2.0572  0.2273
   95MOL   C24230510   2.944   5.576   3.446 -0.2503  0.6247  0.0771
   95MOL   C24330511   2.827   5.661   3.490  0.9334 -0.1138 -0.7827
   95MOL   C24430512   2.978   5.600   3.289 -0.0067 -0.7021  0.5628
   95MOL   C24530513   3.090   5.709   3.266  0.1346  0.6416  0.1051
   95MOL   C24630514   3.072   5.846   3.319  1.1122  0.1978 -0.4042
   95MOL   C24730515   3.209   5.665   3.223 -0.8903  0.3924  1.1770
   95MOL   H24830516   3.035   5.604   3.500  1.2583  0.9996 -2.5514
   95MOL   H24930517   2.725   5.625   3.473  0.8901 -2.1231  3.1478
   95MOL   H25030518   2.822   5.756   3.436  1.7436  0.1591 -0.3687
   95MOL   H25130519   2.825   5.696   3.593  2.0116  1.2415 -1.2170
   95MOL   H25230520   3.017   5.505   3.254  0.3564  0.1220 -1.3515
   95MOL   H25330521   3.158   5.914   3.317  0.5354  1.0352  1.6207
   95MOL   H25430522   3.046   5.825   3.422  0.0890 -0.6255 -0.8186
   95MOL   H25530523   2.980   5.892   3.284  0.1982 -0.8930  0.5294
   95MOL   H25630524   3.231   5.565   3.190 -0.2124  0.2858  1.9548
   95MOL   H25730525   3.295   5.730   3.216  0.0664 -1.0196 -0.7518
   95MOL   C25830526   2.848   5.620   3.193 -0.2379  0.0357 -0.6824
   95MOL   C25930527   2.728   5.516   3.206  0.6404  0.2195  0.1292
   95MOL   C26030528   2.879   5.640   3.037 -0.1564 -0.3817 -0.1066
   95MOL   C26130529   2.780   5.743   2.979 -0.1910  0.9237  0.1166
   95MOL   C26230530   2.633   5.710   2.964  0.1471 -1.1205  0.5610
   95MOL   C26330531   2.821   5.857   2.919  0.4459  0.0614  0.1136
   95MOL   H26430532   2.804   5.713   3.230  1.8826 -0.2646  2.8300
   95MOL   H26530533   2.657   5.518   3.123  0.5310  0.9487  0.2306
   95MOL   H26630534   2.680   5.549   3.298  3.7514  3.4319  0.6865
   95MOL   H26730535   2.749   5.410   3.216  0.2563 -0.1090 -2.3267
   95MOL   H26830536   2.980   5.679   3.031  0.0024 -0.8531 -0.4508
   95MOL   H26930537   2.585   5.782   2.898  0.9416 -0.7759  0.3515
   95MOL   H27030538   2.591   5.725   3.063  0.4438  0.1326  0.5099
   95MOL   H27130539   2.606   5.609   2.932  0.3310 -1.3798  1.2077
   95MOL   H27230540   2.924   5.892   2.920 -0.0248  1.4870  1.4845
   95MOL   H27330541   2.755   5.928   2.872 -2.0966 -0.9630  2.0620
   95MOL   C27430542   2.892   5.520   2.942  0.5826 -0.1681  0.4411
   95MOL   C27530543   2.969   5.398   2.988 -0.5193 -0.1235 -0.0785
   95MOL   C27630544   2.944   5.565   2.797 -0.0982  0.0293  0.3447
   95MOL   C27730545   2.865   5.491   2.686  0.0544 -0.1131  0.7243
   95MOL   C27830546   2.734   5.550   2.645  0.6122  0.6674  0.0103
   95MOL   C27930547   2.905   5.370   2.642  0.5148 -0.1349 -0.0587
   95MOL   H28030548   2.787   5.497   2.925  0.5546  0.9429 -1.0317
   95MOL   H28130549   2.911   5.361   3.073 -1.1581  0.8345 -0.0911
   95MOL   H28230550   3.073   5.411   3.016 -0.8341 -0.7151  1.4117
   95MOL   H28330551   2.969   5.320   2.911 -1.2873  0.3314 -0.5478
   95MOL   H28430552   2.913   5.667   2.775 -0.6706  0.0230  1.1166
   95MOL   H28530553   2.674   5.476   2.591  2.6202 -1.3852  0.5007
   95MOL   H28630554   2.749   5.622   2.564  2.7028  0.6122  0.3410
   95MOL   H28730555   2.665   5.597   2.715 -1.3198 -2.9385  0.6560
   95MOL   H28830556   3.000   5.326   2.670  0.5955  0.3250  0.4015
   95MOL   H28930557   2.834   5.320   2.578  0.7558  2.5454 -2.5467
   95MOL   C29030558   3.099   5.559   2.770  0.5126 -0.0704  0.0855
   95MOL   C29130559   3.180   5.635   2.873 -0.6221  0.6743 -1.1273
   95MOL   C29230560   3.150   5.582   2.617  0.1414 -0.0366 -0.3577
   95MOL   C29330561   3.282   5.500   2.599  0.3482  1.0454  0.3134
   95MOL   C29430562   3.276   5.345   2.572  0.0351 -0.3484 -0.8333
   95MOL   C29530563   3.407   5.548   2.610  0.0764  0.5833  0.4171
   95MOL   H29630564   3.127   5.456   2.794 -0.1286 -0.8867 -2.5165
   95MOL   H29730565   3.147   5.737   2.892 -0.7986  0.5339 -0.6643
   95MOL   H29830566   3.284   5.652   2.846 -0.3394  1.6420  0.5352
   95MOL   H29930567   3.185   5.580   2.967 -0.7029 -1.2699 -2.2271
   95MOL   H30030568   3.077   5.545   2.545 -0.2984  1.7505 -0.8668
   95MOL   H30130569   3.203   5.308   2.644 -1.7627 -0.0754 -2.4941
   95MOL   H30230570   3.369   5.289   2.587 -0.3345 -0.4280  1.4467
   95MOL   H30330571   3.231   5.325   2.475 -0.1239 -1.9968 -0.4375
   95MOL   H30430572   3.421   5.653   2.630  3.1591  0.2565  0.1447
   95MOL   H30530573   3.492   5.485   2.592 -1.0358 -1.4784  2.1201
   95MOL   C30630574   3.166   5.733   2.567  0.0893  0.2458  0.1461
   95MOL   C30730575   3.035   5.813   2.583 -0.1396  0.1835  0.7622
   95MOL   C30830576   3.201   5.733   2.418 -0.0134 -0.0344  0.2758
   95MOL   C30930577   3.244   5.867   2.352  0.7133 -0.5029 -0.2668
   95MOL   C31030578   3.392   5.905   2.396  0.5928  0.0210  0.6894
   95MOL   C31130579   3.158   5.947   2.284  0.0573  0.4279 -0.0796
   95MOL   H31230580   3.242   5.778   2.630 -0.7854  1.5861  0.2561
   95MOL   H31330581   2.956   5.758   2.532  0.4289 -0.0065  0.0851
   95MOL   H31430582   3.036   5.916   2.546 -0.3392 -0.7121 -1.8164
   95MOL   H31530583   3.020   5.813   2.691 -1.7291  0.2611  0.5444
   95MOL   H31630584   3.289   5.670   2.409 -0.6653 -0.7398 -1.2170
   95MOL   H31730585   3.428   5.975   2.321 -0.0489 -0.0623  0.3035
   95MOL   H31830586   3.459   5.819   2.398  0.6627  0.0603 -0.1970
   95MOL   H31930587   3.401   5.971   2.483  0.5352  1.7496 -0.6022
   95MOL   H32030588   3.060   5.916   2.251 -0.0626 -0.9284  1.4683
   95MOL   H32130589   3.187   6.042   2.242  0.3940  0.0825 -0.6342
   95MOL   H32230590   3.123   5.689   2.357  0.6575 -1.5085  0.4641
   96MOL     C130591   7.615   1.715   5.743  0.2160  0.1924  0.2474
   96MOL     C230592   7.484   1.647   5.757 -0.1981  0.1301 -0.4380
   96MOL     C330593   7.643   1.769   5.601 -0.4513 -0.1365  0.0740
   96MOL     C430594   7.632   1.654   5.500  0.2835  0.2544 -0.3809
   96MOL     C530595   7.737   1.544   5.502 -0.8006  0.3288 -0.2561
   96MOL     C630596   7.522   1.647   5.422 -0.1135  0.0465 -0.6331
   96MOL     H730597   7.622   1.793   5.819  0.3865  0.3413  0.0812
   96MOL     H830598   7.474   1.623   5.863  0.3128 -0.0249 -0.4233
   96MOL     H930599   7.484   1.551   5.705 -0.5307 -0.7101  1.0736
   96MOL    H1030600   7.399   1.705   5.721 -1.3563  0.0011  1.9324
   96MOL    H1130601   7.564   1.842   5.582  0.1254  0.2136 -1.0300
   96MOL    H1230602   7.765   1.505   5.404  0.5584  1.0278 -0.1687
   96MOL    H1330603   7.705   1.457   5.559  0.1875  0.5484  0.6656
   96MOL    H1430604   7.827   1.572   5.557 -2.0357  0.8306  1.5580
   96MOL    H1530605   7.437   1.713   5.436 -0.7178 -0.9955  0.8509
   96MOL    H1630606   7.514   1.573   5.343 -3.8895 -0.9968  0.5761
   96MOL    H1730607   7.686   1.637   5.773 -0.3164 -0.4057 -0.0488
   96MOL    C1830608   7.775   1.846   5.594 -1.1217  0.2238 -0.0944
   96MOL    C1930609   7.797   1.945   5.714  0.3913 -0.0187  0.1015
   96MOL    C2030610   7.819   1.919   5.455 -0.0567  0.1168 -0.2438
   96MOL    C2130611   7.697   2.002   5.399  0.1840 -0.1734  0.3587
   96MOL    C2230612   7.687   2.145   5.449  0.0352  0.5110  0.5082
   96MOL    C2330613   7.608   1.953   5.315 -0.4549  0.1917  0.5218
   96MOL    H2430614   7.847   1.767   5.618  0.2777  1.8241  1.1027
   96MOL    H2530615   0.004   1.983   5.694 -1.2977  3.7312 -1.7492
   96MOL    H2630616   7.801   1.884   5.804 -0.9046 -1.8656 -1.0352
   96MOL    H2730617   7.719   2.021   5.711  0.1843 -0.2442 -0.4389
   96MOL    H2830618   0.009   1.985   5.484  0.5913 -1.2672  1.1578
   96MOL    H2930619   7.649   2.139   5.551  0.0092  2.6939  0.6584
   96MOL    H3030620   7.620   2.208   5.391 -2.4544 -1.2924  1.3332
   96MOL    H3130621   7.785   2.192   5.458 -0.3152  1.1457  1.0775
   96MOL    H3230622   7.625   1.849   5.290  0.0865  0.2183  0.7504
   96MOL    H3330623   7.526   2.015   5.284 -1.3117 -0.0605  2.2307
   96MOL    C3430624   7.892   1.826   5.349 -0.4649  0.0399 -0.2063
   96MOL    C3530625   0.137   1.777   5.401  0.6347  0.7237 -0.0153
   96MOL    C3630626   0.007   1.884   5.197  0.6340 -0.2273  0.1942
   96MOL    C3730627   0.026   1.760   5.103 -0.0953  0.3650  0.0214
   96MOL    C3830628   7.791   1.680   5.064  0.5484 -0.6574  0.0472
   96MOL    C3930629   0.144   1.716   5.051 -0.0087 -0.3334  0.9482
   96MOL    H4030630   7.829   1.737   5.349 -0.1394 -0.2006  0.4643
   96MOL    H4130631   0.201   1.730   5.327  0.5106  0.4102  0.0747
   96MOL    H4230632   0.125   1.699   5.476  3.5171  1.5696  1.3669
   96MOL    H4330633   0.202   1.851   5.447  1.3930 -0.5379  0.9935
   96MOL    H4430634   7.799   1.914   5.167  0.2562 -0.8983  0.7589
   96MOL    H4530635   7.740   1.731   4.983  0.6306  0.2527  0.5687
   96MOL    H4630636   7.717   1.680   5.145 -0.3290  1.8382 -0.7248
   96MOL    H4730637   7.812   1.581   5.022  0.1071 -0.4390 -0.6909
   96MOL    H4830638   0.233   1.777   5.059 -0.3031  0.0302  1.5166
   96MOL    H4930639   0.144   1.625   4.994 -0.0383  1.0119 -1.2600
   96MOL    C5030640   0.117   1.997   5.172  0.4675 -0.7179  0.2534
   96MOL    C5130641   0.152   2.098   5.281 -0.0012 -0.0335 -0.1258
   96MOL    C5230642   0.115   2.055   5.019 -0.5738 -0.1478 -0.0451
   96MOL    C5330643   0.256   2.048   4.958 -0.3087  0.2153 -0.6501
   96MOL    C5430644   0.278   1.995   4.821  0.2020 -0.0533  1.5861
   96MOL    C5530645   0.371   2.086   5.031  0.3185  0.9611  0.1247
   96MOL    H5630646   0.213   1.946   5.186  0.5306 -0.4728  0.7362
   96MOL    H5730647   0.209   2.182   5.241  1.2630 -1.3858 -1.2272
   96MOL    H5830648   0.220   2.053   5.353 -2.0907  0.2143  2.0643
   96MOL    H5930649   0.070   2.145   5.333 -1.6442 -0.3558 -2.3304
   96MOL    H6030650   0.052   1.990   4.957 -0.8457 -0.1069  0.1875
   96MOL    H6130651   0.363   1.929   4.838 -1.7643 -2.5123  2.1241
   96MOL    H6230652   0.293   2.060   4.734 -3.7561  0.2676  1.0873
   96MOL    H6330653   0.198   1.925   4.800 -0.0199  0.6083  0.1583
   96MOL    H6430654   0.363   2.128   5.130 -3.5013  0.3022  0.1831
   96MOL    H6530655   0.473   2.079   4.997 -0.0126  0.6017 -0.8263
   96MOL    C6630656   0.049   2.193   5.008 -0.1358  0.5047 -1.5229
   96MOL    C6730657   7.807   2.194   5.081 -0.3548 -0.3658  0.6389
   96MOL    C6830658   0.046   2.247   4.860 -0.6576 -0.3868 -0.6553
   96MOL    C6930659   0.085   2.395   4.872  0.0740  0.6983 -0.5318
   96MOL    C7030660   0.233   2.417   4.853 -0.3998  0.1335 -0.9123
   96MOL    C7130661   0.000   2.495   4.901 -0.3174  0.0042 -0.3873
   96MOL    H7230662   0.098   2.268   5.070 -0.8574  0.8321 -1.3424
   96MOL    H7330663   7.811   2.216   5.188  1.1178 -1.0833  0.7470
   96MOL    H7430664   7.764   2.094   5.066 -1.3281  0.2207 -0.6387
   96MOL    H7530665   7.745   2.274   5.041  0.2082 -0.6785 -0.8796
   96MOL    H7630666   0.123   2.206   4.794  2.4589  2.7609  0.8744
   96MOL    H7730667   0.266   2.519   4.876 -2.4486  0.7233 -0.4666
   96MOL    H7830668   0.252   2.393   4.748  0.7313  0.0642 -0.7023
   96MOL    H7930669   0.293   2.346   4.910 -3.4258 -0.6929  1.3588
   96MOL    H8030670   7.788   2.474   4.922 -0.0825  0.0538  0.9004
   96MOL    H8130671   0.030   2.598   4.915 -0.1110 -0.3323  1.8237
   96MOL    C8230672   7.807   2.221   4.783  0.5497 -0.2385 -0.2595
   96MOL    C8330673   7.772   2.073   4.777 -0.2833 -0.3676 -0.2549
   96MOL    C8430674   7.789   2.289   4.639 -0.7335  0.7476 -0.8472
   96MOL    C8530675   7.655   2.354   4.632  0.2353  0.2899 -0.3484
   96MOL    C8630676   7.537   2.259   4.625 -0.2566 -0.0332  0.5078
   96MOL    C8730677   7.638   2.487   4.627  0.2246  0.2161 -0.0333
   96MOL    H8830678   7.726   2.265   4.841  0.5295  1.8657 -1.8395
   96MOL    H8930679   7.742   2.030   4.873 -1.6454  1.4722  0.1773
   96MOL    H9030680   7.861   2.016   4.749 -0.1684 -0.0464 -0.5340
   96MOL    H9130681   7.685   2.048   4.715 -2.0475  3.0530  0.7512
   96MOL    H9230682   7.858   2.373   4.638  0.0209  0.1235 -2.8855
   96MOL    H9330683   7.549   2.183   4.548  2.3777  0.5766  0.2507
   96MOL    H9430684   7.439   2.303   4.606 -0.4653 -0.4194  0.6996
   96MOL    H9530685   7.522   2.210   4.721 -1.2746  1.4901  1.1413
   96MOL    H9630686   7.718   2.557   4.643  1.6120 -1.8709  2.4964
   96MOL    H9730687   7.536   2.523   4.620  0.7404  1.5816 -0.7755
   96MOL    C9830688   7.828   2.207   4.514 -0.3330  1.2512  0.1663
   96MOL    C9930689   0.089   2.157   4.527  0.1929 -0.6030  0.6864
   96MOL   C10030690   7.798   2.279   4.371  0.3711 -0.8828  0.4573
   96MOL   C10130691   7.717   2.185   4.285 -0.8473 -0.4381 -0.4165
   96MOL   C10230692   7.795   2.070   4.230  0.5259  0.2661  0.0048
   96MOL   C10330693   7.580   2.181   4.278 -0.2501 -0.0276  0.0893
   96MOL   H10430694   7.775   2.112   4.511  0.8102  0.6061 -0.2308
   96MOL   H10530695   0.079   2.068   4.590 -1.9737  0.2600  1.6128
   96MOL   H10630696   0.153   2.232   4.572 -2.3756  1.3630  1.1567
   96MOL   H10730697   0.131   2.133   4.430 -1.8619  2.1731 -0.9782
   96MOL   H10830698   7.718   2.352   4.387 -1.1282 -2.3000 -0.4830
   96MOL   H10930699   7.781   1.975   4.280  1.3574 -0.6735 -1.5227
   96MOL   H11030700   0.009   2.092   4.243  0.9407 -1.9399  0.5356
   96MOL   H11130701   7.766   2.056   4.125 -2.5607 -0.2482  0.8915
   96MOL   H11230702   7.512   2.251   4.325 -2.1883 -1.7688 -0.0486
   96MOL   H11330703   7.535   2.101   4.220 -1.9995 -1.2318  3.0126
   96MOL   C11430704   0.010   2.359   4.286 -0.0196  0.4345  0.3610
   96MOL   C11530705   0.083   2.468   4.375 -0.4706  0.2743  0.7571
   96MOL   C11630706   7.875   2.403   4.140 -0.4401 -0.6303  0.7059
   96MOL   C11730707   0.103   2.392   4.049 -0.0721  0.3676  0.7555
   96MOL   C11830708   0.112   2.264   3.971  0.0386 -0.0309  0.1197
   96MOL   C11930709   0.197   2.483   4.046 -0.8071 -0.1220 -0.6789
   96MOL   H12030710   0.094   2.291   4.273  1.0445  1.7079  0.4155
   96MOL   H12130711   0.151   2.417   4.442  1.1592  1.9622  0.4233
   96MOL   H12230712   0.020   2.535   4.434 -1.3050 -1.0934  1.4325
   96MOL   H12330713   0.150   2.536   4.322  1.2196 -1.0462  1.1716
   96MOL   H12430714   7.812   2.324   4.097  0.0048 -0.3052 -0.5648
   96MOL   H12530715   0.145   2.187   4.040  0.3884  1.0669  1.1934
   96MOL   H12630716   0.189   2.284   3.896  1.1093 -1.1710  0.8952
   96MOL   H12730717   0.020   2.225   3.928  0.5445 -1.0544 -0.0421
   96MOL   H12830718   0.192   2.570   4.110 -0.7798 -0.2297 -0.5312
   96MOL   H12930719   0.280   2.465   3.980 -1.1496 -1.6506 -0.7199
   96MOL   C13030720   7.794   2.541   4.125 -0.0136 -0.1654  0.0045
   96MOL   C13130721   7.681   2.556   4.224 -0.6199 -0.1616 -0.4175
   96MOL   C13230722   7.756   2.576   3.973  0.1436 -0.1976  0.2006
   96MOL   C13330723   7.769   2.730   3.959 -0.2091  0.2651  0.5007
   96MOL   C13430724   0.013   2.783   3.918 -0.0725 -0.4939  0.9317
   96MOL   C13530725   7.670   2.815   3.982  0.7457 -0.7532 -1.1293
   96MOL   H13630726   7.862   2.615   4.167 -1.7742  2.2097 -1.2360
   96MOL   H13730727   7.620   2.642   4.197 -0.7628 -0.5148 -1.2205
   96MOL   H13830728   7.710   2.565   4.329  1.1625  1.2891 -1.0080
   96MOL   H13930729   7.611   2.472   4.223 -2.6491  1.5074 -2.6486
   96MOL   H14030730   7.836   2.539   3.909  2.1232  0.4177  2.2476
   96MOL   H14130731   0.020   2.889   3.890  3.9133 -1.4429 -2.2769
   96MOL   H14230732   0.035   2.725   3.828  2.9875  0.3934  1.0388
   96MOL   H14330733   0.093   2.751   3.985 -0.8490 -1.9356  1.1734
   96MOL   H14430734   7.573   2.776   4.011 -0.3689  0.9399 -2.4797
   96MOL   H14530735   7.691   2.920   3.968 -1.6908  0.1154  1.3181
   96MOL   C14630736   7.618   2.515   3.922 -0.1645 -0.5808 -0.5498
   96MOL   C14730737   7.591   2.366   3.960 -0.3845 -0.1622 -0.2843
   96MOL   C14830738   7.577   2.550   3.779  0.9766 -0.0063 -0.1373
   96MOL   C14930739   7.426   2.587   3.771  0.2529 -0.0230 -0.1982
   96MOL   C15030740   7.318   2.480   3.773 -0.1989 -0.2353  0.3209
   96MOL   C15130741   7.385   2.712   3.748 -0.2059 -0.3780 -0.4108
   96MOL   H15230742   7.544   2.568   3.981  0.3475  0.2606 -0.6582
   96MOL   H15330743   7.664   2.293   3.925 -0.5553 -1.7841  2.5549
   96MOL   H15430744   7.487   2.337   3.945 -0.1268 -1.3072  0.1183
   96MOL   H15530745   7.590   2.345   4.067  1.0507  1.0291 -0.0239
   96MOL   H15630746   7.629   2.644   3.761 -0.3061  0.9889  1.1796
   96MOL   H15730747   7.304   2.455   3.879 -0.3114 -1.0565  0.1218
   96MOL   H15830748   7.348   2.402   3.702 -2.5325  0.6275 -1.6693
   96MOL   H15930749   7.227   2.521   3.730 -0.9034 -0.7872  1.2591
   96MOL   H16030750   7.461   2.787   3.734 -0.8909  0.8310  2.0329
   96MOL   H16130751   7.283   2.747   3.740 -0.0921 -0.3612 -1.9054
   96MOL   C16230752   7.625   2.446   3.667  0.4407 -0.4996  0.2310
   96MOL   C16330753   7.777   2.417   3.682  0.1852  0.1246 -0.0223
   96MOL   C16430754   7.586   2.497   3.518  0.1439 -0.5849 -0.3745
   96MOL   C16530755   7.555   2.371   3.433 -0.6859 -0.1811  0.3241
   96MOL   C16630756   7.659   2.265   3.420  0.0396 -0.0107 -0.1552
   96MOL   C16730757   7.435   2.352   3.373 -0.9630 -0.1688  0.0162
   96MOL   H16830758   7.571   2.352   3.676 -0.7073  0.1731  0.4606
   96MOL   H16930759   7.825   2.371   3.596  0.0016  0.6450 -0.4065
   96MOL   H17030760   7.791   2.353   3.769 -0.8104  0.9572  0.7731
   96MOL   H17130761   7.833   2.510   3.681  4.0744 -2.0920  0.9503
   96MOL   H17230762   7.488   2.546   3.514  0.3088  0.0116  1.9812
   96MOL   H17330763   7.669   2.207   3.512 -2.0003 -1.6085 -0.9056
   96MOL   H17430764   7.747   2.314   3.381  0.0915 -0.9987 -1.3007
   96MOL   H17530765   7.639   2.197   3.337  4.4757  0.0681 -1.4064
   96MOL   H17630766   7.355   2.424   3.388  1.1771  2.3161 -0.0873
   96MOL   H17730767   7.414   2.263   3.315  0.1515  0.4303 -1.3366
   96MOL   C17830768   7.673   2.597   3.436 -0.1615  0.5387 -0.1230
   96MOL   C17930769   7.718   2.717   3.518 -0.3173  0.4251  0.0042
   96MOL   C18030770   7.628   2.640   3.292  0.4801 -0.1523 -0.1900
   96MOL   C18130771   7.747   2.642   3.212 -0.8858 -0.8198  0.2356
   96MOL   C18230772   7.767   2.525   3.117  0.4555 -0.3164 -0.9977
   96MOL   C18330773   7.834   2.749   3.201 -0.1404 -0.2200  0.4353
   96MOL   H18430774   7.764   2.541   3.413 -0.8083 -1.2518  1.5775
   96MOL   H18530775   7.640   2.790   3.537 -0.9982 -1.0748  3.3904
   96MOL   H18630776   7.795   2.778   3.471  1.1788 -0.0010  1.7935
   96MOL   H18730777   7.773   2.700   3.611  1.5004  1.7450 -0.7863
   96MOL   H18830778   7.570   2.558   3.251  1.1965 -0.7348 -0.0522
   96MOL   H18930779   7.863   2.531   3.065  1.4035  0.8599  0.7872
   96MOL   H19030780   7.688   2.505   3.045  1.2259 -1.0669 -1.6411
   96MOL   H19130781   7.774   2.443   3.189  4.3911 -1.0935 -2.1307
   96MOL   H19230782   7.821   2.835   3.265 -0.4157 -0.4977  0.7535
   96MOL   H19330783   0.024   2.752   3.132 -0.8332  1.6835 -0.3283
   96MOL   C19430784   7.528   2.753   3.273 -0.5240 -0.7788  0.1959
   96MOL   C19530785   7.399   2.740   3.355  0.2131  0.3212  0.8367
   96MOL   C19630786   7.494   2.787   3.128 -0.1231  0.0272  0.6876
   96MOL   C19730787   7.504   2.938   3.117  0.1547 -0.5625 -0.9357
   96MOL   C19830788   7.407   3.031   3.183 -0.1695  0.6969  0.1317
   96MOL   C19930789   7.607   2.998   3.056  0.1150 -0.1712  0.0916
   96MOL   H20030790   7.574   2.843   3.313  0.0984  0.3547 -2.8705
   96MOL   H20130791   7.338   2.830   3.352  0.8048  0.6593 -1.2762
   96MOL   H20230792   7.427   2.742   3.461  0.0060 -1.5464  0.9482
   96MOL   H20330793   7.332   2.655   3.342  1.9505 -0.9529  0.0384
   96MOL   H20430794   7.570   2.751   3.059 -1.1668  1.8925 -1.5293
   96MOL   H20530795   7.447   3.061   3.280  0.9820 -2.0068  0.5309
   96MOL   H20630796   7.310   2.982   3.193  0.1909 -0.3844 -1.5416
   96MOL   H20730797   7.394   3.122   3.123 -0.4122 -0.4323 -1.5742
   96MOL   H20830798   7.684   2.937   3.010 -0.6900 -1.1420  0.0175
   96MOL   H20930799   7.615   3.106   3.047 -0.0560 -0.1438  0.2799
   96MOL   C21030800   7.367   2.731   3.063 -0.5804  0.1064 -0.1492
   96MOL   C21130801   7.378   2.579   3.063 -0.1503 -0.9678 -0.1367
   96MOL   C21230802   7.322   2.785   2.929 -0.2001  0.0956  0.8508
   96MOL   C21330803   7.172   2.766   2.917 -0.8141  0.1336  0.1628
   96MOL   C21430804   7.090   2.876   2.974  0.6636 -0.0674 -0.2314
   96MOL   C21530805   7.110   2.656   2.869 -0.0851  0.4920  0.6815
   96MOL   H21630806   7.284   2.758   3.129 -0.8542  0.6496 -0.7032
   96MOL   H21730807   7.371   2.546   3.166 -1.4307 -1.0632 -0.2378
   96MOL   H21830808   7.471   2.535   3.027  0.7323  0.3726  0.4727
   96MOL   H21930809   7.304   2.529   2.999 -1.2073 -1.8701  1.7459
   96MOL   H22030810   7.346   2.892   2.927  0.4825 -0.0679 -2.2036
   96MOL   H22130811   7.078   2.948   2.893  1.5449  0.3227 -0.0169
   96MOL   H22230812   7.130   2.921   3.065 -2.5510  0.2879  1.1042
   96MOL   H22330813   6.990   2.842   3.001  0.6357  0.1610 -0.0410
   96MOL   H22430814   7.167   2.571   2.834  1.4666  1.5516  0.5817
   96MOL   H22530815   7.002   2.650   2.864 -0.0569  0.0695  0.5470
   96MOL   C22630816   7.385   2.719   2.792 -0.5363 -0.1402 -0.5822
   96MOL   C22730817   7.537   2.714   2.792  0.1726 -0.2623  0.0403
   96MOL   C22830818   7.325   2.774   2.654  0.2548 -0.6191  0.5175
   96MOL   C22930819   7.282   2.661   2.560  0.2187  0.1678 -0.6781
   96MOL   C23030820   7.389   2.596   2.475  0.3969 -0.0522 -0.3638
   96MOL   C23130821   7.153   2.622   2.542 -0.9177  0.0016  0.7701
   96MOL   H23230822   7.358   2.613   2.789 -0.5435 -0.1224 -1.1292
   96MOL   H23330823   7.580   2.643   2.863 -0.4670 -0.0612  0.6374
   96MOL   H23430824   7.584   2.810   2.814  1.0378 -0.2378 -1.8555
   96MOL   H23530825   7.569   2.696   2.690 -0.5347 -0.7556 -0.1011
   96MOL   H23630826   7.234   2.824   2.688  0.6645 -0.9083  2.0926
   96MOL   H23730827   7.490   2.585   2.512  1.0116 -0.0988 -1.9815
   96MOL   H23830828   7.386   2.647   2.379 -0.6920  0.4366 -0.0796
   96MOL   H23930829   7.356   2.493   2.456 -0.9846  0.0294  1.4885
   96MOL   H24030830   7.074   2.674   2.595 -1.2079 -0.9847  1.3138
   96MOL   H24130831   7.129   2.539   2.478 -0.7871 -0.2847  1.0945
   96MOL   C24230832   7.397   2.898   2.589 -0.8435  0.7447  0.4203
   96MOL   C24330833   7.428   3.017   2.684  0.8784 -0.2538  0.2005
   96MOL   C24430834   7.344   2.937   2.443  0.2365  0.0166  0.0341
   96MOL   C24530835   7.461   2.949   2.343  0.1457 -0.4019  0.3382
   96MOL   C24630836   7.569   3.052   2.370  0.4533  0.0569  0.0225
   96MOL   C24730837   7.477   2.879   2.231 -0.1857 -0.0998 -0.1800
   96MOL   H24830838   7.494   2.851   2.572 -0.9406 -0.5999  3.2442
   96MOL   H24930839   7.494   2.988   2.766  1.3758 -0.0179 -0.1111
   96MOL   H25030840   7.338   3.046   2.737  0.4232 -0.3842 -0.4986
   96MOL   H25130841   7.476   3.102   2.635 -0.7143  0.7820  0.3882
   96MOL   H25230842   7.297   2.850   2.397  0.9519 -0.4232  0.1213
   96MOL   H25330843   7.655   3.040   2.304 -0.0618 -1.1751 -0.4395
   96MOL   H25430844   7.605   3.049   2.473 -0.0534 -2.2612  0.1689
   96MOL   H25530845   7.526   3.149   2.345  0.5011  0.4383  1.3619
   96MOL   H25630846   7.400   2.807   2.206 -1.6718  1.5372 -0.3592
   96MOL   H25730847   7.559   2.911   2.168  0.3837  0.7493  0.9759
   96MOL   C25830848   7.241   3.052   2.434 -0.4428  0.8264  0.1027
   96MOL   C25930849   7.123   3.042   2.527 -0.3822  0.0049  0.2680
   96MOL   C26030850   7.198   3.102   2.296  0.4614 -0.9614  0.6167
   96MOL   C26130851   7.214   3.252   2.276  0.3758 -0.2690 -0.3471
   96MOL   C26230852   7.099   3.335   2.333  0.1343 -0.0751  0.5414
   96MOL   C26330853   7.320   3.309   2.211  0.4772 -0.8353  0.0775
   96MOL   H26430854   7.298   3.137   2.472 -0.8575  0.2074  2.1830
   96MOL   H26530855   7.051   2.964   2.503 -0.9243  0.4288  0.4854
   96MOL   H26630856   7.064   3.133   2.536  1.0164  0.9685 -0.1652
   96MOL   H26730857   7.151   3.018   2.630  0.8040 -2.5323 -0.6050
   96MOL   H26830858   7.282   3.071   2.233 -1.5997  1.3005 -3.5007
   96MOL   H26930859   7.088   3.315   2.440  3.0407 -0.8379  0.7348
   96MOL   H27030860   7.001   3.319   2.287  0.2397  0.6523  0.0488
   96MOL   H27130861   7.125   3.440   2.323  0.6554 -0.0989  1.5903
   96MOL   H27230862   7.396   3.241   2.173  0.4943 -2.8121  3.3749
   96MOL   H27330863   7.339   3.415   2.201  0.6745 -0.6705  1.9537
   96MOL   C27430864   7.064   3.048   2.225 -0.2352 -0.6331  0.5886
   96MOL   C27530865   7.041   2.892   2.232 -0.2962 -0.6863  0.0931
   96MOL   C27630866   7.030   3.123   2.088 -0.2236 -0.1692  0.6350
   96MOL   C27730867   6.880   3.154   2.077 -0.2187  0.3903 -0.5181
   96MOL   C27830868   6.786   3.032   2.064  0.2949  0.0249 -0.0565
   96MOL   C27930869   6.836   3.279   2.074 -0.3879  0.4484 -0.0033
   96MOL   H28030870   6.981   3.085   2.286 -2.3707  0.6884 -2.9516
   96MOL   H28130871   6.939   2.859   2.213  0.0700 -1.5235 -0.4201
   96MOL   H28230872   7.078   2.846   2.323  0.9565  1.5704  0.7573
   96MOL   H28330873   7.098   2.835   2.160  1.5618  0.5848  0.5224
   96MOL   H28430874   7.077   3.221   2.083  0.5235 -0.4461  2.0243
   96MOL   H28530875   6.768   2.998   2.166 -1.0179 -1.5009 -0.7806
   96MOL   H28630876   6.814   2.957   1.991 -1.0928 -1.2833  0.7478
   96MOL   H28730877   6.684   3.062   2.040  0.8843  0.1235 -2.6159
   96MOL   H28830878   6.907   3.361   2.072 -1.1032  1.0710 -0.0007
   96MOL   H28930879   6.735   3.315   2.075 -0.1668  1.0654  1.2779
   96MOL   C29030880   7.094   3.060   1.961 -0.1953 -0.4268  0.0399
   96MOL   C29130881   7.252   3.050   1.968 -0.9238 -0.2018 -0.3424
   96MOL   C29230882   7.041   3.120   1.824  0.7861  0.3745 -0.6207
   96MOL   C29330883   7.033   3.015   1.717  0.3864  0.0984  0.0557
   96MOL   C29430884   6.892   3.013   1.654  1.0501 -0.1455  0.1194
   96MOL   C29530885   7.133   2.937   1.668 -0.0973  0.3167  0.6087
   96MOL   H29630886   7.065   2.955   1.965  0.4880 -0.5860  1.0906
   96MOL   H29730887   7.272   2.964   2.032 -1.2284 -1.7534 -2.2828
   96MOL   H29830888   7.297   3.144   2.001 -0.2487 -1.3783  2.2075
   96MOL   H29930889   7.291   3.029   1.869 -2.9460 -0.7087 -1.0646
   96MOL   H30030890   6.938   3.141   1.854  1.3134  0.3487  1.2530
   96MOL   H30130891   6.884   2.952   1.564 -1.6363  1.1910 -0.5874
   96MOL   H30230892   6.865   3.113   1.620 -0.3242 -0.0509  1.4566
   96MOL   H30330893   6.815   2.978   1.722  1.4998 -0.8916  0.2549
   96MOL   H30430894   7.235   2.930   1.704  0.6412  2.2072 -1.0184
   96MOL   H30530895   7.114   2.874   1.582 -4.5362 -1.1115  2.5421
   96MOL   C30630896   7.098   3.261   1.784 -0.4357  0.2554 -0.2884
   96MOL   C30730897   6.989   3.347   1.719 -0.6343  0.1435  0.6098
   96MOL   C30830898   7.228   3.252   1.694 -0.6899  0.4747  0.2539
   96MOL   C30930899   7.330   3.371   1.698 -0.1072  0.3035 -0.3212
   96MOL   C31030900   7.425   3.390   1.815  0.3637  0.3136  0.4010
   96MOL   C31130901   7.331   3.459   1.597  0.3851  0.1240  0.5251
   96MOL   H31230902   7.129   3.315   1.873 -1.7326  0.5763 -0.0217
   96MOL   H31330903   6.886   3.332   1.753 -0.9871  0.9266 -0.0921
   96MOL   H31430904   6.988   3.325   1.613  2.1244 -1.9422  0.9817
   96MOL   H31530905   7.005   3.455   1.726 -2.6539  0.4817  0.3619
   96MOL   H31630906   7.289   3.166   1.724  0.1265  0.5059 -1.2713
   96MOL   H31730907   7.372   3.391   1.910  1.2484  0.0346  0.8922
   96MOL   H31830908   7.494   3.472   1.803  0.0775  0.3838 -0.8499
   96MOL   H31930909   7.489   3.304   1.832 -2.4178 -1.7535  0.8393
   96MOL   H32030910   7.266   3.432   1.516  1.1029  0.6873 -0.2525
   96MOL   H32130911   7.389   3.550   1.586  0.2885  0.1126 -0.1026
   96MOL   H32230912   7.213   3.238   1.587  0.7407  1.3491 -0.0765
   97MOL     C130913   0.353   4.476   2.460  0.1552  0.4089  0.2272
   97MOL     C230914   0.275   4.435   2.587 -0.5134  0.1184  0.3349
   97MOL     C330915   0.467   4.379   2.418  0.3549  0.0134 -0.2689
   97MOL     C430916   0.572   4.445   2.337  0.2233 -0.3560 -0.3072
   97MOL     C530917   0.717   4.432   2.382 -0.2557  0.1540  0.7199
   97MOL     C630918   0.543   4.513   2.221 -0.2685 -0.3036  0.0970
   97MOL     H730919   0.282   4.496   2.379  0.8066  0.6746 -0.2865
   97MOL     H830920   0.335   4.458   2.674  1.1188  0.2518 -0.7966
   97MOL     H930921   0.230   4.336   2.597 -1.3444  0.4523 -0.0449
   97MOL    H1030922   0.187   4.499   2.595  0.6764  2.0467 -1.4215
   97MOL    H1130923   0.516   4.346   2.509  0.5237 -3.0635 -1.4308
   97MOL    H1230924   0.746   4.333   2.347 -0.8620 -0.0261  0.7203
   97MOL    H1330925   0.731   4.433   2.490 -0.3685 -1.7448  0.7658
   97MOL    H1430926   0.772   4.511   2.330  1.2809 -1.2212  0.2174
   97MOL    H1530927   0.445   4.524   2.177  1.3453 -2.2992 -4.2959
   97MOL    H1630928   0.616   4.561   2.157 -0.2077  2.0625  1.8804
   97MOL    H1730929   0.399   4.572   2.480 -0.1664  0.9907 -1.6531
   97MOL    C1830930   0.424   4.241   2.354 -0.8511 -0.0946 -0.2101
   97MOL    C1930931   0.302   4.252   2.265  0.1575 -0.1292 -0.1051
   97MOL    C2030932   0.412   4.116   2.458 -0.6890 -0.1937 -0.6058
   97MOL    C2130933   0.539   4.102   2.552  0.3549 -0.0539  0.1620
   97MOL    C2230934   0.675   4.057   2.498 -0.0445  0.8064  0.1271
   97MOL    C2330935   0.526   4.147   2.681 -0.1261  0.4346 -0.5115
   97MOL    H2430936   0.514   4.220   2.297  0.1614 -0.9023  1.6414
   97MOL    H2530937   0.204   4.259   2.312  0.2059 -1.3731  0.1820
   97MOL    H2630938   0.301   4.171   2.192 -2.2278 -0.9696  0.8327
   97MOL    H2730939   0.315   4.342   2.203  2.0905 -0.3879 -0.1062
   97MOL    H2830940   0.330   4.148   2.521  0.0020 -1.3256  0.9095
   97MOL    H2930941   0.750   4.057   2.578  0.8240  0.6527 -0.6785
   97MOL    H3030942   0.704   4.113   2.409 -0.6438  1.8368  0.5698
   97MOL    H3130943   0.660   3.953   2.470  2.0180  1.0049 -1.9494
   97MOL    H3230944   0.436   4.194   2.718 -0.5520 -0.1519 -0.8134
   97MOL    H3330945   0.617   4.137   2.739  0.4449  1.7267 -1.1461
   97MOL    C3430946   0.383   3.971   2.407  0.2141 -0.2917 -0.4260
   97MOL    C3530947   0.454   3.945   2.269 -0.1530  0.1765 -0.3923
   97MOL    C3630948   0.224   3.937   2.397  0.4401  0.0814 -0.2053
   97MOL    C3730949   0.139   4.000   2.509  0.0181  0.6686 -0.3136
   97MOL    C3830950   0.163   3.955   2.650 -0.0112  0.0229  0.4641
   97MOL    C3930951   0.032   4.073   2.476 -0.0974 -0.1285  0.2467
   97MOL    H4030952   0.426   3.897   2.474  1.5955  2.4171  1.8109
   97MOL    H4130953   0.552   3.991   2.252  0.2830  0.4292  2.5222
   97MOL    H4230954   0.400   3.976   2.179 -1.9007  0.0596  0.6047
   97MOL    H4330955   0.483   3.840   2.263 -0.7426 -0.0830  1.1566
   97MOL    H4430956   0.194   4.000   2.313  0.8637 -0.0663 -0.4703
   97MOL    H4530957   0.082   3.994   2.711  0.3118  0.6391  0.5008
   97MOL    H4630958   0.256   3.993   2.692 -1.1320  2.2370  0.9491
   97MOL    H4730959   0.159   3.847   2.665  0.8134 -0.0635  0.1266
   97MOL    H4830960   0.016   4.085   2.370 -1.2528  4.6038  0.8408
   97MOL    H4930961   7.855   4.119   2.545 -1.3766 -0.2070 -0.9587
   97MOL    C5030962   0.179   3.786   2.379 -0.2509  0.7330 -0.4435
   97MOL    C5130963   0.275   3.693   2.456  0.6258  0.4777 -0.0647
   97MOL    C5230964   0.152   3.737   2.229  1.0811 -0.7797 -0.0572
   97MOL    C5330965   0.072   3.842   2.148 -0.1861 -0.8793  0.5434
   97MOL    C5430966   7.824   3.868   2.185 -0.1948 -0.6202 -0.0424
   97MOL    C5530967   0.122   3.915   2.045 -0.9069  0.2929  0.0160
   97MOL    H5630968   0.079   3.775   2.421 -0.5110 -0.7995 -1.4304
   97MOL    H5730969   0.242   3.589   2.460  0.8619  0.4156  0.3155
   97MOL    H5830970   0.297   3.724   2.558  2.6319  0.0142 -0.3338
   97MOL    H5930971   0.371   3.693   2.403  0.2056  1.6120 -0.8315
   97MOL    H6030972   0.253   3.736   2.188  1.6963  1.3143  1.2963
   97MOL    H6130973   7.811   3.839   2.290  0.7564 -1.7935 -0.2313
   97MOL    H6230974   7.759   3.806   2.123  0.0557 -0.5994 -0.3206
   97MOL    H6330975   7.784   3.968   2.174 -1.0089 -0.6099  2.5247
   97MOL    H6430976   0.226   3.904   2.018 -0.7574  0.3189  0.5663
   97MOL    H6530977   0.058   3.986   1.994 -1.4666 -2.2452 -2.9473
   97MOL    C6630978   0.090   3.591   2.201 -0.2704 -0.0597 -0.6856
   97MOL    C6730979   0.004   3.541   2.319  0.7421 -0.3134 -0.7307
   97MOL    C6830980   0.187   3.482   2.143 -0.1530  0.3371  0.0422
   97MOL    C6930981   0.312   3.447   2.229 -0.4639 -0.1845 -0.1187
   97MOL    C7030982   0.446   3.519   2.195 -0.6682  0.0414  0.6800
   97MOL    C7130983   0.309   3.351   2.316 -0.5979 -0.3694 -0.1248
   97MOL    H7230984   0.016   3.615   2.124 -1.4449  2.1746  1.0784
   97MOL    H7330985   7.847   3.614   2.382 -3.5154 -1.7748 -2.2141
   97MOL    H7430986   0.072   3.483   2.381 -1.7901 -2.3802  0.2044
   97MOL    H7530987   7.824   3.468   2.283 -0.2575  0.1902  0.2347
   97MOL    H7630988   0.133   3.389   2.159 -1.9698  1.5369  1.0447
   97MOL    H7730989   0.494   3.489   2.101 -2.2745  0.2193 -0.2135
   97MOL    H7830990   0.528   3.502   2.265  0.1174 -2.4126 -0.7603
   97MOL    H7930991   0.438   3.626   2.179  1.2929  0.1347  0.1631
   97MOL    H8030992   0.223   3.288   2.330 -0.0048 -0.2730  4.8168
   97MOL    H8130993   0.395   3.332   2.379  0.5823  0.7692 -1.3559
   97MOL    C8230994   0.208   3.484   1.983 -0.4979  0.0261 -0.7585
   97MOL    C8330995   0.220   3.624   1.919 -0.0444  0.5767  0.6487
   97MOL    C8430996   0.103   3.392   1.903  0.8092  0.0776 -0.0072
   97MOL    C8530997   7.855   3.443   1.923  0.2161  0.5724  0.0341
   97MOL    C8630998   7.811   3.546   1.820  0.5132  0.3996  0.7451
   97MOL    C8730999   7.768   3.400   2.013  0.8745 -0.3854 -0.3632
   97MOL    H8831000   0.310   3.447   1.972  0.2870  1.4595  1.3523
   97MOL    H8931001   0.314   3.665   1.955  0.4777 -0.1469  0.1397
   97MOL    H9031002   0.135   3.689   1.940 -0.9856  0.1762 -1.6672
   97MOL    H9131003   0.237   3.628   1.811  2.0436 -1.7564  0.8419
   97MOL    H9231004   0.129   3.396   1.797 -0.9714 -0.9270 -0.5009
   97MOL    H9331005   7.704   3.545   1.801  0.7386 -0.3108 -0.5035
   97MOL    H9431006   7.851   3.512   1.725 -3.8933 -2.7435 -0.1618
   97MOL    H9531007   7.845   3.649   1.819  0.6034  0.3934  2.0419
   97MOL    H9631008   7.786   3.323   2.086 -0.5514  0.6036  1.0490
   97MOL    H9731009   7.673   3.448   2.032  1.0685 -0.2858  0.3708
   97MOL    C9831010   0.121   3.242   1.938  0.7928 -0.4757  0.3303
   97MOL    C9931011   0.273   3.206   1.936  0.0188 -0.0333  0.1342
   97MOL   C10031012   0.044   3.134   1.857 -0.1800 -0.8350 -0.0230
   97MOL   C10131013   7.863   3.180   1.731  0.0545 -0.3294  0.0396
   97MOL   C10231014   0.049   3.203   1.605 -0.3872 -0.7929 -0.0900
   97MOL   C10331015   7.728   3.188   1.718  0.3588  0.4122  0.6498
   97MOL   H10431016   0.077   3.228   2.037  1.5183  1.0674  0.8876
   97MOL   H10531017   0.313   3.250   2.027  0.5140 -0.5142  0.1509
   97MOL   H10631018   0.318   3.231   1.840  0.6308  0.9237  0.6552
   97MOL   H10731019   0.283   3.098   1.946  2.9771  0.2068  0.2381
   97MOL   H10831020   0.126   3.082   1.808 -1.9556 -1.5409 -2.3223
   97MOL   H10931021   0.072   3.105   1.565 -0.9743 -1.0995  0.3165
   97MOL   H11031022   0.146   3.249   1.625 -0.8186 -0.4403  1.2529
   97MOL   H11131023   7.892   3.266   1.531 -0.4229 -1.0732 -0.3052
   97MOL   H11231024   7.660   3.171   1.801  2.4368  1.9975  2.7660
   97MOL   H11331025   7.692   3.210   1.619 -1.4622  2.7876  1.8005
   97MOL   C11431026   7.863   3.019   1.937  0.4921  1.0482  0.0359
   97MOL   C11531027   0.015   2.982   2.079  0.3563  0.0328 -0.4508
   97MOL   C11631028   7.817   2.893   1.855 -0.2606  0.1246  0.0932
   97MOL   C11731029   7.679   2.842   1.901  0.3105  0.1552 -0.7841
   97MOL   C11831030   7.560   2.903   1.827 -0.1600 -0.3906 -0.9242
   97MOL   C11931031   7.657   2.754   2.000 -0.6640  0.0944 -0.7580
   97MOL   H12031032   7.764   3.056   1.965  1.3899  2.3313  1.6572
   97MOL   H12131033   7.871   2.883   2.105 -0.4821  0.8950  1.7774
   97MOL   H12231034   7.875   3.052   2.157  0.8281 -0.5937  0.3118
   97MOL   H12331035   0.124   2.982   2.072  0.3176  1.4027 -1.3308
   97MOL   H12431036   7.812   2.932   1.753 -0.4611  0.5031  0.2477
   97MOL   H12531037   7.550   3.009   1.851  3.1587 -0.4792  1.0943
   97MOL   H12631038   7.468   2.848   1.851  0.0544  0.0366  0.9944
   97MOL   H12731039   7.579   2.884   1.722 -1.6326 -2.1831 -0.8921
   97MOL   H12831040   7.729   2.710   2.068 -1.0970  0.9157  0.2372
   97MOL   H12931041   7.556   2.724   2.021  0.1607 -2.0366  0.2792
   97MOL   C13031042   0.036   2.782   1.838 -0.1254  0.1649 -0.1394
   97MOL   C13131043   0.177   2.821   1.796  0.2505 -0.6201  0.4161
   97MOL   C13231044   7.874   2.648   1.766 -0.2783 -0.1197 -0.1971
   97MOL   C13331045   0.024   2.517   1.837 -0.2365  0.4204  0.0944
   97MOL   C13431046   0.162   2.462   1.809 -0.5426  0.5098 -0.0067
   97MOL   C13531047   7.831   2.463   1.927 -0.0030  0.3588  0.2335
   97MOL   H13631048   0.049   2.751   1.942 -1.6946  1.0474  0.3457
   97MOL   H13731049   0.166   2.897   1.719 -0.7365 -0.0130  1.1415
   97MOL   H13831050   0.246   2.744   1.761 -0.2896 -1.0896  0.3743
   97MOL   H13931051   0.229   2.871   1.877  0.4963 -0.5297  0.2012
   97MOL   H14031052   7.766   2.649   1.781 -0.0451 -0.3975  1.7297
   97MOL   H14131053   0.190   2.440   1.706 -1.9419 -0.4150 -0.2147
   97MOL   H14231054   0.161   2.368   1.865 -0.1478  0.6341  0.2119
   97MOL   H14331055   0.233   2.532   1.852 -0.5340 -0.5148  1.7267
   97MOL   H14431056   7.735   2.508   1.947  0.8273  1.5021  1.8649
   97MOL   H14531057   7.854   2.371   1.978  3.7166  0.2794 -1.4380
   97MOL   C14631058   7.891   2.633   1.609 -0.1389 -0.7253 -0.0569
   97MOL   C14731059   7.855   2.770   1.537 -0.2675  0.3318  0.2449
   97MOL   C14831060   7.831   2.514   1.534 -0.0070  0.3851 -0.0341
   97MOL   C14931061   0.035   2.458   1.427 -0.5893 -0.1835 -0.3404
   97MOL   C15031062   0.099   2.549   1.321 -0.0145 -0.1942 -0.2467
   97MOL   C15131063   0.057   2.329   1.429  0.0143  0.2081  0.6252
   97MOL   H15231064   0.107   2.622   1.599 -0.3958 -2.1050 -1.4356
   97MOL   H15331065   7.843   2.753   1.430  1.6924  0.5831 -0.0367
   97MOL   H15431066   0.040   2.846   1.549 -0.9488  0.8373  1.5137
   97MOL   H15531067   7.773   2.823   1.586  0.2387  0.2319  1.2084
   97MOL   H15631068   7.820   2.441   1.614  3.6998 -0.3654 -0.1149
   97MOL   H15731069   0.038   2.613   1.257  1.1589 -0.8936 -2.1039
   97MOL   H15831070   0.164   2.494   1.252  0.2110  0.7211 -0.7715
   97MOL   H15931071   0.170   2.611   1.375 -1.4246  1.3086 -0.0790
   97MOL   H16031072   0.005   2.257   1.490 -1.8852 -0.6683 -1.9299
   97MOL   H16131073   0.130   2.292   1.358  0.4770  1.3413  0.4914
   97MOL   C16231074   7.682   2.534   1.484 -0.6453  0.9846 -0.4016
   97MOL   C16331075   7.595   2.578   1.611 -0.8302 -0.1505  0.0118
   97MOL   C16431076   7.617   2.410   1.412  0.2104 -0.0302 -0.8087
   97MOL   C16531077   7.655   2.385   1.261 -0.3864 -0.7525  0.1064
   97MOL   C16631078   7.656   2.502   1.163 -0.2070 -0.0588  0.4521
   97MOL   C16731079   7.695   2.260   1.221 -0.2345  0.5126 -0.5852
   97MOL   H16831080   7.681   2.614   1.410  0.1566 -0.2753 -1.7907
   97MOL   H16931081   7.606   2.683   1.636 -0.8250 -0.0189 -0.5500
   97MOL   H17031082   7.597   2.509   1.696 -2.7230 -2.8727 -2.0374
   97MOL   H17131083   7.488   2.572   1.592 -0.4341  0.3840 -2.5016
   97MOL   H17231084   7.665   2.326   1.464  0.3809 -0.8421 -2.2365
   97MOL   H17331085   7.637   2.456   1.066  2.0426  2.8121 -1.4137
   97MOL   H17431086   7.748   2.560   1.159 -1.5757  2.0482 -1.5397
   97MOL   H17531087   7.583   2.578   1.188  0.9335  2.2661 -3.0118
   97MOL   H17631088   7.694   2.176   1.289  0.6013  1.5041  0.7113
   97MOL   H17731089   7.734   2.242   1.122 -0.9317 -0.0654 -0.7530
   97MOL   C17831090   7.462   2.387   1.419  0.7804  0.6142 -0.3644
   97MOL   C17931091   7.373   2.502   1.367  0.5931 -0.6673  1.0554
   97MOL   C18031092   7.415   2.311   1.552 -0.4148  0.7442 -0.3698
   97MOL   C18131093   7.503   2.189   1.573 -0.5772 -0.2031  0.7484
   97MOL   C18231094   7.570   2.180   1.703 -0.0956 -0.7951  0.0473
   97MOL   C18331095   7.509   2.096   1.481  0.4338  0.2180  0.6019
   97MOL   H18431096   7.446   2.311   1.343  0.2231 -0.1411  0.4942
   97MOL   H18531097   7.309   2.552   1.440  0.6274  1.3077 -0.2445
   97MOL   H18631098   7.315   2.466   1.282  0.1146 -0.8262  1.4465
   97MOL   H18731099   7.431   2.587   1.333  2.3938 -2.2564  0.0921
   97MOL   H18831100   7.436   2.374   1.639  0.7230 -2.1572  1.5470
   97MOL   H18931101   7.638   2.265   1.710 -1.1664  0.2722 -1.7757
   97MOL   H19031102   7.625   2.087   1.693  0.5311 -0.8960  3.9214
   97MOL   H19131103   7.509   2.179   1.793  0.3342 -0.8835  0.3327
   97MOL   H19231104   7.462   2.093   1.383  1.6328 -0.5607  0.0322
   97MOL   H19331105   7.575   2.013   1.500  0.8624  0.8330  1.8407
   97MOL   C19431106   7.262   2.264   1.566  0.3113  0.4501 -0.2832
   97MOL   C19531107   7.184   2.224   1.431 -0.1413  0.6407 -0.3004
   97MOL   C19631108   7.179   2.344   1.675 -0.3612  0.6794  0.5195
   97MOL   C19731109   7.158   2.487   1.634 -0.3122  0.5792 -0.5845
   97MOL   C19831110   7.027   2.529   1.567 -0.2358  0.0778 -0.4142
   97MOL   C19931111   7.243   2.584   1.670  0.4037  0.4991 -0.2971
   97MOL   H20031112   7.268   2.171   1.622  0.6313  1.2595  1.0629
   97MOL   H20131113   7.160   2.321   1.388  1.0885  0.7402 -0.8014
   97MOL   H20231114   7.087   2.180   1.453  0.7033 -0.5609  1.1020
   97MOL   H20331115   7.233   2.157   1.361 -2.7213 -1.8338  0.2047
   97MOL   H20431116   7.079   2.303   1.661 -0.5025  0.5887  1.8069
   97MOL   H20531117   7.045   2.522   1.459  1.8310  2.0663 -0.2473
   97MOL   H20631118   6.994   2.627   1.600 -0.2821 -0.2657  0.5582
   97MOL   H20731119   6.953   2.459   1.603  1.6296 -1.6133  0.2256
   97MOL   H20831120   7.333   2.572   1.730 -0.1693 -2.4490  0.0200
   97MOL   H20931121   7.221   2.688   1.651  1.5681  0.8749  0.3594
   97MOL   C21031122   7.206   2.319   1.829 -0.1028  0.5413  0.7567
   97MOL   C21131123   7.224   2.162   1.863  0.2500 -0.4421  0.0671
   97MOL   C21231124   7.113   2.392   1.937  0.2334  0.3511 -0.3979
   97MOL   C21331125   7.195   2.424   2.060 -0.1204  0.3313 -0.0653
   97MOL   C21431126   7.229   2.308   2.161  0.0229  0.5372 -0.0401
   97MOL   C21531127   7.252   2.541   2.073 -0.4108  0.3509  0.7059
   97MOL   H21631128   7.308   2.355   1.842  0.0283  0.5079 -0.1674
   97MOL   H21731129   7.220   2.133   1.967  0.9539  0.9205  0.4901
   97MOL   H21831130   7.324   2.139   1.828  0.6156  1.7750 -0.4148
   97MOL   H21931131   7.143   2.102   1.822 -0.4106 -1.4559  2.7519
   97MOL   H22031132   7.080   2.486   1.893  0.0250  0.2942 -0.3631
   97MOL   H22131133   7.236   2.353   2.260 -0.8836  1.9252 -0.5926
   97MOL   H22231134   7.323   2.257   2.138 -0.1995 -0.3177  0.9014
   97MOL   H22331135   7.156   2.227   2.160 -0.3558  0.8433 -3.2088
   97MOL   H22431136   7.230   2.620   2.003  1.1210  0.9318  0.8658
   97MOL   H22531137   7.327   2.560   2.148  2.2920 -0.0450 -1.7798
   97MOL   C22631138   6.981   2.305   1.978  0.9709 -0.5620 -0.3256
   97MOL   C22731139   6.892   2.260   1.858 -0.5204  0.3454 -0.3093
   97MOL   C22831140   6.881   2.362   2.089  0.1217 -0.1582 -0.2443
   97MOL   C22931141   6.829   2.253   2.187 -0.6933 -0.0996  0.3136
   97MOL   C23031142   6.692   2.183   2.159 -0.4370  0.3110  0.7739
   97MOL   C23131143   6.892   2.223   2.303  0.3905  0.2875  0.0223
   97MOL   H23231144   7.005   2.211   2.028 -0.1442 -0.3594  0.6189
   97MOL   H23331145   6.809   2.200   1.895 -0.5393  1.0233  0.7725
   97MOL   H23431146   6.941   2.194   1.787 -1.5122 -1.0733  0.3005
   97MOL   H23531147   6.856   2.342   1.796 -0.9128  0.3844 -0.0311
   97MOL   H23631148   6.944   2.423   2.154 -0.8997  0.6291  0.0232
   97MOL   H23731149   6.641   2.199   2.064  0.5018 -2.9300 -0.3149
   97MOL   H23831150   6.627   2.209   2.244  1.1151  2.5852  1.3162
   97MOL   H23931151   6.702   2.075   2.168  0.2319  0.5580  3.6573
   97MOL   H24031152   6.979   2.279   2.332  0.7810  0.5136 -1.5593
   97MOL   H24131153   6.851   2.148   2.369  2.0200  0.5442  1.3465
   97MOL   C24231154   6.778   2.469   2.047  0.6434 -0.2115 -0.9027
   97MOL   C24331155   6.842   2.587   1.982 -0.1201  0.0447 -0.2190
   97MOL   C24431156   6.666   2.522   2.147  0.2728  0.2644 -0.2907
   97MOL   C24531157   6.545   2.567   2.059 -0.2552  0.6113 -0.9010
   97MOL   C24631158   6.457   2.452   2.018 -0.4652 -0.3212 -0.4666
   97MOL   C24731159   6.513   2.696   2.031 -0.1673  0.2866  0.1671
   97MOL   H24831160   6.723   2.412   1.972 -2.0684  2.3543 -1.0005
   97MOL   H24931161   6.865   2.565   1.877 -0.9042 -4.6586  0.4818
   97MOL   H25031162   6.941   2.610   2.021 -0.1203 -0.2786 -0.0313
   97MOL   H25131163   6.778   2.674   1.977  2.0015  1.5650 -2.0578
   97MOL   H25231164   6.636   2.431   2.199  2.2801 -1.8659 -2.7099
   97MOL   H25331165   6.391   2.482   1.936 -0.0436 -0.5682 -0.8990
   97MOL   H25431166   6.402   2.424   2.108 -0.1411 -1.2384 -0.5512
   97MOL   H25531167   6.509   2.357   2.005  1.2011  0.4586  0.4557
   97MOL   H25631168   6.566   2.778   2.077 -1.2918  1.0034  0.2241
   97MOL   H25731169   6.425   2.717   1.971  0.2970 -0.2593 -0.7069
   97MOL   C25831170   6.700   2.621   2.259  0.1365 -0.3601  0.3978
   97MOL   C25931171   6.831   2.580   2.339  0.4666  0.9451  0.3129
   97MOL   C26031172   6.589   2.658   2.357  0.0364  0.1012 -0.1227
   97MOL   C26131173   6.596   2.807   2.386  0.5633 -0.0957 -0.0905
   97MOL   C26231174   6.719   2.865   2.465 -0.4384  0.3933  0.5286
   97MOL   C26331175   6.502   2.894   2.340 -0.3197  0.3133 -0.6960
   97MOL   H26431176   6.730   2.712   2.207 -1.7120  0.3273  0.5112
   97MOL   H26531177   6.837   2.477   2.376  1.0242  0.2410 -1.6707
   97MOL   H26631178   6.853   2.639   2.428  0.4582  1.1294  0.1926
   97MOL   H26731179   6.920   2.590   2.277  0.1085  0.6345 -0.2537
   97MOL   H26831180   6.490   2.635   2.317 -0.8082 -1.0613  2.4890
   97MOL   H26931181   6.800   2.859   2.391 -0.7922 -0.4247  0.2064
   97MOL   H27031182   6.743   2.800   2.549 -0.0037 -0.2893 -0.1229
   97MOL   H27131183   6.713   2.971   2.489  2.7191  0.4934  1.0715
   97MOL   H27231184   6.414   2.862   2.286 -0.9869 -0.1299  0.6206
   97MOL   H27331185   6.511   3.002   2.347  1.7701  0.0387  1.7333
   97MOL   C27431186   6.583   2.574   2.492  0.1329  0.6382 -0.1071
   97MOL   C27531187   6.527   2.427   2.471 -0.0979 -0.3993 -0.0836
   97MOL   C27631188   6.512   2.638   2.623 -0.3030 -0.6841 -0.5327
   97MOL   C27731189   6.596   2.610   2.747  0.2234  0.4928 -0.3144
   97MOL   C27831190   6.584   2.475   2.817  0.3563 -0.3042  0.4529
   97MOL   C27931191   6.695   2.692   2.793 -0.4728 -0.3139 -0.3481
   97MOL   H28031192   6.685   2.560   2.529 -0.2474 -3.2091 -0.3838
   97MOL   H28131193   6.579   2.374   2.391  0.0042 -0.0051 -0.2805
   97MOL   H28231194   6.419   2.430   2.455 -0.1233 -0.5165  0.0599
   97MOL   H28331195   6.546   2.359   2.554  0.3940  0.9439  0.9259
   97MOL   H28431196   6.517   2.747   2.618 -3.0938 -0.6146 -3.4902
   97MOL   H28531197   6.674   2.414   2.807  0.3919 -0.3862  1.3135
   97MOL   H28631198   6.505   2.408   2.782 -0.2591  1.4547 -1.5856
   97MOL   H28731199   6.580   2.489   2.925 -0.2969  1.9903  0.1392
   97MOL   H28831200   6.704   2.795   2.761  1.1162 -0.0175  0.9625
   97MOL   H28931201   6.766   2.654   2.865 -0.4927 -1.3436 -0.8684
   97MOL   C29031202   6.354   2.621   2.641  0.4143  0.2497  0.4321
   97MOL   C29131203   6.276   2.649   2.508 -0.8754 -0.2366  0.1655
   97MOL   C29231204   6.294   2.696   2.763  0.0592 -0.0479 -0.5159
   97MOL   C29331205   6.180   2.613   2.827  0.4824  0.0934  0.4916
   97MOL   C29431206   6.222   2.510   2.930 -0.5698 -0.1655  0.1635
   97MOL   C29531207   6.048   2.626   2.805 -0.2691 -0.3403  0.2948
   97MOL   H29631208   6.339   2.513   2.650 -0.6158  0.2479 -1.0187
   97MOL   H29731209   6.319   2.734   2.455 -1.1542 -1.0199 -1.3162
   97MOL   H29831210   6.170   2.672   2.525 -1.1984 -1.7334  0.2390
   97MOL   H29931211   6.267   2.562   2.444  1.3269  0.2292 -0.8149
   97MOL   H30031212   6.372   2.698   2.839 -0.0908 -3.9031 -0.1750
   97MOL   H30131213   6.275   2.547   3.018  0.2606  0.0662 -0.4338
   97MOL   H30231214   6.283   2.431   2.887  0.3855  0.6441  0.0240
   97MOL   H30331215   6.132   2.457   2.962  1.2515 -2.1542  2.2254
   97MOL   H30431216   6.018   2.698   2.732  3.5496  0.7723 -0.2660
   97MOL   H30531217   5.973   2.576   2.865  0.2467  0.6289  1.7892
   97MOL   C30631218   6.257   2.854   2.746  0.8292 -0.7141  0.4006
   97MOL   C30731219   6.379   2.935   2.705 -0.6249  0.2388  0.0593
   97MOL   C30831220   6.199   2.917   2.877  0.4823 -0.0528  0.2740
   97MOL   C30931221   6.126   3.050   2.863 -0.0118 -0.7115  0.2991
   97MOL   C31031222   6.005   3.052   2.766  0.2822 -0.3017 -0.6620
   97MOL   C31131223   6.171   3.157   2.930  0.7787 -0.2295 -0.1026
   97MOL   H31231224   6.189   2.865   2.661  1.6701 -0.4809 -0.2508
   97MOL   H31331225   6.401   2.924   2.599  0.2894  0.3162  0.2389
   97MOL   H31431226   6.459   2.914   2.775  0.4018 -1.3063 -1.5295
   97MOL   H31531227   6.365   3.043   2.717  0.0087  0.3209  0.0609
   97MOL   H31631228   6.129   2.848   2.925 -0.5874  0.3240 -0.7341
   97MOL   H31731229   5.927   3.126   2.785 -0.3419 -0.8558 -1.0181
   97MOL   H31831230   5.970   2.949   2.770  1.2817 -0.5747  1.8824
   97MOL   H31931231   6.051   3.068   2.669  3.4335  0.8474  0.9420
   97MOL   H32031232   6.261   3.152   2.991  0.5005 -0.2669  0.3106
   97MOL   H32131233   6.123   3.253   2.913  0.9193 -0.0563  0.4472
   97MOL   H32231234   6.277   2.913   2.953  1.5231 -0.8334 -0.8261
   98MOL     C131235   6.771   5.871   7.203  0.2182  0.1726  0.1481
   98MOL     C231236   6.812   5.743   7.128 -0.0070  0.1469  0.1173
   98MOL     C331237   6.881   5.965   7.247 -0.9835 -0.4692  0.1655
   98MOL     C431238   6.986   5.896   7.326 -0.2328 -0.6428 -0.8134
   98MOL     C531239   6.946   5.840   7.462 -0.1328 -0.9506 -0.2321
   98MOL     C631240   7.107   5.877   7.265  0.5505 -0.0829 -0.4124
   98MOL     H731241   6.701   5.919   7.134 -0.5345  0.6205  1.2079
   98MOL     H831242   6.722   5.682   7.120 -0.2474  0.3818  0.9741
   98MOL     H931243   6.882   5.684   7.186  1.0198  0.2430 -0.9987
   98MOL    H1031244   6.855   5.771   7.031  0.2718 -0.0235  0.1936
   98MOL    H1131245   6.932   5.994   7.155 -0.5563 -2.3822 -0.2251
   98MOL    H1231246   6.884   5.909   7.519  2.3660  2.7464 -1.7892
   98MOL    H1331247   7.036   5.818   7.520 -0.7029 -2.8863 -0.0458
   98MOL    H1431248   6.901   5.741   7.448  0.9988 -1.2933 -1.4801
   98MOL    H1531249   7.134   5.900   7.163  1.0877 -0.0150 -0.2565
   98MOL    H1631250   7.180   5.831   7.330  2.6800 -0.7450 -3.1595
   98MOL    H1731251   6.721   5.821   7.286  0.0517  1.7833  1.0452
   98MOL    C1831252   6.832   6.103   7.310 -0.4171  0.0718 -0.0572
   98MOL    C1931253   6.727   6.177   7.230  0.2901 -0.0125 -0.0221
   98MOL    C2031254   6.944   6.199   7.373  0.6260 -0.2196  0.6284
   98MOL    C2131255   6.888   6.257   7.506 -0.1768 -0.1821 -0.2426
   98MOL    C2231256   6.753   6.328   7.525  0.1424  0.3324 -0.2390
   98MOL    C2331257   6.964   6.236   7.615  0.2453  0.1846 -0.3599
   98MOL    H2431258   6.779   6.062   7.396 -0.7245  1.4173  0.3922
   98MOL    H2531259   6.709   6.281   7.255  0.1116  0.0979 -0.6056
   98MOL    H2631260   6.628   6.131   7.234  0.5348 -0.7893 -2.1419
   98MOL    H2731261   6.758   6.173   7.125 -2.0564 -1.0846 -0.7040
   98MOL    H2831262   7.026   6.131   7.396  2.0762  2.0498  2.3578
   98MOL    H2931263   6.676   6.256   7.497 -0.8326  1.0290  0.6303
   98MOL    H3031264   6.742   6.423   7.472  0.0933  0.3912 -0.1236
   98MOL    H3131265   6.731   6.355   7.628 -1.1751 -0.4294 -0.3063
   98MOL    H3231266   7.052   6.175   7.604 -0.2846 -0.9989  1.5136
   98MOL    H3331267   6.942   6.262   7.718  2.3501  0.7858 -0.0391
   98MOL    C3431268   7.005   6.304   7.278 -0.0264  0.4353  0.1413
   98MOL    C3531269   7.060   6.251   7.139 -0.2462 -0.3032  0.1754
   98MOL    C3631270   7.118   6.387   7.353  0.5497 -0.0796 -0.3590
   98MOL    C3731271   7.097   6.536   7.311 -0.1511  0.2803  0.3062
   98MOL    C3831272   7.008   6.614   7.397 -0.1928 -0.4373 -0.0471
   98MOL    C3931273   7.150   6.591   7.200  0.7431  0.6857  0.6413
   98MOL    H4031274   6.925   6.372   7.249 -0.2760  0.3858  0.7081
   98MOL    H4131275   7.130   6.168   7.141 -0.6276 -0.6247  0.2037
   98MOL    H4231276   7.098   6.331   7.075  2.3748 -2.4502 -1.0803
   98MOL    H4331277   6.983   6.213   7.072  0.1593 -1.1491  0.1847
   98MOL    H4431278   7.097   6.389   7.460 -1.9065 -0.9605 -0.7891
   98MOL    H4531279   6.909   6.570   7.409 -1.1374  1.4430 -0.7034
   98MOL    H4631280   6.988   6.713   7.356 -0.1065 -1.4064 -2.5389
   98MOL    H4731281   7.042   6.637   7.498 -0.6255 -1.5673  0.3692
   98MOL    H4831282   7.213   6.533   7.134  1.1255  1.0137  0.7196
   98MOL    H4931283   7.134   6.696   7.183 -1.9288  0.1570 -0.3669
   98MOL    C5031284   7.267   6.339   7.333 -0.0292 -0.0118 -0.3988
   98MOL    C5131285   7.301   6.192   7.370 -0.4945  0.2811 -0.2134
   98MOL    C5231286   7.382   6.432   7.368 -0.6564 -0.2134 -0.1720
   98MOL    C5331287   7.501   6.423   7.267 -0.0909 -0.1503  1.0145
   98MOL    C5431288   7.498   6.522   7.148  0.1299  0.1888 -0.3839
   98MOL    C5531289   7.609   6.342   7.271 -0.4864 -0.1002  0.3214
   98MOL    H5631290   7.273   6.335   7.224  0.7922  0.1753 -0.3629
   98MOL    H5731291   7.408   6.174   7.360 -0.4641  0.0493  0.5061
   98MOL    H5831292   7.251   6.119   7.306  1.3166 -0.8717 -0.3330
   98MOL    H5931293   7.279   6.159   7.472  1.7450  0.6240  0.3919
   98MOL    H6031294   7.356   6.538   7.356 -0.8725 -0.2136  0.2856
   98MOL    H6131295   7.487   6.626   7.181  3.7804 -0.1443  2.1193
   98MOL    H6231296   7.416   6.493   7.083 -1.6098  1.0195  1.3677
   98MOL    H6331297   7.593   6.522   7.096  1.7375 -0.3653  2.4213
   98MOL    H6431298   7.625   6.276   7.355  2.6135 -0.4751 -0.4865
   98MOL    H6531299   7.692   6.335   7.203  0.4024 -2.7421  1.5904
   98MOL    C6631300   7.434   6.429   7.518  0.5662  0.1983 -0.9427
   98MOL    C6731301   7.323   6.416   7.617  0.5092  0.5162 -0.8883
   98MOL    C6831302   7.540   6.541   7.558 -0.3292  0.3321  0.0514
   98MOL    C6931303   7.652   6.484   7.652  0.5405  0.4716  0.5680
   98MOL    C7031304   7.623   6.436   7.793  0.3348  0.7788  0.5386
   98MOL    C7131305   7.780   6.464   7.606  0.0684  0.2869  0.8327
   98MOL    H7231306   7.485   6.333   7.528 -0.1397  0.1515  3.2596
   98MOL    H7331307   7.268   6.322   7.609 -0.0227  0.6358  1.2136
   98MOL    H7431308   7.251   6.497   7.620  1.5401  1.3816  1.5315
   98MOL    H7531309   7.359   6.392   7.717  0.7602  0.0130 -1.0955
   98MOL    H7631310   7.593   6.574   7.468 -0.1196  0.0249  0.0631
   98MOL    H7731311   7.532   6.481   7.832  0.6734  1.4656  0.5414
   98MOL    H7831312   7.708   6.454   7.859  0.5098  2.1161 -0.0260
   98MOL    H7931313   7.619   6.328   7.781 -1.5525  1.1612 -2.6521
   98MOL    H8031314   7.822   6.503   7.514  1.7295 -1.4376  0.8423
   98MOL    H8131315   7.857   6.420   7.667  1.8431  0.0199 -1.5165
   98MOL    C8231316   7.475   6.677   7.606  0.4298  0.0240  0.3107
   98MOL    C8331317   7.366   6.743   7.522 -0.3657 -0.9457 -0.5560
   98MOL    C8431318   7.574   6.791   7.650 -0.3386  0.5714 -0.2410
   98MOL    C8531319   7.534   6.841   7.791  0.5414  0.1334  0.0789
   98MOL    C8631320   7.585   6.760   0.021 -0.1130 -0.1532 -0.6692
   98MOL    C8731321   7.459   6.946   7.810  0.2763  0.4373  0.3166
   98MOL    H8831322   7.418   6.657   7.697  2.0533 -0.0362  1.3423
   98MOL    H8931323   7.334   6.831   7.580 -2.0785 -0.3582 -2.3475
   98MOL    H9031324   7.282   6.677   7.504 -0.1119 -0.6826 -2.7980
   98MOL    H9131325   7.405   6.788   7.431 -2.5629  2.3932  0.0659
   98MOL    H9231326   7.668   6.737   7.667 -0.9279  0.1216  1.8055
   98MOL    H9331327   7.578   6.829   0.106 -0.0976 -1.3952  0.3472
   98MOL    H9431328   7.687   6.730   7.891  1.1090  3.4814 -0.2973
   98MOL    H9531329   7.535   6.667   0.049 -0.9973 -0.1934 -2.3298
   98MOL    H9631330   7.403   6.999   7.734  0.1314 -0.5556 -0.2747
   98MOL    H9731331   7.446   6.986   0.017 -1.7817 -0.7563  0.5411
   98MOL    C9831332   7.619   6.904   7.546 -0.0950  0.0667  0.5108
   98MOL    C9931333   7.671   6.845   7.416 -0.5502  0.3641  0.4503
   98MOL   C10031334   7.707   7.033   7.587 -1.1873 -0.4476 -1.1087
   98MOL   C10131335   7.676   7.151   7.488 -0.1079 -0.3471  0.0962
   98MOL   C10231336   7.535   7.199   7.497  0.1553  0.6841  0.3282
   98MOL   C10331337   7.763   7.193   7.390  0.5766 -0.3825  0.2772
   98MOL   H10431338   7.521   6.948   7.527 -0.6730 -0.9628  1.0725
   98MOL   H10531339   7.670   6.919   7.336 -3.8290  0.7291  0.7588
   98MOL   H10631340   7.604   6.770   7.375  0.0022 -0.3771  0.8958
   98MOL   H10731341   7.770   6.806   7.439 -0.8368 -0.9868 -0.5338
   98MOL   H10831342   7.670   7.073   7.681  1.1325 -1.1461  0.1325
   98MOL   H10931343   7.531   7.296   7.448  0.3654 -0.5273 -2.1835
   98MOL   H11031344   7.497   7.206   7.599 -0.2139 -0.4622  0.2788
   98MOL   H11131345   7.458   7.134   7.454  0.9768 -1.4099  1.9334
   98MOL   H11231346   7.860   7.150   7.367  0.4731 -1.6350  2.1112
   98MOL   H11331347   7.744   7.275   7.322  1.2671  0.9709  1.6851
   98MOL   C11431348   7.863   7.019   7.623 -0.0387  0.5523  0.3189
   98MOL   C11531349   0.009   6.886   7.692  0.3098  0.1188  0.1083
   98MOL   C11631350   0.037   7.154   7.688  0.9051  0.0744  0.3500
   98MOL   C11731351   0.180   7.178   7.625  0.3887  0.4541  0.1105
   98MOL   C11831352   0.289   7.083   7.668 -0.4671 -0.4339  0.4677
   98MOL   C11931353   0.196   7.256   7.518 -0.1617  0.1606  0.2423
   98MOL   H12031354   0.021   7.006   7.526 -1.1313  2.0519 -0.4646
   98MOL   H12131355   7.835   6.859   7.774  0.9400  0.6919  0.8141
   98MOL   H12231356   0.112   6.875   7.725  0.4192 -1.0057 -0.5873
   98MOL   H12331357   7.892   6.798   7.628  0.2048  0.4909 -0.3956
   98MOL   H12431358   7.865   7.222   7.631  0.5444 -0.6014 -0.0493
   98MOL   H12531359   0.382   7.114   7.620 -0.4706  1.5940  1.6879
   98MOL   H12631360   0.269   6.982   7.632 -1.9352  0.5954 -1.7555
   98MOL   H12731361   0.304   7.085   7.775 -0.1120 -1.6871  0.4440
   98MOL   H12831362   0.119   7.320   7.477 -0.8119 -0.4868  0.4474
   98MOL   H12931363   0.287   7.267   7.461 -1.2005  0.0378 -1.4660
   98MOL   C13031364   0.022   7.183   7.841  0.2748  0.6587  0.1709
   98MOL   C13131365   7.779   7.144   0.010  0.7687  0.8930  0.6742
   98MOL   C13231366   0.062   7.332   7.866  0.3473  0.9059  1.3318
   98MOL   C13331367   0.133   7.335   0.113 -0.4535  0.2547  0.6976
   98MOL   C13431368   0.281   7.298   0.099 -0.2437  0.4846 -0.4014
   98MOL   C13531369   0.085   7.357   0.233 -0.0157  0.8497 -0.1047
   98MOL   H13631370   0.102   7.130   0.001 -0.0309 -0.7591 -0.7587
   98MOL   H13731371   7.782   7.036   7.887  1.4711  0.8853  0.8591
   98MOL   H13831372   7.686   7.193   7.874 -0.3922 -1.6952 -0.1727
   98MOL   H13931373   7.789   7.164   0.116  2.3528  1.6987  0.3847
   98MOL   H14031374   0.140   7.359   7.795 -0.1713  0.0463  0.4153
   98MOL   H14131375   0.344   7.348   0.173 -0.9863  0.8799 -0.0288
   98MOL   H14231376   0.305   7.331   7.891  0.6297  0.2061 -0.2917
   98MOL   H14331377   0.285   7.189   0.104 -1.1440  0.4773  0.2921
   98MOL   H14431378   7.873   7.377   0.254 -0.2446 -0.2090 -0.1933
   98MOL   H14531379   0.153   7.355   0.317  0.3876  1.5837 -0.4158
   98MOL   C14631380   7.836   7.435   7.848  0.6527 -1.1851 -0.7173
   98MOL   C14731381   7.751   7.425   7.724  0.9605  0.4590  0.1968
   98MOL   C14831382   7.874   7.589   7.860  0.2591  0.1593 -0.2328
   98MOL   C14931383   7.751   7.665   0.028  0.4211  0.1456 -0.5565
   98MOL   C15031384   7.730   7.635   0.177 -0.0701  0.3607  0.1026
   98MOL   C15131385   7.660   7.727   7.847  0.7339  0.2125  0.4714
   98MOL   H15231386   7.761   7.420   0.033  0.5001  1.4808 -0.2907
   98MOL   H15331387   7.813   7.438   7.635  0.0754 -1.7476 -0.8025
   98MOL   H15431388   7.675   7.502   7.729  0.2638 -0.3060  1.8007
   98MOL   H15531389   7.692   7.336   7.699  1.1646 -0.1285  1.7871
   98MOL   H15631390   0.045   7.587   0.056  1.0618 -0.9787 -0.8315
   98MOL   H15731391   7.646   7.695   0.213  0.7202  0.5160  1.7228
   98MOL   H15831392   7.823   7.656   0.230  0.4535  2.2550 -1.4979
   98MOL   H15931393   7.696   7.535   0.203  0.3475 -0.3396 -1.9142
   98MOL   H16031394   7.682   7.739   7.742 -1.2306  2.6809  0.2989
   98MOL   H16131395   7.571   7.756   0.009 -1.0068  0.8677 -2.5609
   98MOL   C16231396   0.053   7.655   7.737 -0.1974 -0.0346  0.0379
   98MOL   C16331397   0.189   7.591   7.700  0.2438 -0.7063  0.4547
   98MOL   C16431398   0.074   7.810   7.755 -0.9212  1.0157 -0.1353
   98MOL   C16531399   0.067   7.873   7.614  0.4460 -0.2022 -0.6746
   98MOL   C16631400   7.815   0.022   7.585 -0.2342  1.6255 -0.2696
   98MOL   C16731401   0.169   0.020   7.531  0.1749 -0.3710 -0.6530
   98MOL   H16831402   7.878   7.651   7.651  0.0797  3.3277 -0.4353
   98MOL   H16931403   0.245   7.544   7.781  1.5596 -2.7627 -1.5873
   98MOL   H17031404   0.250   7.663   7.646 -1.8614  0.3268 -0.6207
   98MOL   H17131405   0.171   7.520   7.619 -2.4484  0.5150 -0.0628
   98MOL   H17231406   7.882   7.848   7.812  0.6125  1.4164  1.9390
   98MOL   H17331407   7.774   0.080   7.667  0.4899  0.7562  0.7140
   98MOL   H17431408   7.751   7.830   7.559  3.4410 -0.3266 -3.5430
   98MOL   H17531409   7.812   0.096   7.504 -0.4563  2.1127  0.1821
   98MOL   H17631410   0.271   0.011   7.564  0.7157  0.9212 -1.9842
   98MOL   H17731411   0.140   0.070   7.440  1.3114 -1.1718 -1.4647
   98MOL   C17831412   0.203   7.859   7.845  0.1306  0.1871  1.4318
   98MOL   C17931413   0.218   7.783   0.077  0.4205  0.5251  0.7784
   98MOL   C18031414   0.221   0.124   7.859  0.5770  0.0489 -0.4534
   98MOL   C18131415   0.364   0.165   7.827  0.5379  0.1819  0.0315
   98MOL   C18231416   0.462   0.158   0.045  0.4991  0.6813 -0.1734
   98MOL   C18331417   0.405   0.217   7.713  0.1350  0.0280  0.1403
   98MOL   H18431418   0.294   7.834   7.790 -1.4404  1.6169 -1.9886
   98MOL   H18531419   0.300   7.821   0.139  1.6129 -1.0520  0.1993
   98MOL   H18631420   0.247   7.680   0.059 -0.1758  0.6489 -0.9818
   98MOL   H18731421   0.128   7.777   0.138 -1.2907 -1.2790 -1.8045
   98MOL   H18831422   0.169   0.159   7.770 -1.8077 -0.4589  0.6947
   98MOL   H18931423   0.483   0.056   0.078 -1.5481  0.2746 -0.1148
   98MOL   H19031424   0.439   0.215   0.135 -1.2127  0.1450 -0.2537
   98MOL   H19131425   0.554   0.204   0.007 -0.6484  1.3366 -2.2704
   98MOL   H19231426   0.336   0.222   7.630 -0.1053 -1.1037  0.2688
   98MOL   H19331427   0.507   0.251   7.700 -0.0283  0.5598  0.2360
   98MOL   C19431428   0.153   0.206   0.082 -0.2591 -0.3025  0.7785
   98MOL   C19531429   0.010   0.164   0.090 -0.4953 -0.8512  0.1205
   98MOL   C19631430   0.186   0.362   0.081 -0.1514  0.3610  0.3352
   98MOL   C19731431   0.228   0.413   0.227  0.5307  0.9706 -0.3085
   98MOL   C19831432   0.124   0.419   0.332 -0.3473 -0.4127  0.1955
   98MOL   C19931433   0.357   0.439   0.254 -0.4573 -0.6051  0.8145
   98MOL   H20031434   0.205   0.166   0.169 -0.7024 -1.8234  0.3495
   98MOL   H20131435   0.005   0.063   0.129  0.1786 -0.6089  0.8601
   98MOL   H20231436   7.848   0.170   7.888  3.2170 -1.8477 -2.1606
   98MOL   H20331437   7.843   0.209   0.170 -2.0605  0.7543 -1.8612
   98MOL   H20431438   0.282   0.362   0.028  0.3802 -1.4360  1.2624
   98MOL   H20531439   0.163   0.437   0.432  1.6383 -2.1064 -0.2468
   98MOL   H20631440   0.069   0.326   0.343 -1.3638  0.1590  0.0003
   98MOL   H20731441   0.055   0.500   0.311 -1.6331 -2.1698 -2.6295
   98MOL   H20831442   0.435   0.438   0.179 -2.1832  1.1354 -1.0893
   98MOL   H20931443   0.394   0.475   0.349  1.4285 -1.8516  0.5666
   98MOL   C21031444   0.087   0.452   0.005  0.4260  0.6586  0.1297
   98MOL   C21131445   0.081   0.420   7.750  0.0181 -0.1180  0.0568
   98MOL   C21231446   0.099   0.609   0.022  0.1393  0.0257  0.6141
   98MOL   C21331447   7.854   0.678   0.027 -0.0128 -0.7111  0.3335
   98MOL   C21431448   7.786   0.681   0.161  0.4507  0.2560  0.0149
   98MOL   C21531449   7.790   0.736   7.817  0.2054 -0.7730 -0.1226
   98MOL   H21631450   7.880   0.436   0.046  0.3142 -1.3982 -0.8850
   98MOL   H21731451   0.177   0.400   7.702 -0.3419 -2.9602  0.4397
   98MOL   H21831452   0.014   0.481   7.690 -0.1306 -1.2567 -0.9405
   98MOL   H21931453   0.039   0.320   7.746  0.3578 -0.2260 -1.1266
   98MOL   H22031454   0.140   0.632   0.120  1.3359  1.6949 -0.2513
   98MOL   H22131455   7.862   0.714   0.232  3.1427 -0.0622 -2.6058
   98MOL   H22231456   7.751   0.584   0.195 -0.6665  0.6939  0.1425
   98MOL   H22331457   7.714   0.762   0.177 -1.6256 -1.8996  1.9426
   98MOL   H22431458   7.825   0.743   7.715  0.6625 -0.2081  0.0734
   98MOL   H22531459   7.692   0.780   7.826  0.8786  1.5828 -3.6402
   98MOL   C22631460   0.197   0.685   7.817 -0.2936  0.4406  0.3807
   98MOL   C22731461   0.339   0.621   7.813  0.4967 -0.3003  0.6217
   98MOL   C22831462   0.206   0.841   7.841 -0.0604 -1.2882 -0.5051
   98MOL   C22931463   0.197   0.913   7.705  0.0444 -0.3104 -0.1465
   98MOL   C23031464   0.311   0.899   7.605  0.2860  0.1242 -0.1096
   98MOL   C23131465   0.086   0.990   7.668 -0.1691 -0.3672 -0.5760
   98MOL   H23231466   0.155   0.683   7.716  1.4458 -1.2871 -0.3405
   98MOL   H23331467   0.376   0.570   0.009  2.2896  0.5037  0.3598
   98MOL   H23431468   0.416   0.683   7.769 -0.5874  0.7624  0.1976
   98MOL   H23531469   0.348   0.532   7.749  2.5475 -0.5408  1.2107
   98MOL   H23631470   0.112   0.875   7.885 -0.3346  0.0604 -2.0993
   98MOL   H23731471   0.298   0.953   7.511 -0.2506  2.5093  1.2969
   98MOL   H23831472   0.343   0.795   7.594 -2.3237 -0.4647 -2.6594
   98MOL   H23931473   0.390   0.954   7.655 -0.1190  0.0786  0.5850
   98MOL   H24031474   0.003   1.009   7.734  2.1141  1.2630  1.9727
   98MOL   H24131475   0.090   1.040   7.572  1.3216  1.0215  0.1919
   98MOL   C24231476   0.321   0.891   0.050  0.5983 -0.0541 -0.2117
   98MOL   C24331477   0.330   0.808   0.182  0.9615 -1.0894  0.7416
   98MOL   C24431478   0.309   1.044   0.081 -0.1485  0.1358  0.4535
   98MOL   C24531479   0.450   1.102   0.069  0.4118 -0.6099  0.0199
   98MOL   C24631480   0.553   1.060   0.175 -0.6498 -0.3769 -0.2203
   98MOL   C24731481   0.486   1.188   7.864 -0.5016  0.0359 -0.0969
   98MOL   H24831482   0.420   0.875   0.007  1.2251  0.7725  0.9078
   98MOL   H24931483   0.373   0.709   0.173 -0.3359 -1.6974  1.2151
   98MOL   H25031484   0.233   0.795   0.229  0.3859 -1.1464 -0.4551
   98MOL   H25131485   0.391   0.854   0.261 -0.8037 -1.2726  2.2354
   98MOL   H25231486   0.258   1.092   7.890  0.2995 -0.8086 -0.3609
   98MOL   H25331487   0.516   1.070   0.277  0.2046  1.2273 -0.0425
   98MOL   H25431488   0.638   1.129   0.169 -1.2107  0.4780  1.3255
   98MOL   H25531489   0.568   0.952   0.167 -2.2134 -0.9062  3.1199
   98MOL   H25631490   0.416   1.224   7.790  1.9566  1.9348 -1.5847
   98MOL   H25731491   0.586   1.229   7.856 -0.3611 -0.7133 -2.7609
   98MOL   C25831492   0.223   1.088   0.210 -0.4174  0.0086  0.8987
   98MOL   C25931493   0.076   1.034   0.206 -0.2640 -0.0456 -0.0377
   98MOL   C26031494   0.230   1.246   0.230 -0.2300 -0.4030  0.1391
   98MOL   C26131495   0.244   1.265   0.380  0.5620  0.2218 -0.4249
   98MOL   C26231496   0.120   1.239   0.468 -0.3235  0.0217  0.2210
   98MOL   C26331497   0.354   1.320   0.437  0.5619  0.8083 -0.2033
   98MOL   H26431498   0.269   1.042   0.297 -2.2403 -1.9317  0.8711
   98MOL   H26531499   0.073   0.931   0.241  2.1173 -0.0804  0.1935
   98MOL   H26631500   0.025   1.035   0.110  1.2912 -0.6013 -0.8846
   98MOL   H26731501   0.013   1.091   0.274  0.2175  0.0245  0.3581
   98MOL   H26831502   0.323   1.274   0.181 -0.0491 -2.0305 -0.4937
   98MOL   H26931503   0.143   1.276   0.568 -1.5331  0.0522  0.4886
   98MOL   H27031504   0.110   1.132   0.484  0.1788  0.1862  1.7104
   98MOL   H27131505   0.032   1.287   0.427  0.4490  0.7580 -0.5817
   98MOL   H27231506   0.434   1.348   0.370  1.9947 -0.2968  1.0175
   98MOL   H27331507   0.370   1.335   0.542  0.8880 -1.9415  0.1878
   98MOL   C27431508   0.110   1.327   0.166  0.4847 -0.1502 -0.6957
   98MOL   C27531509   0.104   1.307   0.012 -0.3135 -0.7712 -0.5695
   98MOL   C27631510   0.093   1.475   0.211 -0.5105  1.0548  0.0148
   98MOL   C27731511   7.830   1.497   0.226  0.3648  0.6280 -0.3205
   98MOL   C27831512   7.746   1.509   0.099  0.2142 -0.0642  0.0836
   98MOL   C27931513   7.767   1.509   0.342 -0.2501  0.7383 -0.1198
   98MOL   H28031514   0.020   1.281   0.207 -0.0022 -1.6204 -3.2679
   98MOL   H28131515   0.077   1.203   7.885 -1.4049 -0.5118 -0.4733
   98MOL   H28231516   0.203   1.316   7.861 -0.8058  1.2027 -1.3500
   98MOL   H28331517   0.030   1.369   7.853 -0.0176 -0.5502 -0.7272
   98MOL   H28431518   0.126   1.487   0.314  0.1650 -2.7912  0.2886
   98MOL   H28531519   7.805   1.547   0.016 -0.2680  2.2713  0.7704
   98MOL   H28631520   7.665   1.580   0.117  0.1289 -0.0048 -0.5171
   98MOL   H28731521   7.699   1.412   0.083  0.1332  0.0848 -0.5736
   98MOL   H28831522   7.817   1.508   0.438 -2.1962 -1.2682  0.9438
   98MOL   H28931523   7.660   1.523   0.348 -0.2900 -0.6870  3.4818
   98MOL   C29031524   0.175   1.581   0.129 -0.1207  0.4567  0.3989
   98MOL   C29131525   0.324   1.588   0.167  0.1073 -1.0302 -0.7324
   98MOL   C29231526   0.123   1.719   0.111 -0.3798  0.4290 -0.2483
   98MOL   C29331527   0.175   1.775   7.872 -0.4338  0.0811 -0.1631
   98MOL   C29431528   0.098   1.725   7.749  0.4014  0.0878 -0.5209
   98MOL   C29531529   0.269   1.870   7.859  0.2301  0.0129  0.1294
   98MOL   H29631530   0.183   1.534   0.031  1.1233  2.8096 -0.6892
   98MOL   H29731531   0.357   1.484   0.176 -3.5296 -2.0783  1.7282
   98MOL   H29831532   0.339   1.644   0.259  2.8757 -1.0659 -1.1358
   98MOL   H29931533   0.388   1.624   0.086  0.5745  1.9553  0.8879
   98MOL   H30031534   0.015   1.708   0.104 -0.2093 -1.2089 -0.4051
   98MOL   H30131535   0.143   1.767   7.659 -0.6924 -1.0640 -1.6376
   98MOL   H30231536   7.885   1.753   7.745  0.4356  0.7601  2.5995
   98MOL   H30331537   0.118   1.619   7.735 -2.9191 -0.7020  0.2832
   98MOL   H30431538   0.330   1.904   0.050  2.0920  2.0617 -1.9901
   98MOL   H30531539   0.293   1.915   7.764  1.0002  0.4675  0.5315
   98MOL   C30631540   0.147   1.822   0.239 -0.1594 -0.0500  0.2289
   98MOL   C30731541   0.117   1.765   0.377  0.0850 -0.1527  0.5064
   98MOL   C30831542   0.072   1.961   0.223 -0.0298  0.2125 -0.1383
   98MOL   C30931543   7.816   1.951   0.235 -0.4158 -0.1997 -0.0410
   98MOL   C31031544   7.760   1.980   0.374  0.1975  0.4873  0.3228
   98MOL   C31131545   7.742   1.926   0.126  0.0535  0.3287  0.3098
   98MOL   H31231546   0.250   1.853   0.256 -0.3926  0.4244  0.8120
   98MOL   H31331547   0.187   1.684   0.398 -3.1004 -3.1595 -0.0536
   98MOL   H31431548   0.015   1.727   0.376  0.6694 -1.7345 -0.4248
   98MOL   H31531549   0.144   1.845   0.446  0.4694 -1.6341  2.1002
   98MOL   H31631550   0.115   2.045   0.277 -1.1945  1.2951 -0.8877
   98MOL   H31731551   7.654   1.954   0.373  0.3040  0.0564  0.1194
   98MOL   H31831552   7.772   2.086   0.396  2.0257 -0.2528  3.2978
   98MOL   H31931553   7.811   1.930   0.457 -1.6289  2.0792  2.4859
   98MOL   H32031554   7.789   1.902   0.031 -0.6085  1.2560 -0.2615
   98MOL   H32131555   7.634   1.923   0.115  0.0021 -2.7639  1.0625
   98MOL   H32231556   0.084   1.995   0.121  2.5941 -0.6181 -0.1349
   99MOL     C131557   4.149   3.778   0.017 -0.4552  0.5047  0.4629
   99MOL     C231558   4.153   3.861   0.146  0.4417 -0.3016  0.5082
   99MOL     C331559   4.132   3.869   7.781 -1.1350 -0.4516  0.1642
   99MOL     C431560   3.998   3.944   7.774 -0.5476  0.0611 -0.4125
   99MOL     C531561   4.004   4.067   7.681  0.1085  0.1007 -0.8896
   99MOL     C631562   3.886   3.906   7.837  0.0970 -0.7342 -0.0998
   99MOL     H731563   4.239   3.716   0.016  0.7290  2.1637  1.5230
   99MOL     H831564   4.189   3.796   0.227 -0.8902 -1.9141 -0.1713
   99MOL     H931565   4.060   3.904   0.181  1.3071  1.5867  0.5337
   99MOL    H1031566   4.225   3.934   0.109 -0.2720  0.1603  0.0348
   99MOL    H1131567   4.206   3.949   7.786 -0.1107 -1.2046 -2.0581
   99MOL    H1231568   4.078   4.146   7.694  1.9308 -1.9427  1.5627
   99MOL    H1331569   3.915   4.120   7.713  0.2222 -0.4299  0.3298
   99MOL    H1431570   3.996   4.050   7.573 -1.7811 -2.5681 -0.3688
   99MOL    H1531571   3.896   3.828   0.019  2.3231 -0.4531 -0.0700
   99MOL    H1631572   3.789   3.949   7.821  0.0679 -0.7679 -0.0124
   99MOL    H1731573   4.065   3.709   0.026  1.3269 -1.7703  0.2857
   99MOL    C1831574   4.164   3.792   7.648  0.5176  0.1047 -0.4837
   99MOL    C1931575   4.075   3.669   7.639 -0.1054 -0.4850 -0.2546
   99MOL    C2031576   4.315   3.773   7.616 -0.2513 -0.3769 -0.0556
   99MOL    C2131577   4.396   3.904   7.642  0.3434  0.2431 -0.1943
   99MOL    C2231578   4.387   4.018   7.539 -0.2708  0.4734  0.6609
   99MOL    C2331579   4.484   3.916   7.743  0.3874 -0.1977  0.6488
   99MOL    H2431580   4.131   3.851   7.562 -1.0735 -1.2382 -0.8135
   99MOL    H2531581   4.082   3.595   7.718  0.7922 -0.4559 -0.3070
   99MOL    H2631582   4.085   3.622   7.542 -0.6029  1.1641 -1.1224
   99MOL    H2731583   3.972   3.705   7.635  0.0370  0.2734  1.9588
   99MOL    H2831584   4.336   3.698   7.692 -0.3465 -0.4830 -0.1328
   99MOL    H2931585   4.417   4.113   7.583  1.1653  1.3372 -2.0806
   99MOL    H3031586   4.287   4.028   7.498 -0.5033 -2.7212  0.3266
   99MOL    H3131587   4.458   4.005   7.458  0.1440  2.4973  0.6793
   99MOL    H3231588   4.502   3.836   7.814  3.3171  1.6005  2.0320
   99MOL    H3331589   4.550   4.000   7.759  0.8959 -0.8010  1.7668
   99MOL    C3431590   4.356   3.690   7.483  0.2462 -0.1618  0.4279
   99MOL    C3531591   4.270   3.730   7.360 -0.1638  0.6401 -0.2683
   99MOL    C3631592   4.374   3.538   7.504 -0.3868 -0.3668 -0.0301
   99MOL    C3731593   4.441   3.498   7.640  0.4682  0.4935 -0.5775
   99MOL    C3831594   4.580   3.552   7.660 -0.7532 -0.1821  0.4222
   99MOL    C3931595   4.385   3.414   7.727 -0.1959 -0.1542 -0.0717
   99MOL    H4031596   4.450   3.737   7.456  0.3699 -0.5946  0.1151
   99MOL    H4131597   4.167   3.694   7.366 -0.2936  0.8620 -1.1856
   99MOL    H4231598   4.300   3.689   7.264 -0.1204  0.5445 -0.2149
   99MOL    H4331599   4.249   3.836   7.350  0.2852  0.7245 -0.3292
   99MOL    H4431600   4.270   3.513   7.520  0.0227 -0.5689  2.5607
   99MOL    H4531601   4.613   3.567   7.763 -1.2463  1.1174  0.3984
   99MOL    H4631602   4.605   3.644   7.608  3.1131 -0.2373  2.0108
   99MOL    H4731603   4.645   3.477   7.616  1.0726  1.3298  0.5288
   99MOL    H4831604   4.287   3.371   7.713 -0.1434 -0.5087  0.6214
   99MOL    H4931605   4.431   3.386   7.821  1.0775 -1.0028 -0.9369
   99MOL    C5031606   4.435   3.452   7.395 -0.1737 -0.4015 -0.6100
   99MOL    C5131607   4.548   3.519   7.316 -0.2470 -0.5837 -0.3115
   99MOL    C5231608   4.325   3.385   7.311  0.5598 -0.0363 -0.5370
   99MOL    C5331609   4.218   3.302   7.399  0.0034 -0.7489  0.1365
   99MOL    C5431610   4.076   3.345   7.378 -0.2494 -0.4924  0.4491
   99MOL    C5531611   4.238   3.186   7.461 -0.0995  0.0901 -1.1229
   99MOL    H5631612   4.479   3.371   7.453  0.4099  0.0961 -0.3616
   99MOL    H5731613   4.603   3.576   7.390 -2.3731 -0.2035  1.0302
   99MOL    H5831614   4.502   3.589   7.246  1.2235 -0.6182 -1.3255
   99MOL    H5931615   4.618   3.457   7.259  0.4901  0.6894 -0.8023
   99MOL    H6031616   4.272   3.475   7.278  1.3941  1.3434  1.7707
   99MOL    H6131617   4.038   3.318   7.279  0.0583  0.7836 -0.0293
   99MOL    H6231618   4.066   3.453   7.390  0.7480 -0.1622 -1.4648
   99MOL    H6331619   4.019   3.305   7.461 -0.7497  1.6191  1.1653
   99MOL    H6431620   4.337   3.144   7.470  0.5453  1.9833  1.1662
   99MOL    H6531621   4.161   3.127   7.507 -1.0084  0.6007 -1.9792
   99MOL    C6631622   4.363   3.310   7.183 -0.2483  0.1770 -0.5371
   99MOL    C6731623   4.483   3.211   7.216  0.5916  0.1476  0.3280
   99MOL    C6831624   4.395   3.392   7.052  0.3105  0.4691  0.4721
   99MOL    C6931625   4.281   3.501   7.017 -0.3617  0.6016 -0.1146
   99MOL    C7031626   4.315   3.634   6.955  0.2120 -0.2939  0.4149
   99MOL    C7131627   4.153   3.472   7.043  0.1936  0.0881 -0.0326
   99MOL    H7231628   4.279   3.241   7.171 -0.3677  0.3649 -0.7781
   99MOL    H7331629   4.575   3.255   7.178  1.2409 -1.1909  0.3286
   99MOL    H7431630   4.481   3.114   7.166  1.3812  0.2938  0.0103
   99MOL    H7531631   4.493   3.183   7.322 -0.4286  0.0718  0.4068
   99MOL    H7631632   4.479   3.454   7.083 -0.6744  2.8944 -1.4843
   99MOL    H7731633   4.332   3.620   6.848 -2.4012  1.0130 -0.1983
   99MOL    H7831634   4.403   3.663   7.012 -0.1047  2.1601 -0.3166
   99MOL    H7931635   4.236   3.703   6.980  1.0907  1.5898 -1.8315
   99MOL    H8031636   4.124   3.375   7.081  1.7412  0.0792  1.1579
   99MOL    H8131637   4.070   3.537   7.017  0.0106 -0.3401 -0.5281
   99MOL    C8231638   4.442   3.304   6.928 -0.2923 -0.0223  0.9437
   99MOL    C8331639   4.546   3.395   6.830  0.7492  0.3793 -1.0016
   99MOL    C8431640   4.328   3.238   6.841  0.3792  0.3876  0.4854
   99MOL    C8531641   4.237   3.131   6.908 -0.1295  0.2858  0.3306
   99MOL    C8631642   4.292   3.005   6.966  0.1026 -0.7700  0.5223
   99MOL    C8731643   4.106   3.151   6.929 -1.0058  0.0556 -0.6524
   99MOL    H8831644   4.513   3.227   6.959 -1.4165 -0.9057  1.3330
   99MOL    H8931645   4.595   3.451   6.910 -0.1448  0.0558 -0.2121
   99MOL    H9031646   4.495   3.471   6.770  0.3292  0.1361 -0.9582
   99MOL    H9131647   4.611   3.325   6.777  0.5202  0.6534 -1.6541
   99MOL    H9231648   4.260   3.320   6.817 -0.9541 -0.5143  1.1096
   99MOL    H9331649   4.306   2.938   6.882 -3.3253 -3.3411  1.9088
   99MOL    H9431650   4.224   2.955   7.034  2.2095 -0.9754  2.5390
   99MOL    H9531651   4.384   3.030   7.019 -0.3727  0.2750  0.8676
   99MOL    H9631652   4.073   3.246   6.889 -1.5333  1.3855  2.7693
   99MOL    H9731653   4.033   3.087   6.975 -1.9210  1.6012  0.0624
   99MOL    C9831654   4.377   3.168   6.700 -0.7350  0.1601 -0.3030
   99MOL    C9931655   4.508   3.084   6.704 -0.1254 -0.2363 -0.5906
   99MOL   C10031656   4.371   3.259   6.575 -0.1988  0.0049 -0.3136
   99MOL   C10131657   4.229   3.322   6.573  0.1017  0.1542  0.0541
   99MOL   C10231658   4.108   3.233   6.545 -0.0934 -0.3637  0.6557
   99MOL   C10331659   4.218   3.458   6.590 -0.2972 -0.1548  0.1150
   99MOL   H10431660   4.307   3.084   6.693  0.0918 -0.5808  0.1954
   99MOL   H10531661   4.592   3.146   6.673 -0.8918  0.4515 -1.3217
   99MOL   H10631662   4.503   2.986   6.658  0.5192 -0.4410 -0.2259
   99MOL   H10731663   4.532   3.060   6.807  2.2156  1.1849 -0.7529
   99MOL   H10831664   4.440   3.341   6.593 -0.9173  0.4911  0.2647
   99MOL   H10931665   4.095   3.171   6.633  0.8077  1.5925  2.2204
   99MOL   H11031666   4.136   3.183   6.452  1.6064  2.7265 -0.6005
   99MOL   H11131667   4.020   3.297   6.549 -0.4701 -0.7536 -0.9601
   99MOL   H11231668   4.308   3.513   6.612 -0.7550 -0.4125  2.7829
   99MOL   H11331669   4.122   3.508   6.595 -0.3248 -0.2242  0.3090
   99MOL   C11431670   4.416   3.199   6.435 -0.6067 -0.6720  0.0638
   99MOL   C11531671   4.370   3.053   6.411 -0.0989  0.4599  0.3649
   99MOL   C11631672   4.571   3.219   6.396 -0.2560  0.0751  0.2735
   99MOL   C11731673   4.626   3.357   6.427 -0.1052  0.2840  0.3896
   99MOL   C11831674   4.768   3.361   6.490  0.7245  0.2691  0.0539
   99MOL   C11931675   4.557   3.468   6.407 -0.6475  0.4519 -0.0190
   99MOL   H12031676   4.364   3.266   6.367  1.4160 -0.7532 -1.6275
   99MOL   H12131677   4.289   3.026   6.478  0.2710 -1.0862  0.1937
   99MOL   H12231678   4.449   2.982   6.435 -0.7043  0.0723  1.2262
   99MOL   H12331679   4.335   3.041   6.309  1.6509 -0.7200 -0.1267
   99MOL   H12431680   4.625   3.151   6.462  0.2418  0.5500  0.3526
   99MOL   H12531681   4.842   3.345   6.412  0.4163 -1.5665  0.1220
   99MOL   H12631682   4.790   3.283   6.562  2.4327  1.9211  1.3836
   99MOL   H12731683   4.789   3.459   6.534 -1.1273  0.8856 -0.3807
   99MOL   H12831684   4.461   3.459   6.360 -0.8434 -0.7185  0.5862
   99MOL   H12931685   4.594   3.564   6.442  0.7379  0.6766 -2.0288
   99MOL   C13031686   4.616   3.177   6.246 -0.2713  0.2520  0.1418
   99MOL   C13131687   4.530   3.235   6.142  0.4289 -0.1335  0.1372
   99MOL   C13231688   4.659   3.027   6.224 -0.8719 -0.1644 -0.0688
   99MOL   C13331689   4.741   2.975   6.351  0.9828  0.5884 -0.4701
   99MOL   C13431690   4.873   3.033   6.375 -0.1837 -0.0576  0.6025
   99MOL   C13531691   4.699   2.881   6.434 -0.3191 -0.7163 -1.0163
   99MOL   H13631692   4.706   3.236   6.229 -0.4463  0.8276  1.1508
   99MOL   H13731693   4.436   3.181   6.132  0.5771 -0.2156 -0.8701
   99MOL   H13831694   4.575   3.236   6.042 -1.5568  1.9494 -0.7924
   99MOL   H13931695   4.512   3.341   6.163  0.0342  0.2375 -1.9231
   99MOL   H14031696   4.560   2.984   6.231 -0.3520 -1.6023 -1.3419
   99MOL   H14131697   4.950   2.992   6.309  0.2086 -0.3193  1.2210
   99MOL   H14231698   4.906   3.000   6.474 -0.5060 -1.3772  0.2759
   99MOL   H14331699   4.868   3.142   6.378 -1.7052 -0.0850 -0.7870
   99MOL   H14431700   4.603   2.837   6.413 -0.3467 -0.7371 -0.8421
   99MOL   H14531701   4.749   2.836   6.518 -1.5980  0.8675  0.6323
   99MOL   C14631702   4.722   2.981   6.088  0.2197  0.2897  0.2277
   99MOL   C14731703   4.826   3.087   6.035  0.1294  0.3086  1.0373
   99MOL   C14831704   4.620   2.929   5.978 -0.2084 -0.7239  0.3961
   99MOL   C14931705   4.532   2.809   6.025 -0.1257 -0.3132 -1.1072
   99MOL   C15031706   4.393   2.793   5.955 -0.5966  0.0790 -0.3411
   99MOL   C15131707   4.573   2.717   6.116 -0.0662  0.1706  0.0322
   99MOL   H15231708   4.775   2.891   6.118  0.4292  0.4993  0.4949
   99MOL   H15331709   4.766   3.170   5.998 -0.3031 -0.4259  0.0940
   99MOL   H15431710   4.880   3.054   5.946  1.6293 -0.8791  2.3570
   99MOL   H15531711   4.903   3.117   6.107  1.7407 -0.4532 -0.3299
   99MOL   H15631712   4.536   2.999   5.972  0.0068 -0.3885  1.1571
   99MOL   H15731713   4.334   2.877   5.990  0.2336  0.8185 -0.6782
   99MOL   H15831714   4.346   2.699   5.986 -1.3979 -0.4112 -2.9141
   99MOL   H15931715   4.390   2.793   5.846  0.4234  1.0515 -0.3804
   99MOL   H16031716   4.670   2.725   6.163 -0.9783  3.1117  1.5501
   99MOL   H16131717   4.512   2.636   6.152  0.0843 -0.3541 -0.8872
   99MOL   C16231718   4.678   2.895   5.838  0.3037 -0.7285 -0.4524
   99MOL   C16331719   4.798   2.796   5.862  0.3432 -0.2689  0.5315
   99MOL   C16431720   4.696   3.003   5.729  0.9855 -0.1388  0.0337
   99MOL   C16531721   4.568   3.086   5.721  0.3721  0.0893 -0.5997
   99MOL   C16631722   4.576   3.237   5.728 -0.1169  0.5839  0.7490
   99MOL   C16731723   4.450   3.032   5.701  0.4825  1.3165  0.4068
   99MOL   H16831724   4.604   2.828   5.794 -0.6723  0.9350 -1.3928
   99MOL   H16931725   4.821   2.744   5.769 -0.5979  1.3389 -0.6540
   99MOL   H17031726   4.774   2.723   5.939  0.5228 -0.2335  0.6205
   99MOL   H17131727   4.889   2.852   5.882  2.5344 -2.8291 -1.8611
   99MOL   H17231728   4.770   3.069   5.774  0.7409  0.3819 -0.3314
   99MOL   H17331729   4.667   3.267   5.781  0.9227 -2.4253  0.7726
   99MOL   H17431730   4.488   3.279   5.776  0.4391  3.4416 -0.6611
   99MOL   H17531731   4.597   3.266   5.625  0.2731 -2.0464  0.0502
   99MOL   H17631732   4.436   2.925   5.691  0.2800  1.2875  0.9735
   99MOL   H17731733   4.359   3.089   5.691 -1.6611 -1.8428  0.8480
   99MOL   C17831734   4.753   2.963   5.594  0.9842  0.1139  0.6078
   99MOL   C17931735   4.694   2.829   5.535 -0.0705  0.4799 -0.2917
   99MOL   C18031736   4.906   2.974   5.582  0.2828 -0.0667  0.7259
   99MOL   C18131737   4.975   3.096   5.646 -0.1447 -0.1109  0.3198
   99MOL   C18231738   5.108   3.072   5.725  0.3017  0.4883  0.7127
   99MOL   C18331739   4.923   3.218   5.642 -0.2401 -0.0606  0.4538
   99MOL   H18431740   4.720   3.034   5.518 -1.8671 -1.6036  0.1533
   99MOL   H18531741   4.587   2.815   5.550  0.4919 -2.5977  1.4321
   99MOL   H18631742   4.729   2.737   5.582 -2.5661  0.7249  2.2027
   99MOL   H18731743   4.718   2.824   5.429  2.8001  1.8203  0.2610
   99MOL   H18831744   4.949   2.895   5.644  1.9326 -0.2186 -0.5868
   99MOL   H18931745   5.085   2.984   5.785 -0.3545  1.0378  1.2680
   99MOL   H19031746   5.137   3.160   5.782 -0.0062  1.0163  0.0664
   99MOL   H19131747   5.187   3.039   5.657  0.2460 -0.7045  1.2203
   99MOL   H19231748   4.823   3.245   5.613 -0.1402  0.1389  0.2988
   99MOL   H19331749   4.979   3.300   5.684 -0.1988  0.3184 -0.3366
   99MOL   C19431750   4.978   2.931   5.445  0.2599 -0.9668  0.9662
   99MOL   C19531751   4.914   3.020   5.335 -0.4186  0.4823 -0.5235
   99MOL   C19631752   5.005   2.785   5.407  0.0578 -0.2367  0.5407
   99MOL   C19731753   5.037   2.689   5.520  0.2724 -0.0572  0.1867
   99MOL   C19831754   4.964   2.557   5.530 -0.6427  0.0138  0.3382
   99MOL   C19931755   5.118   2.717   5.618 -0.4888 -0.3323  0.0781
   99MOL   H20031756   5.074   2.979   5.463  0.2725 -1.1118  1.2905
   99MOL   H20131757   4.830   2.978   5.280  0.2130 -1.0398 -0.3277
   99MOL   H20231758   4.989   3.029   5.256 -1.0083 -2.3463 -1.4429
   99MOL   H20331759   4.907   3.127   5.358 -0.0013  0.0981  1.4712
   99MOL   H20431760   4.919   2.737   5.359  0.6264 -0.4657 -0.2639
   99MOL   H20531761   4.996   2.489   5.451  0.5721 -0.3193  1.1067
   99MOL   H20631762   4.856   2.556   5.548 -1.1051  0.5728 -2.2476
   99MOL   H20731763   4.991   2.496   5.616 -5.1406  1.2713  2.8524
   99MOL   H20831764   5.172   2.811   5.614  1.1547 -1.3130 -3.4073
   99MOL   H20931765   5.136   2.652   5.702  0.2404  0.5871  0.6442
   99MOL   C21031766   5.112   2.781   5.290 -0.3684  0.5865 -0.8585
   99MOL   C21131767   5.109   2.646   5.211 -0.2590  0.5779 -0.5365
   99MOL   C21231768   5.256   2.840   5.317 -0.1664 -0.0587  0.4124
   99MOL   C21331769   5.290   2.951   5.211  0.0809 -0.0146  0.1093
   99MOL   C21431770   5.277   3.097   5.257 -0.4598 -0.1392 -0.4686
   99MOL   C21531771   5.317   2.925   5.083  0.0534 -0.1259  0.0667
   99MOL   H21631772   5.068   2.840   5.210  0.8001  3.5250  0.6058
   99MOL   H21731773   5.015   2.613   5.165  0.5695  0.0053 -1.8475
   99MOL   H21831774   5.130   2.565   5.280  2.7687  0.4912 -1.5103
   99MOL   H21931775   5.183   2.637   5.132  0.5083 -0.4027  0.2775
   99MOL   H22031776   5.258   2.900   5.408  2.0700  0.4681  0.0517
   99MOL   H22131777   5.334   3.172   5.202  1.7834 -0.4334  1.3791
   99MOL   H22231778   5.293   3.108   5.364 -1.0746 -0.3069 -0.3524
   99MOL   H22331779   5.171   3.119   5.240 -0.1601  3.1121  1.3925
   99MOL   H22431780   5.311   2.824   5.044 -0.8534 -0.8789  2.1007
   99MOL   H22531781   5.341   3.000   5.009 -2.9926  0.8021 -0.0678
   99MOL   C22631782   5.382   2.743   5.328  0.3769 -0.4242 -0.4199
   99MOL   C22731783   5.370   2.607   5.396  0.0148 -0.3429  0.3392
   99MOL   C22831784   5.509   2.823   5.368  0.3631 -0.0003  0.5446
   99MOL   C22931785   5.619   2.808   5.259  0.5871  0.0144  0.0599
   99MOL   C23031786   5.697   2.673   5.256 -0.2644  0.0975 -0.0447
   99MOL   C23131787   5.654   2.916   5.184 -0.5355  0.6955  0.3474
   99MOL   H23231788   5.397   2.714   5.224  0.8512 -2.4169  0.1883
   99MOL   H23331789   5.301   2.602   5.481  0.1275  1.3587  0.5466
   99MOL   H23431790   5.465   2.563   5.425 -0.2675 -2.6696 -2.1468
   99MOL   H23531791   5.333   2.539   5.319 -1.8801  3.2625 -2.0792
   99MOL   H23631792   5.481   2.928   5.361 -0.3477 -0.3018 -1.7940
   99MOL   H23731793   5.627   2.589   5.249  1.2208 -1.1805  0.1444
   99MOL   H23831794   5.742   2.654   5.354 -3.2647 -1.0022  1.1908
   99MOL   H23931795   5.765   2.684   5.172  2.1553 -0.7831  1.7155
   99MOL   H24031796   5.609   3.013   5.201 -3.3527 -0.5567  0.3600
   99MOL   H24131797   5.724   2.904   5.103 -1.1732  1.3962 -0.3244
   99MOL   C24231798   5.574   2.818   5.512 -0.0727 -0.7088 -0.0044
   99MOL   C24331799   5.468   2.831   5.628 -0.7829  0.4970  0.3483
   99MOL   C24431800   5.704   2.904   5.537  0.0504 -0.2742  0.6783
   99MOL   C24531801   5.814   2.816   5.587  0.1218 -0.1208 -0.8634
   99MOL   C24631802   5.778   2.740   5.716 -0.3130  0.1406 -0.0114
   99MOL   C24731803   5.926   2.789   5.528 -0.5888  0.2278 -0.2679
   99MOL   H24831804   5.598   2.711   5.508 -1.8059 -1.0660 -1.1075
   99MOL   H24931805   5.389   2.755   5.624  0.6748 -0.9726 -1.6679
   99MOL   H25031806   5.420   2.928   5.618  0.1537  0.9249 -0.0590
   99MOL   H25131807   5.513   2.818   5.726  0.4209  0.8274 -0.1417
   99MOL   H25231808   5.756   2.940   5.448 -2.1429 -0.0751 -0.5440
   99MOL   H25331809   5.687   2.681   5.713  0.5850 -1.2545 -0.2599
   99MOL   H25431810   5.778   2.811   5.799 -0.4894 -0.0027  0.1100
   99MOL   H25531811   5.860   2.675   5.744  0.6511  0.6570 -1.5285
   99MOL   H25631812   5.952   2.836   5.435 -0.5317  0.3552 -0.1877
   99MOL   H25731813   6.001   2.719   5.561 -0.5788  0.3798  0.0358
   99MOL   C25831814   5.688   3.041   5.613  0.1536  0.1710 -0.2109
   99MOL   C25931815   5.609   3.146   5.518 -0.8389  0.3415  0.5888
   99MOL   C26031816   5.822   3.097   5.670  0.3353  0.3085 -0.4720
   99MOL   C26131817   5.795   3.147   5.813  0.1217 -0.0203 -0.0986
   99MOL   C26231818   5.685   3.245   5.835 -0.6244 -0.0996  0.3131
   99MOL   C26331819   5.864   3.102   5.922  0.3145 -0.0071 -0.2288
   99MOL   H26431820   5.624   3.016   5.698 -0.6256 -0.8843 -1.0782
   99MOL   H26531821   5.620   3.145   5.410  1.3312  0.3295  0.7821
   99MOL   H26631822   5.617   3.249   5.554  0.6246  1.0497 -1.6682
   99MOL   H26731823   5.503   3.122   5.531 -1.1366  0.8932 -0.7717
   99MOL   H26831824   5.890   3.015   5.692  1.3138  1.5250  1.1864
   99MOL   H26931825   5.591   3.194   5.812 -0.2602 -0.2469 -0.9196
   99MOL   H27031826   5.714   3.337   5.785 -0.8845 -0.6208 -0.8346
   99MOL   H27131827   5.667   3.272   5.939  0.0446  0.6464  0.2387
   99MOL   H27231828   5.943   3.029   5.911  1.8042  1.6732 -1.0013
   99MOL   H27331829   5.854   3.142   6.022 -2.7829  1.9128 -1.2198
   99MOL   C27431830   5.903   3.199   5.582 -0.1984  0.5301 -0.3634
   99MOL   C27531831   5.946   3.144   5.442  0.4318 -0.0495 -0.3291
   99MOL   C27631832   6.017   3.272   5.652 -0.4788 -0.0455  0.1469
   99MOL   C27731833   6.004   3.418   5.625 -0.0815  0.1012 -0.0106
   99MOL   C27831834   5.931   3.514   5.724 -0.1371 -0.2884  0.3225
   99MOL   C27931835   6.046   3.469   5.506 -0.6031 -0.0040  0.6157
   99MOL   H28031836   5.829   3.274   5.553  0.0827  1.1023  0.3991
   99MOL   H28131837   6.001   3.050   5.445  0.6316  0.0830  0.1093
   99MOL   H28231838   6.005   3.218   5.388  0.5930 -0.8267 -1.2326
   99MOL   H28331839   5.854   3.130   5.385 -0.7914  2.3313  0.9722
   99MOL   H28431840   6.000   3.281   5.759 -0.1863  0.3408  0.1633
   99MOL   H28531841   5.822   3.518   5.715 -0.1906  1.8429  1.5275
   99MOL   H28631842   5.973   3.615   5.718 -0.6231 -0.0732  0.5183
   99MOL   H28731843   5.963   3.491   5.826 -0.4272  0.7748  0.6675
   99MOL   H28831844   6.106   3.414   5.435 -0.4097  0.8097  0.1517
   99MOL   H28931845   6.019   3.570   5.479  0.1540 -0.4738 -2.0865
   99MOL   C29031846   6.163   3.216   5.646  0.8541 -0.4236  0.0732
   99MOL   C29131847   6.160   3.083   5.709  0.0248 -0.1470 -0.3134
   99MOL   C29231848   6.276   3.317   5.700  0.1162  0.0601 -0.5853
   99MOL   C29331849   6.409   3.322   5.635  0.5341 -0.8231 -0.6425
   99MOL   C29431850   6.444   3.453   5.564 -1.0101  0.6702 -0.3819
   99MOL   C29531851   6.483   3.208   5.630 -0.4082 -0.2139  1.5623
   99MOL   H29631852   6.195   3.195   5.543  0.0090  1.1867 -0.5330
   99MOL   H29731853   6.122   3.081   5.810 -2.8371  0.2878 -1.3462
   99MOL   H29831854   6.258   3.035   5.706 -0.1062 -0.3747 -1.2588
   99MOL   H29931855   6.097   3.017   5.649 -0.5254  0.7376 -0.7140
   99MOL   H30031856   6.245   3.412   5.657  1.1133  1.4740  1.7577
   99MOL   H30131857   6.375   3.474   5.482 -1.4267 -0.0329 -0.2118
   99MOL   H30231858   6.541   3.456   5.515 -0.9755  0.5019 -0.3206
   99MOL   H30331859   6.449   3.538   5.633 -2.2357 -0.2194  0.8202
   99MOL   H30431860   6.449   3.122   5.686 -1.2223 -0.3344  0.8939
   99MOL   H30531861   6.580   3.189   5.585  0.2284  1.1790  2.3491
   99MOL   C30631862   6.270   3.338   5.859  0.4969  0.5099 -0.3221
   99MOL   C30731863   6.293   3.482   5.890  0.5793  0.3747 -0.1425
   99MOL   C30831864   6.356   3.229   5.935 -0.1451 -0.0299  0.1932
   99MOL   C30931865   6.355   3.239   6.086 -0.3068 -0.3700 -0.5304
   99MOL   C31031866   6.240   3.175   6.152  0.4183  0.7084  0.1642
   99MOL   C31131867   6.461   3.303   6.148 -0.5580 -0.7078 -0.6742
   99MOL   H31231868   6.175   3.313   5.905  1.1616  2.2821  2.0824
   99MOL   H31331869   6.390   3.516   5.853  0.9275  0.5147  0.9011
   99MOL   H31431870   6.297   3.478   5.999  1.2060 -0.1268 -0.1822
   99MOL   H31531871   6.221   3.563   5.878 -0.3759 -0.0979  2.2776
   99MOL   H31631872   6.336   3.125   5.910  3.2210 -0.8226  0.6321
   99MOL   H31731873   6.217   3.222   6.248  2.0726 -1.2748  1.5772
   99MOL   H31831874   6.251   3.067   6.162  0.2805  0.5191 -1.5759
   99MOL   H31931875   6.153   3.178   6.087 -0.1874  0.3256  0.9495
   99MOL   H32031876   6.543   3.351   6.097 -0.5692 -0.7896 -0.7681
   99MOL   H32131877   6.465   3.304   6.256  0.4296  2.1191 -0.7049
   99MOL   H32231878   6.462   3.240   5.911 -0.6882 -1.8467 -3.4697
  100MOL     C131879   0.638   6.525   6.345 -0.0088 -0.3720  0.2564
  100MOL     C231880   0.628   6.536   6.500 -0.2546  0.1279  0.1049
  100MOL     C331881   0.674   6.660   6.280  0.0198  0.4492 -0.4016
  100MOL     C431882   0.570   6.763   6.315 -0.8321 -0.4082 -0.0971
  100MOL     C531883   0.439   6.752   6.234  0.1235  0.1139  0.1798
  100MOL     C631884   0.592   6.869   6.396 -1.2629 -0.1013 -0.1396
  100MOL     H731885   0.705   6.443   6.320 -1.4370 -1.1328 -1.1513
  100MOL     H831886   0.555   6.610   6.531 -0.3982  0.2806 -0.5906
  100MOL     H931887   0.728   6.566   6.533 -0.9783  1.1437  1.3883
  100MOL    H1031888   0.601   6.439   6.541 -1.3311 -0.3633 -1.7210
  100MOL    H1131889   0.757   6.685   6.347  0.8423  0.7758 -1.5365
  100MOL    H1231890   0.460   6.784   6.132 -1.2397 -0.8648 -0.4259
  100MOL    H1331891   0.369   6.828   6.270  0.4371  0.9706 -0.9802
  100MOL    H1431892   0.388   6.656   6.221  1.3771 -0.3853 -1.2747
  100MOL    H1531893   0.679   6.884   6.458 -0.5967  1.0614 -1.3360
  100MOL    H1631894   0.519   6.945   6.421 -0.4218  0.5964  0.2121
  100MOL    H1731895   0.543   6.492   6.303 -0.2152 -1.0601  1.2261
  100MOL    C1831896   0.721   6.662   6.135  0.7620 -0.0805  0.0332
  100MOL    C1931897   0.640   6.563   6.056 -0.3416  0.5281 -0.0133
  100MOL    C2031898   0.875   6.646   6.114  0.1852  0.1241 -0.5081
  100MOL    C2131899   0.957   6.743   6.202  0.6627  0.3809 -0.2074
  100MOL    C2231900   1.045   6.685   6.314 -0.3755  0.5833  0.0219
  100MOL    C2331901   0.950   6.875   6.190  0.6896 -0.0958 -0.1364
  100MOL    H2431902   0.700   6.758   6.087 -1.1269  0.5127  1.9646
  100MOL    H2531903   0.649   6.466   6.104 -0.2654  1.9223  2.8532
  100MOL    H2631904   0.684   6.570   5.956  0.4750 -2.3698  0.0877
  100MOL    H2731905   0.536   6.589   6.039 -0.2971  0.7104 -0.0030
  100MOL    H2831906   0.884   6.552   6.168 -2.4622  0.1229 -0.0232
  100MOL    H2931907   1.116   6.762   6.342  1.2288 -0.7635 -0.2442
  100MOL    H3031908   1.107   6.601   6.283  2.6869  2.2457  1.5063
  100MOL    H3131909   0.981   6.661   6.400  1.9104  0.8190  1.8252
  100MOL    H3231910   0.874   6.911   6.122  1.2739 -0.7950 -1.1583
  100MOL    H3331911   1.014   6.936   6.251  1.2853 -0.7861 -0.0712
  100MOL    C3431912   0.937   6.632   5.968 -0.1608  0.0166  0.0817
  100MOL    C3531913   0.878   6.740   5.875 -0.9239 -0.0146 -0.4939
  100MOL    C3631914   0.954   6.487   5.904  0.1745 -0.0765 -0.4084
  100MOL    C3731915   1.001   6.388   6.012  0.5164  0.3987  1.2497
  100MOL    C3831916   1.149   6.391   6.056 -0.7573 -0.7835 -0.2751
  100MOL    C3931917   0.926   6.292   6.064  0.4990  0.7146  0.2526
  100MOL    H4031918   1.040   6.662   5.986 -0.4438  0.7863  0.4473
  100MOL    H4131919   0.856   6.832   5.929  1.8732 -0.3661  1.3312
  100MOL    H4231920   0.791   6.707   5.818  0.0496 -1.5062 -1.1669
  100MOL    H4331921   0.944   6.760   5.791 -0.3944 -0.9142 -0.2951
  100MOL    H4431922   0.851   6.455   5.892  0.3353 -1.2191  1.0459
  100MOL    H4531923   1.205   6.315   6.002 -0.1067 -0.9543  0.6355
  100MOL    H4631924   1.138   6.370   6.162  2.8388  0.3291  0.3830
  100MOL    H4731925   1.199   6.487   6.067 -3.0211  0.5515 -1.1515
  100MOL    H4831926   0.825   6.272   6.033  0.8645 -1.4758  0.3964
  100MOL    H4931927   0.963   6.238   6.150 -0.3601 -1.8793 -0.9772
  100MOL    C5031928   1.037   6.469   5.773 -0.3172  0.0169  0.7673
  100MOL    C5131929   1.162   6.560   5.766 -0.0250  0.1937 -0.7975
  100MOL    C5231930   0.945   6.476   5.644 -0.7326  0.3542  0.0495
  100MOL    C5331931   0.817   6.387   5.647  0.0798 -0.0796 -0.5947
  100MOL    C5431932   0.698   6.453   5.582  0.1885  0.0102 -0.2555
  100MOL    C5531933   0.810   6.265   5.707  0.5410 -0.3190  0.3912
  100MOL    H5631934   1.072   6.366   5.785  2.1639  0.4675 -2.1123
  100MOL    H5731935   1.236   6.521   5.695  2.1054  0.0586  1.4197
  100MOL    H5831936   1.215   6.564   5.861 -2.2380  0.6795  0.4431
  100MOL    H5931937   1.146   6.666   5.745 -2.6401 -0.1526 -0.7032
  100MOL    H6031938   0.906   6.577   5.633  2.2102  1.4067 -1.3154
  100MOL    H6131939   0.687   6.552   5.627  1.9870  0.7930 -1.4378
  100MOL    H6231940   0.613   6.388   5.598  0.3156 -0.3128 -0.8702
  100MOL    H6331941   0.712   6.471   5.475 -1.8556  1.1525 -0.3623
  100MOL    H6431942   0.902   6.225   5.747 -0.7316 -3.5172  0.2103
  100MOL    H6531943   0.722   6.204   5.717 -0.1689  0.7557  0.7538
  100MOL    C6631944   1.022   6.450   5.506 -0.0824  0.8950 -0.0448
  100MOL    C6731945   1.095   6.315   5.508 -0.0652 -0.1641 -0.3173
  100MOL    C6831946   1.111   6.573   5.438 -0.1608 -0.1158  0.0881
  100MOL    C6931947   1.051   6.710   5.441 -0.3441 -0.0387 -0.2994
  100MOL    C7031948   1.143   6.823   5.468  0.4530 -0.2262 -0.5731
  100MOL    C7131949   0.921   6.728   5.418 -0.2825 -0.4525 -0.3848
  100MOL    H7231950   0.944   6.441   5.431  2.0904  2.5338 -2.6311
  100MOL    H7331951   1.186   6.315   5.569 -0.0924 -1.6554 -0.2561
  100MOL    H7431952   1.114   6.280   5.407  4.0720  1.3009 -0.1576
  100MOL    H7531953   1.037   6.247   5.570  2.4494  0.3439  2.7735
  100MOL    H7631954   1.190   6.590   5.512  0.8762 -0.1523 -1.0075
  100MOL    H7731955   1.179   6.812   5.570 -2.2422 -0.8628  0.3595
  100MOL    H7831956   1.077   6.909   5.455  1.2557  0.6628  1.0726
  100MOL    H7931957   1.219   6.833   5.391  1.0979  1.3608  0.2598
  100MOL    H8031958   0.852   6.648   5.394  0.3896 -1.5002  1.0878
  100MOL    H8131959   0.886   6.830   5.427  0.2489 -0.3372  0.4456
  100MOL    C8231960   1.169   6.556   5.292 -0.0229 -0.3087  0.1456
  100MOL    C8331961   1.054   6.493   5.209  0.8295  0.1663  0.4025
  100MOL    C8431962   1.304   6.482   5.285 -0.6262  0.2439 -0.2288
  100MOL    C8531963   1.402   6.530   5.392 -0.0757 -0.2397  0.4253
  100MOL    C8631964   1.458   6.669   5.391  0.2281 -0.2599  0.1029
  100MOL    C8731965   1.433   6.453   5.495  0.6203  0.7475  0.0571
  100MOL    H8831966   1.187   6.653   5.246 -0.5089  0.0077  0.6168
  100MOL    H8931967   1.021   6.393   5.239  2.1922  0.2467  2.1967
  100MOL    H9031968   1.073   6.485   5.102 -1.4111 -1.4516  0.0901
  100MOL    H9131969   0.960   6.547   5.219 -0.1126 -1.3642  0.0074
  100MOL    H9231970   1.282   6.380   5.319  1.6400 -0.5531 -1.0401
  100MOL    H9331971   1.562   6.657   5.360  0.5471 -1.3051  1.5252
  100MOL    H9431972   1.436   6.731   5.477  0.8311 -1.5259  1.1878
  100MOL    H9531973   1.406   6.726   5.313 -0.0214  0.3417  0.7061
  100MOL    H9631974   1.404   6.350   5.506  1.5347  0.6187  1.4243
  100MOL    H9731975   1.493   6.489   5.578  1.3253  0.3521 -0.2754
  100MOL    C9831976   1.379   6.468   5.150 -1.3003 -0.1882 -0.0553
  100MOL    C9931977   1.345   6.577   5.051 -0.3922  0.0288  0.1999
  100MOL   C10031978   1.390   6.321   5.093 -0.0677  0.1778 -0.2317
  100MOL   C10131979   1.256   6.280   5.029  0.1532 -0.2251  0.3163
  100MOL   C10231980   1.257   6.303   4.878 -0.8959  0.2090  0.3286
  100MOL   C10331981   1.154   6.225   5.094 -0.2099 -0.9339  0.3723
  100MOL   H10431982   1.482   6.492   5.177 -1.8284  0.2898  1.6161
  100MOL   H10531983   1.346   6.678   5.092  0.8028  0.6339 -1.2705
  100MOL   H10631984   1.244   6.553   5.017  0.3135 -2.5757 -0.1331
  100MOL   H10731985   1.417   6.575   4.970 -0.9983 -0.9399 -0.3261
  100MOL   H10831986   1.462   6.327   5.011 -1.1611  1.9307 -1.1080
  100MOL   H10931987   1.263   6.408   4.850  0.1552  0.4525  1.4222
  100MOL   H11031988   1.167   6.256   4.838  0.5256 -1.1852 -1.2697
  100MOL   H11131989   1.335   6.247   4.827 -0.6302  0.2081  0.7378
  100MOL   H11231990   1.153   6.205   5.201  0.4805  1.4938  0.8567
  100MOL   H11331991   1.064   6.194   5.042 -0.3341 -1.8279  1.1017
  100MOL   C11431992   1.448   6.205   5.180  0.3821 -0.1183  0.6687
  100MOL   C11531993   1.581   6.240   5.257  0.3903 -0.9344 -0.1067
  100MOL   C11631994   1.458   6.067   5.116  0.3630 -0.0820  0.2534
  100MOL   C11731995   1.419   5.957   5.222 -0.5706 -0.1242 -0.1016
  100MOL   C11831996   1.274   5.927   5.238  0.0510  0.3828  0.0479
  100MOL   C11931997   1.507   5.903   5.309 -0.3433 -0.4167 -0.4061
  100MOL   H12031998   1.372   6.193   5.256 -2.3074  2.3371 -1.5100
  100MOL   H12131999   1.628   6.169   5.324 -0.8936 -2.5863 -0.9092
  100MOL   H12232000   1.576   6.328   5.321  0.0791 -2.1946  1.6356
  100MOL   H12332001   1.659   6.256   5.184  1.5144 -0.3196  1.2048
  100MOL   H12432002   1.380   6.060   5.041  0.1373 -1.9250  0.6324
  100MOL   H12532003   1.225   5.980   5.320  1.2596  0.9044  0.4519
  100MOL   H12632004   1.260   5.825   5.272 -1.3151  1.0875  1.7398
  100MOL   H12732005   1.210   5.940   5.151  0.4173 -3.8094 -0.9192
  100MOL   H12832006   1.612   5.926   5.306 -0.1885 -0.7712  1.7739
  100MOL   H12932007   1.481   5.827   5.381 -1.5144 -2.0403 -2.4867
  100MOL   C13032008   1.595   6.036   5.042 -0.5633 -0.2117 -0.6476
  100MOL   C13132009   1.598   6.121   4.916 -0.0841  0.0865  0.1724
  100MOL   C13232010   1.639   5.885   5.019 -0.7196  0.2784 -0.1022
  100MOL   C13332011   1.795   5.875   5.031 -0.1185 -0.1307 -0.3399
  100MOL   C13432012   1.871   5.943   4.929 -0.4156 -0.1748  0.3711
  100MOL   C13532013   1.860   5.800   5.121  0.1663  0.8064  0.1366
  100MOL   H13632014   1.675   6.066   5.110 -3.3571 -1.7954  3.5482
  100MOL   H13732015   1.650   6.212   4.945  0.6461  0.1321 -1.2383
  100MOL   H13832016   1.497   6.129   4.877 -0.0479  0.5472  0.1755
  100MOL   H13932017   1.656   6.078   4.834  0.8916  0.9260  0.4115
  100MOL   H14032018   1.610   5.825   5.105 -0.0234 -0.5386 -0.4217
  100MOL   H14132019   1.870   6.049   4.953  0.2817 -0.0540 -0.1243
  100MOL   H14232020   1.830   5.917   4.831 -0.4983 -1.4835  0.7480
  100MOL   H14332021   1.976   5.915   4.939 -0.4862 -0.1840  1.0559
  100MOL   H14432022   1.817   5.760   5.211 -1.2952 -0.9263 -1.3022
  100MOL   H14532023   1.966   5.785   5.104  0.0539  0.1787 -0.0120
  100MOL   C14632024   1.577   5.801   4.899 -0.7673 -0.3037  0.0337
  100MOL   C14732025   1.420   5.801   4.897 -0.4569  0.1511 -0.1520
  100MOL   C14832026   1.634   5.649   4.885  0.2577 -0.1364  0.2035
  100MOL   C14932027   1.638   5.614   4.733  0.0230  0.6230  0.2676
  100MOL   C15032028   1.760   5.657   4.662 -0.6243 -0.9175  0.9644
  100MOL   C15132029   1.534   5.553   4.671  0.1129  0.1152 -0.7616
  100MOL   H15232030   1.612   5.847   4.807  0.2927  0.3752  0.7733
  100MOL   H15332031   1.375   5.899   4.883  2.2008  1.4723  0.2736
  100MOL   H15432032   1.365   5.759   4.981 -0.8137  0.2616 -0.3298
  100MOL   H15532033   1.382   5.751   4.808 -1.0069  0.5243 -0.1292
  100MOL   H15632034   1.736   5.647   4.922  0.3048 -1.1424  0.0468
  100MOL   H15732035   1.858   5.623   4.696  1.9583  0.9547 -4.0424
  100MOL   H15832036   1.761   5.765   4.644  4.2845 -0.7402  1.5607
  100MOL   H15932037   1.751   5.613   4.563  0.2079  0.4327  0.2704
  100MOL   H16032038   1.440   5.527   4.717  0.9605 -1.7998 -0.0738
  100MOL   H16132039   1.545   5.526   4.567  1.2661 -2.5864  0.0257
  100MOL   C16232040   1.569   5.538   4.976 -0.5129  0.5744 -0.0198
  100MOL   C16332041   1.543   5.571   5.126 -0.3718  0.2804 -0.2932
  100MOL   C16432042   1.648   5.399   4.950 -0.1130  0.2933 -0.0527
  100MOL   C16532043   1.549   5.297   4.901 -0.1270  0.2035  0.5832
  100MOL   C16632044   1.427   5.270   4.993  0.3541  0.1237  0.1887
  100MOL   C16732045   1.571   5.226   4.794 -0.0331 -0.1236  0.8315
  100MOL   H16832046   1.466   5.521   4.945 -0.9430  2.1812  0.4443
  100MOL   H16932047   1.462   5.643   5.128  0.2268  0.9759 -0.8702
  100MOL   H17032048   1.630   5.624   5.165 -1.2113  1.6730 -0.2931
  100MOL   H17132049   1.515   5.492   5.197  1.7013 -2.3712 -2.3245
  100MOL   H17232050   1.718   5.412   4.868 -0.2261  1.6223  0.0503
  100MOL   H17332051   1.467   5.222   5.082  1.3343  1.1363  0.2986
  100MOL   H17432052   1.354   5.205   4.943 -0.8125  1.7429 -0.2430
  100MOL   H17532053   1.386   5.362   5.035 -0.4782  0.2916 -0.9723
  100MOL   H17632054   1.655   5.236   4.728 -0.3846  0.1934  0.4252
  100MOL   H17732055   1.496   5.158   4.758 -0.0962 -0.2862  1.2693
  100MOL   C17832056   1.738   5.351   5.063 -1.2286  0.4505  0.0841
  100MOL   C17932057   1.862   5.445   5.092 -0.4640 -0.3979 -0.2097
  100MOL   C18032058   1.778   5.197   5.064 -0.1631 -0.4985  0.6635
  100MOL   C18132059   1.741   5.133   5.197  0.5323 -0.3905  0.0538
  100MOL   C18232060   1.812   5.182   5.319  0.4600 -0.1871  0.0748
  100MOL   C18332061   1.650   5.031   5.214 -0.0580 -0.1320  0.3583
  100MOL   H18432062   1.674   5.364   5.150  0.8852  0.7883  1.6427
  100MOL   H18532063   1.915   5.458   4.998 -2.7610 -1.1066 -1.6357
  100MOL   H18632064   1.925   5.411   5.173 -0.0153  2.7981  0.8573
  100MOL   H18732065   1.824   5.546   5.111  2.1727  0.8917 -1.5436
  100MOL   H18832066   1.725   5.139   4.988 -0.5937  1.8832 -0.9210
  100MOL   H18932067   1.780   5.134   5.412 -0.0762  0.0777  0.0291
  100MOL   H19032068   1.807   5.291   5.327  0.8322  0.0054 -2.1619
  100MOL   H19132069   1.917   5.170   5.295  0.0246 -0.4891 -1.7122
  100MOL   H19232070   1.582   4.988   5.142  0.7109 -0.6599 -0.0550
  100MOL   H19332071   1.648   4.985   5.312 -1.3060 -1.1465 -0.1165
  100MOL   C19432072   1.929   5.170   5.015 -0.4906  0.9854 -0.3349
  100MOL   C19532073   1.967   5.222   4.873  0.3417 -0.5617  0.1968
  100MOL   C19632074   1.989   5.016   5.035  0.7502  0.8769  0.3896
  100MOL   C19732075   2.147   5.023   5.048 -0.3646 -0.4385 -0.0179
  100MOL   C19832076   2.195   5.048   5.187 -0.0832  0.2365 -0.5062
  100MOL   C19932077   2.227   5.022   4.940  0.2072  0.0697 -0.1815
  100MOL   H20032078   1.993   5.220   5.089 -1.3573 -0.1704  1.2415
  100MOL   H20132079   2.073   5.221   4.850  0.8975 -0.4486  2.6838
  100MOL   H20232080   1.932   5.323   4.851  1.1144 -0.4707 -0.6678
  100MOL   H20332081   1.928   5.159   4.793 -2.2560  1.9618 -0.6117
  100MOL   H20432082   1.946   4.971   5.124 -0.4392 -1.2723 -1.2335
  100MOL   H20532083   2.304   5.051   5.183 -0.1726  2.5141 -4.8845
  100MOL   H20632084   2.138   4.994   5.262 -1.5891  0.3601 -1.5431
  100MOL   H20732085   2.160   5.148   5.215  0.0045 -0.2016  1.1879
  100MOL   H20832086   2.191   5.006   4.840 -0.0025  0.9241 -0.2531
  100MOL   H20932087   2.332   5.045   4.952  0.5839 -1.5904 -0.1603
  100MOL   C21032088   1.947   4.903   4.925 -0.1866  0.0560  0.5606
  100MOL   C21132089   1.797   4.882   4.909  0.0730  0.2940  0.0843
  100MOL   C21232090   2.023   4.761   4.930 -0.0625 -0.2226  0.0472
  100MOL   C21332091   2.060   4.714   4.788  0.0635  0.1786 -0.8583
  100MOL   C21432092   1.945   4.657   4.704 -0.4693  0.0816 -0.5638
  100MOL   C21532093   2.181   4.729   4.736 -0.7550 -0.0313  0.0382
  100MOL   H21632094   1.974   4.950   4.830 -1.8464  1.4947  0.7748
  100MOL   H21732095   1.762   4.850   5.007 -1.2057 -1.6215 -0.9712
  100MOL   H21832096   1.780   4.800   4.839 -0.3760 -0.4738  1.0838
  100MOL   H21932097   1.729   4.963   4.884  1.8528  1.5105 -0.8839
  100MOL   H22032098   2.120   4.775   4.977  0.3679  0.4433 -1.0470
  100MOL   H22132099   1.884   4.742   4.674 -0.7829 -0.3950 -1.2869
  100MOL   H22232100   1.907   4.570   4.758  1.6058  0.2084  1.1990
  100MOL   H22332101   1.982   4.602   4.617  0.3361 -2.0929  1.0997
  100MOL   H22432102   2.262   4.772   4.793  0.6765 -1.7408 -0.6458
  100MOL   H22532103   2.201   4.705   4.632 -0.8015  0.2375 -0.0339
  100MOL   C22632104   1.955   4.648   5.016 -0.4669  0.5152  0.3532
  100MOL   C22732105   1.932   4.700   5.163 -0.0842  0.0120 -0.3582
  100MOL   C22832106   2.035   4.513   5.024  0.4341 -0.5140 -0.2893
  100MOL   C22932107   1.938   4.399   5.014  0.6556 -0.7424  0.2400
  100MOL   C23032108   1.831   4.378   5.119 -0.2452 -0.3412  0.0637
  100MOL   C23132109   1.933   4.323   4.908 -0.4182 -0.5128  0.3171
  100MOL   H23232110   1.861   4.621   4.966 -0.1420 -0.6850  0.3734
  100MOL   H23332111   2.026   4.726   5.212  0.5648 -2.0635 -0.4695
  100MOL   H23432112   1.893   4.621   5.227  0.0757  0.2749  0.0658
  100MOL   H23532113   1.859   4.780   5.176  1.5405  1.3575  0.7757
  100MOL   H23632114   2.086   4.505   4.929 -1.0456  1.7041 -1.3307
  100MOL   H23732115   1.885   4.369   5.214  1.4290 -1.5420 -0.9824
  100MOL   H23832116   1.761   4.294   5.108  0.1791 -0.6070 -0.6323
  100MOL   H23932117   1.770   4.467   5.133 -0.8854 -0.7676  0.0260
  100MOL   H24032118   2.001   4.325   4.824 -0.8295  0.9037  0.0092
  100MOL   H24132119   1.854   4.250   4.902 -0.2791 -0.4843 -2.1867
  100MOL   C24232120   2.147   4.496   5.130  0.4810 -0.3114  0.1816
  100MOL   C24332121   2.255   4.604   5.132 -0.0390  0.2953  0.3255
  100MOL   C24432122   2.197   4.349   5.146  0.4593 -0.1998  0.6536
  100MOL   C24532123   2.201   4.290   5.287  0.0905 -0.7798 -0.0518
  100MOL   C24632124   2.314   4.332   5.375  1.3564  0.2759 -0.2185
  100MOL   C24732125   2.106   4.211   5.335 -0.4566 -0.1963 -0.1549
  100MOL   H24832126   2.101   4.501   5.229 -1.8338 -0.6591 -0.8406
  100MOL   H24932127   2.218   4.696   5.178 -1.2880 -0.0380  0.0213
  100MOL   H25032128   2.309   4.630   5.040 -0.8060 -4.0522 -1.4484
  100MOL   H25132129   2.340   4.570   5.190  2.0671 -3.1274 -4.4153
  100MOL   H25232130   2.122   4.286   5.099  1.2171 -0.8274  0.2583
  100MOL   H25332131   2.319   4.260   5.456 -0.4425  1.1876  0.7382
  100MOL   H25432132   2.284   4.433   5.405  1.3776  0.6907 -1.5608
  100MOL   H25532133   2.405   4.333   5.316  2.6389  0.2687  1.7176
  100MOL   H25632134   2.030   4.180   5.265 -1.4005 -0.6121  1.0274
  100MOL   H25732135   2.111   4.184   5.440 -0.3822 -2.0168 -0.5987
  100MOL   C25832136   2.319   4.312   5.049  0.3669 -0.4229 -0.9124
  100MOL   C25932137   2.312   4.354   4.897 -0.0973 -0.0054 -0.1327
  100MOL   C26032138   2.366   4.166   5.049 -0.3374 -0.4499 -0.0961
  100MOL   C26132139   2.520   4.174   5.067 -0.8899 -0.5284 -0.7919
  100MOL   C26232140   2.609   4.231   4.959  0.3393 -0.1173 -0.0633
  100MOL   C26332141   2.572   4.129   5.185  0.2424  0.3949  0.8181
  100MOL   H26432142   2.402   4.370   5.090  0.0907 -0.8840  0.3376
  100MOL   H26532143   2.405   4.328   4.847 -0.8706  0.8834 -2.0512
  100MOL   H26632144   2.297   4.461   4.886 -0.4498 -0.0603 -0.1927
  100MOL   H26732145   2.222   4.323   4.845 -0.8835 -3.3907  3.0275
  100MOL   H26832146   2.320   4.113   5.133  0.8909 -0.0223  0.8615
  100MOL   H26932147   2.592   4.339   4.962 -0.1004 -0.2115  1.0105
  100MOL   H27032148   2.582   4.184   4.865  0.0397 -0.2920  0.1064
  100MOL   H27132149   2.712   4.214   4.992 -0.0760 -0.8355  0.8753
  100MOL   H27232150   2.505   4.088   5.260  1.8312 -0.8294  1.5926
  100MOL   H27332151   2.679   4.127   5.198  0.0576  0.1258  2.3448
  100MOL   C27432152   2.310   4.077   4.930  0.1402 -0.1914  0.2795
  100MOL   C27532153   2.159   4.063   4.920  0.4752  0.3039 -0.4629
  100MOL   C27632154   2.361   3.926   4.941 -0.5455  0.1876  0.0435
  100MOL   C27732155   2.394   3.866   4.805  0.3907  0.8055  0.2123
  100MOL   C27832156   2.529   3.913   4.758 -0.3473 -0.4574  0.3918
  100MOL   C27932157   2.316   3.787   4.728 -0.2615  0.7753  0.2103
  100MOL   H28032158   2.336   4.113   4.830  0.4388  1.0446  0.7900
  100MOL   H28132159   2.120   4.040   5.019  4.0555  1.7318  1.4081
  100MOL   H28232160   2.135   3.980   4.853  0.9872  0.1072 -0.4084
  100MOL   H28332161   2.103   4.143   4.872  1.8876  1.3984 -0.3125
  100MOL   H28432162   2.460   3.928   4.985  0.1153  1.7832 -1.4448
  100MOL   H28532163   2.553   3.878   4.658 -2.8874  0.5953 -0.6182
  100MOL   H28632164   2.603   3.860   4.818 -0.3303  0.6335  1.3469
  100MOL   H28732165   2.545   4.021   4.756 -0.1746 -0.4995 -0.6147
  100MOL   H28832166   2.221   3.748   4.760 -0.2620  0.6614  0.0673
  100MOL   H28932167   2.345   3.746   4.633 -0.7429  0.7660  0.0640
  100MOL   C29032168   2.297   3.823   5.035  0.0752  0.6476 -0.9543
  100MOL   C29132169   2.272   3.872   5.185 -0.0227  0.2086  0.0837
  100MOL   C29232170   2.360   3.676   5.029  0.3631 -0.1904  0.2313
  100MOL   C29332171   2.245   3.579   5.015 -0.5142  0.2086  0.1797
  100MOL   C29432172   2.260   3.477   4.903 -0.0836  0.1768  0.1058
  100MOL   C29532173   2.136   3.578   5.088  0.0903 -0.0816 -0.4965
  100MOL   H29632174   2.198   3.821   4.991 -1.1289 -2.3623  1.6890
  100MOL   H29732175   2.363   3.918   5.224 -0.6310  1.5913 -0.0665
  100MOL   H29832176   2.235   3.793   5.250  0.9151  0.2314  0.6548
  100MOL   H29932177   2.199   3.953   5.196 -0.3263  0.1211 -1.2355
  100MOL   H30032178   2.422   3.669   4.940 -0.6168  1.5393 -0.6170
  100MOL   H30132179   2.364   3.465   4.872 -0.3391 -1.5635 -0.1327
  100MOL   H30232180   2.217   3.519   4.813  1.8253 -0.9547 -1.3848
  100MOL   H30332181   2.218   3.380   4.929  0.0343 -0.9437 -3.6480
  100MOL   H30432182   2.126   3.644   5.172  0.9633  1.0544 -1.2759
  100MOL   H30532183   2.063   3.498   5.084 -2.3487  2.0708 -0.2803
  100MOL   C30632184   2.461   3.630   5.141  0.8218  0.3703 -0.0079
  100MOL   C30732185   2.582   3.721   5.151  0.0881  0.0272  0.3858
  100MOL   C30832186   2.514   3.477   5.129 -0.2305  0.0495  0.3655
  100MOL   C30932187   2.435   3.377   5.208  0.6263  0.4323 -0.4575
  100MOL   C31032188   2.398   3.422   5.349  0.3609  0.0718  0.1502
  100MOL   C31132189   2.414   3.246   5.170 -0.7081 -0.6525 -0.3098
  100MOL   H31232190   2.414   3.650   5.237  0.9245 -1.8895  0.5333
  100MOL   H31332191   2.553   3.823   5.127  1.7138  0.1968 -0.9071
  100MOL   H31432192   2.667   3.702   5.085 -1.0788 -3.8852 -0.1538
  100MOL   H31532193   2.618   3.719   5.254  0.1714 -1.3816  0.3373
  100MOL   H31632194   2.528   3.441   5.027  1.0471  0.1057  0.5172
  100MOL   H31732195   2.310   3.486   5.345  0.6425  0.5445  1.3422
  100MOL   H31832196   2.484   3.485   5.373  0.6798  0.3392 -1.5957
  100MOL   H31932197   2.377   3.344   5.421 -1.1244  2.2587  2.1530
  100MOL   H32032198   2.441   3.207   5.072  0.2705 -0.6631 -0.0401
  100MOL   H32132199   2.356   3.179   5.231  0.4133  0.5196  2.1055
  100MOL   H32232200   2.613   3.471   5.173 -0.3702 -1.2346  0.5150
  101MOL     C132201   3.261   2.358   7.158  0.5789  0.0581 -0.1761
  101MOL     C232202   3.309   2.447   7.273 -0.0688 -0.4187 -0.4170
  101MOL     C332203   3.287   2.405   7.015  0.5633 -0.5114  0.5845
  101MOL     C432204   3.227   2.545   7.001  0.4239 -0.6647  0.7595
  101MOL     C532205   3.314   2.651   6.934 -0.0922 -0.0071 -0.5818
  101MOL     C632206   3.114   2.583   7.059  0.6459 -0.1761  0.1501
  101MOL     H732207   3.325   2.271   7.169 -2.0255 -1.8686  0.2677
  101MOL     H832208   3.418   2.439   7.264  0.0307  0.2460  0.1374
  101MOL     H932209   3.271   2.440   7.375  3.4860  0.7436  1.1007
  101MOL    H1032210   3.288   2.550   7.242 -1.7717 -0.5481  0.2614
  101MOL    H1132211   3.393   2.424   7.006  0.7266  0.8279  4.4140
  101MOL    H1232212   3.420   2.643   6.955 -0.1116  2.2729  0.4655
  101MOL    H1332213   3.293   2.745   6.984  0.8952  0.9254 -1.8835
  101MOL    H1432214   3.306   2.651   6.825  0.7875 -1.2562 -0.6499
  101MOL    H1532215   3.058   2.506   7.111 -0.1721  0.1103 -0.2966
  101MOL    H1632216   3.081   2.686   7.057 -0.4835 -0.5106  0.6997
  101MOL    H1732217   3.158   2.326   7.175  0.1126  1.0844 -1.0200
  101MOL    C1832218   3.241   2.305   6.904 -0.2749 -0.3704 -0.2978
  101MOL    C1932219   3.096   2.264   6.924  0.0843 -0.6412 -0.0011
  101MOL    C2032220   3.341   2.183   6.902  0.4444 -0.8063 -0.2538
  101MOL    C2132221   3.484   2.232   6.873 -0.5984  0.8528 -0.2769
  101MOL    C2232222   3.600   2.147   6.929 -0.1218  0.4963 -0.2094
  101MOL    C2332223   3.516   2.327   6.789  0.3043 -0.5281  0.4293
  101MOL    H2432224   3.236   2.357   6.808 -0.8306 -0.4664 -0.3199
  101MOL    H2532225   3.033   2.353   6.916 -2.5151 -2.5061 -1.0666
  101MOL    H2632226   3.086   2.209   7.017  2.0502 -1.2718 -0.1447
  101MOL    H2732227   3.066   2.207   6.836  1.3768 -1.0911 -0.1530
  101MOL    H2832228   3.346   2.136   7.000  0.0913  0.6026  0.4425
  101MOL    H2932229   3.694   2.138   6.874 -0.1256 -0.1776 -0.1125
  101MOL    H3032230   3.568   2.044   6.942 -0.9277  0.9314  1.3417
  101MOL    H3132231   3.625   2.173   7.032  0.9389  0.6801 -0.5033
  101MOL    H3232232   3.445   2.383   6.728  2.2327 -0.3529 -1.7319
  101MOL    H3332233   3.620   2.351   6.776 -0.2027  1.6709  0.2003
  101MOL    C3432234   3.307   2.071   6.791 -0.2980 -0.1391  0.1079
  101MOL    C3532235   3.277   2.132   6.651 -0.1570 -0.3620 -0.6486
  101MOL    C3632236   3.197   1.961   6.824  0.2738  0.4379 -0.5168
  101MOL    C3732237   3.180   1.944   6.974  0.1042  0.5854 -0.9989
  101MOL    C3832238   3.291   1.876   7.051 -0.0220 -1.2942  0.4612
  101MOL    C3932239   3.064   1.975   7.032  0.2143  0.2280  0.1039
  101MOL    H4032240   3.404   2.023   6.780 -0.8507 -1.0722 -0.7929
  101MOL    H4132241   3.326   2.229   6.654 -0.4653 -0.2094 -0.5065
  101MOL    H4232242   3.175   2.165   6.632 -0.0633  1.0272  1.0737
  101MOL    H4332243   3.316   2.074   6.568 -0.5405 -0.1337 -0.9927
  101MOL    H4432244   3.106   2.006   6.784  0.3558  0.4767 -0.6627
  101MOL    H4532245   3.278   1.769   7.069 -2.8390 -1.4727 -2.3458
  101MOL    H4632246   3.311   1.923   7.148  1.2017 -2.6207  0.8645
  101MOL    H4732247   3.378   1.884   6.987 -0.5153  2.5241  0.1195
  101MOL    H4832248   2.979   2.013   6.978 -1.1236 -1.0714  1.2337
  101MOL    H4932249   3.059   1.956   7.138  3.3432  0.8740  0.4089
  101MOL    C5032250   3.218   1.824   6.745 -0.2109 -0.0251 -0.4210
  101MOL    C5132251   3.253   1.835   6.595  0.4164  0.1563 -1.1685
  101MOL    C5232252   3.115   1.707   6.775 -0.7149  0.1969 -0.1051
  101MOL    C5332253   3.188   1.574   6.764  0.4644  0.3024  0.5002
  101MOL    C5432254   3.248   1.529   6.896  0.2709 -0.4637  0.8208
  101MOL    C5532255   3.187   1.502   6.650 -0.2049 -0.1354 -0.0613
  101MOL    H5632256   3.311   1.794   6.793 -1.6845  0.8473  3.1078
  101MOL    H5732257   3.217   1.749   6.538 -1.5533  0.1335  0.0594
  101MOL    H5832258   3.356   1.866   6.578  0.3776  0.9105 -0.0809
  101MOL    H5932259   3.181   1.901   6.548 -2.3232 -2.0417 -0.2189
  101MOL    H6032260   3.092   1.726   6.880 -1.7711 -3.2821  0.3349
  101MOL    H6132261   3.293   1.430   6.899 -0.3108 -0.8766 -2.2896
  101MOL    H6232262   3.181   1.551   6.978 -0.1059  4.7811 -0.6937
  101MOL    H6332263   3.330   1.599   6.913  1.4413 -1.9988  1.6546
  101MOL    H6432264   3.151   1.547   6.559 -2.8662 -1.7511  0.1523
  101MOL    H6532265   3.228   1.402   6.644  3.5095  1.1920  1.8558
  101MOL    C6632266   2.972   1.706   6.701  0.5786 -0.1361  0.3695
  101MOL    C6732267   2.901   1.840   6.688 -0.1783 -0.4183  0.4125
  101MOL    C6832268   2.875   1.587   6.745  0.1794 -0.9705  0.0042
  101MOL    C6932269   2.802   1.531   6.626  0.6880  0.1932  0.7426
  101MOL    C7032270   2.862   1.408   6.567 -0.2983  0.4593 -0.3049
  101MOL    C7132271   2.695   1.587   6.571  0.0635 -0.8761  0.4140
  101MOL    H7232272   2.987   1.677   6.597 -0.1429  1.7206 -0.2850
  101MOL    H7332273   2.946   1.893   6.604 -1.3970 -0.8872 -0.5578
  101MOL    H7432274   2.909   1.907   6.773 -2.0677  1.7625 -1.0533
  101MOL    H7532275   2.796   1.830   6.657 -0.5200  1.5711  0.8818
  101MOL    H7632276   2.943   1.512   6.782  0.0963 -0.1293  1.9003
  101MOL    H7732277   2.903   1.351   6.651  2.5757  1.7200 -0.7863
  101MOL    H7832278   2.938   1.430   6.492  1.9577 -1.3243  1.3714
  101MOL    H7932279   2.791   1.346   6.513  0.3880 -1.4200  0.8887
  101MOL    H8032280   2.641   1.664   6.625 -2.6282 -2.8109  0.6118
  101MOL    H8132281   2.652   1.551   6.478 -0.9630  0.7746  0.2162
  101MOL    C8232282   2.765   1.630   6.861 -0.0155 -0.3509 -0.0211
  101MOL    C8332283   2.829   1.695   6.987  0.0855 -1.1952 -0.5273
  101MOL    C8432284   2.665   1.513   6.901  0.2154  0.2082 -0.3806
  101MOL    C8532285   2.528   1.582   6.937 -0.3430  0.5779  0.1810
  101MOL    C8632286   2.417   1.587   6.834  0.0475  0.0217  0.7910
  101MOL    C8732287   2.508   1.644   7.055 -0.1983  0.0961 -0.4867
  101MOL    H8832288   2.701   1.714   6.834 -1.3125 -0.2830  3.0404
  101MOL    H8932289   2.877   1.791   6.963  1.6290 -1.2461  2.2100
  101MOL    H9032290   2.912   1.640   7.031 -0.2815 -2.0067 -0.8463
  101MOL    H9132291   2.764   1.718   7.070  0.6969  0.4863 -0.4913
  101MOL    H9232292   2.654   1.446   6.815  1.2557  0.8336 -1.0156
  101MOL    H9332293   2.319   1.608   6.878 -0.3528  0.0097 -0.0779
  101MOL    H9432294   2.408   1.493   6.779  0.4086  0.6982 -0.4596
  101MOL    H9532295   2.423   1.677   6.772  1.9128 -1.2936 -1.0273
  101MOL    H9632296   2.582   1.654   7.132 -1.6883 -1.6828  1.2401
  101MOL    H9732297   2.413   1.693   7.071  0.4008  1.4910 -1.1604
  101MOL    C9832298   2.713   1.416   7.019  0.3129 -0.0532  0.6244
  101MOL    C9932299   2.849   1.361   6.987  0.1776 -0.2071  0.2101
  101MOL   C10032300   2.609   1.315   7.076  0.4759 -0.8740 -0.1865
  101MOL   C10132301   2.626   1.292   7.224 -0.3369  0.3680 -0.6197
  101MOL   C10232302   2.746   1.219   7.280  1.0842  0.4463  0.4409
  101MOL   C10332303   2.548   1.356   7.310 -0.4538  0.7720 -0.4216
  101MOL   H10432304   2.744   1.475   7.105  1.8349  1.1337 -0.6963
  101MOL   H10532305   2.930   1.433   6.995 -2.8630  3.3299  0.1709
  101MOL   H10632306   2.841   1.306   6.893  1.9295  1.7557 -1.1218
  101MOL   H10732307   2.881   1.280   7.053 -2.4937 -0.4863  1.2107
  101MOL   H10832308   2.520   1.377   7.063  2.2790  1.2293 -3.1371
  101MOL   H10932309   2.788   1.145   7.212 -1.0101  0.1621 -0.5709
  101MOL   H11032310   2.724   1.163   7.370 -0.1996  1.5296  0.8178
  101MOL   H11132311   2.829   1.289   7.298  1.2898  0.9183 -2.1632
  101MOL   H11232312   2.462   1.414   7.282  0.2653  2.0759  0.0686
  101MOL   H11332313   2.567   1.341   7.415 -2.1046  2.7309  0.1835
  101MOL   C11432314   2.563   1.182   7.002 -0.1820  0.2258  0.6387
  101MOL   C11532315   2.659   1.145   6.890  0.0453 -0.1202  0.0024
  101MOL   C11632316   2.417   1.199   6.945  0.3654  0.2710  1.0879
  101MOL   C11732317   2.316   1.247   7.050  0.0561 -0.4593  0.3243
  101MOL   C11832318   2.297   1.151   7.165 -0.8383  0.5951  0.1188
  101MOL   C11932319   2.235   1.352   7.036 -0.0260 -0.2501  0.2455
  101MOL   H12032320   2.569   1.103   7.076  0.4497  0.5804  0.9669
  101MOL   H12132321   2.757   1.114   6.926 -0.1746 -0.8439 -0.0163
  101MOL   H12232322   2.658   1.233   6.826 -1.6335 -2.1554 -2.9169
  101MOL   H12332323   2.632   1.050   6.842  0.2540 -1.2652  2.0910
  101MOL   H12432324   2.410   1.283   6.876 -1.0690  1.1253  2.2468
  101MOL   H12532325   2.204   1.095   7.150  0.4779 -1.5555 -0.2286
  101MOL   H12632326   2.269   1.196   7.260 -1.7264  0.2948  0.0048
  101MOL   H12732327   2.388   1.096   7.190  0.2842  2.8468  1.1517
  101MOL   H12832328   2.233   1.419   6.950 -0.4172 -1.1437 -0.4467
  101MOL   H12932329   2.164   1.364   7.116 -0.9874 -0.8998 -0.4948
  101MOL   C13032330   2.342   1.078   6.875  0.0293  0.4088 -0.5248
  101MOL   C13132331   2.387   0.945   6.924  0.0245 -0.0248  0.6337
  101MOL   C13232332   2.344   1.077   6.717  0.7975  0.1491  0.0635
  101MOL   C13332333   2.330   1.215   6.651  0.5768  0.0418 -0.0460
  101MOL   C13432334   2.427   1.248   6.540 -0.1811  0.0701  0.8207
  101MOL   C13532335   2.238   1.308   6.690  0.4244 -0.3271  0.1522
  101MOL   H13632336   2.234   1.088   6.887 -0.2697 -0.2015 -2.5765
  101MOL   H13732337   2.475   0.908   6.871 -1.2603  1.0649 -2.3892
  101MOL   H13832338   2.313   0.865   6.926 -1.4125  1.1924 -1.2569
  101MOL   H13932339   2.415   0.940   7.029  1.9972 -2.3815  0.0503
  101MOL   H14032340   2.448   1.052   6.695  0.8302 -1.1388  1.6150
  101MOL   H14132341   2.411   1.349   6.501  0.7934 -0.2032 -0.2907
  101MOL   H14232342   2.413   1.173   6.462  1.1054 -0.5116  1.1524
  101MOL   H14332343   2.528   1.231   6.575  0.2966 -1.1888 -1.1397
  101MOL   H14432344   2.167   1.276   6.765  0.2868 -0.6703 -0.1280
  101MOL   H14532345   2.233   1.405   6.644 -1.0557  0.4217  1.8093
  101MOL   C14632346   2.261   0.970   6.643 -0.4425 -0.1664 -0.7709
  101MOL   C14732347   2.121   0.955   6.695  0.2710 -0.6716 -0.1326
  101MOL   C14832348   2.336   0.833   6.625 -0.1587  0.0108  0.1373
  101MOL   C14932349   2.466   0.855   6.549  0.3178  0.0315 -0.3442
  101MOL   C15032350   2.605   0.811   6.603 -0.5440  0.1274  0.3541
  101MOL   C15132351   2.463   0.917   6.426  0.0060  0.1788  0.1262
  101MOL   H15232352   2.248   1.008   6.542 -0.2538 -0.9824 -1.1064
  101MOL   H15332353   2.078   1.051   6.720 -1.2918 -1.7081  1.2782
  101MOL   H15432354   2.115   0.893   6.784  1.8233  0.0760  0.5192
  101MOL   H15532355   2.057   0.907   6.621  0.3434  0.8805 -1.2227
  101MOL   H15632356   2.372   0.805   6.724 -1.2485 -2.4198 -0.1149
  101MOL   H15732357   2.610   0.702   6.601 -3.3612 -0.0477 -3.9075
  101MOL   H15832358   2.618   0.855   6.702  0.3558 -0.3176  0.4345
  101MOL   H15932359   2.679   0.843   6.530 -0.8040 -0.7616 -0.3005
  101MOL   H16032360   2.374   0.956   6.378 -0.2424  0.4223  0.7657
  101MOL   H16132361   2.555   0.925   6.371  0.3831  0.0596  0.7373
  101MOL   C16232362   2.262   0.701   6.581  0.1110  0.6168  0.1062
  101MOL   C16332363   2.186   0.734   6.456  1.1525 -0.5147 -0.3321
  101MOL   C16432364   2.197   0.614   6.691  0.6460  0.3029  0.9381
  101MOL   C16532365   2.296   0.573   6.806  0.0610 -0.2605 -0.2496
  101MOL   C16632366   2.231   0.557   6.937 -0.2735 -0.1749 -0.1624
  101MOL   C16732367   2.425   0.535   6.789 -0.1883 -0.0315  0.3643
  101MOL   H16832368   2.347   0.640   6.550 -2.0979 -2.3118 -0.3423
  101MOL   H16932369   2.252   0.778   6.382  2.0498 -0.1406  0.6667
  101MOL   H17032370   2.094   0.794   6.457  1.7513  0.4054  0.9189
  101MOL   H17132371   2.151   0.638   6.419  0.0861 -0.2268 -0.1080
  101MOL   H17232372   2.131   0.686   6.738  0.9110  1.8637 -1.0110
  101MOL   H17332373   2.170   0.643   6.967  0.8971  0.2408  1.0962
  101MOL   H17432374   2.312   0.542   7.008 -1.5212  0.3557  1.4264
  101MOL   H17532375   2.166   0.469   6.940  0.0418 -0.3706  1.0361
  101MOL   H17632376   2.471   0.535   6.691  1.3488 -0.7713  1.0641
  101MOL   H17732377   2.493   0.507   6.868  0.2544  2.1722  0.7978
  101MOL   C17832378   2.115   0.485   6.649  0.5705  0.8268 -0.2383
  101MOL   C17932379   2.198   0.396   6.559 -0.5020  0.6267 -0.5014
  101MOL   C18032380   1.974   0.498   6.589  0.0045 -0.2733 -0.4177
  101MOL   C18132381   1.891   0.605   6.663 -0.6875 -0.0476 -0.1445
  101MOL   C18232382   1.785   0.686   6.581  0.8696 -0.5858  0.0529
  101MOL   C18332383   1.898   0.617   6.791  0.1739  0.7193  0.3368
  101MOL   H18432384   2.100   0.426   6.740 -0.8629  1.6765  0.1052
  101MOL   H18532385   2.222   0.440   6.462 -0.8422  0.0012 -0.8698
  101MOL   H18632386   2.154   0.298   6.545 -0.8055  0.6294  0.4038
  101MOL   H18732387   2.297   0.378   6.601 -2.4245 -0.2272  3.9523
  101MOL   H18832388   1.985   0.551   6.494  0.7747 -0.6152 -0.5252
  101MOL   H18932389   1.839   0.736   6.501  1.1830 -0.0666  0.5851
  101MOL   H19032390   1.744   0.767   6.641  0.5973 -0.8923  0.2847
  101MOL   H19132391   1.705   0.620   6.546  0.7521 -0.3353 -0.1538
  101MOL   H19232392   1.961   0.560   6.858  2.3610  0.1859 -2.1241
  101MOL   H19332393   1.836   0.695   6.832  0.4608  1.5578 -0.8115
  101MOL   C19432394   1.888   0.367   6.576  0.4213  0.0716  0.2239
  101MOL   C19532395   1.882   0.287   6.708 -0.2177 -0.6104  0.6209
  101MOL   C19632396   1.890   0.284   6.442  0.2932  0.4058  0.2801
  101MOL   C19732397   1.910   0.372   6.321  0.3454 -0.2871  0.8854
  101MOL   C19832398   1.806   0.479   6.294 -0.0756 -0.2528  0.5848
  101MOL   C19932399   2.010   0.361   6.239 -0.3495 -0.1168 -0.0719
  101MOL   H20032400   1.787   0.408   6.574 -0.4730 -2.0281  1.1060
  101MOL   H20132401   1.797   0.219   6.714 -0.2231 -0.7456 -1.0230
  101MOL   H20232402   1.868   0.360   6.789 -1.2589 -1.4203  1.1930
  101MOL   H20332403   1.978   0.237   6.716  0.3722  0.8327  3.5464
  101MOL   H20432404   1.989   0.238   6.442  0.0695 -0.1016  1.2619
  101MOL   H20532405   1.837   0.578   6.328 -4.0732  0.7691  1.4510
  101MOL   H20632406   1.709   0.464   6.340 -0.6481 -1.6187 -1.0408
  101MOL   H20732407   1.782   0.491   6.188 -0.5826 -1.5707  0.5499
  101MOL   H20832408   2.086   0.285   6.248 -0.1906  0.3423  2.7831
  101MOL   H20932409   2.027   0.419   6.149  0.2740  0.4030  0.3896
  101MOL   C21032410   1.777   0.174   6.441 -0.1349 -0.3651 -0.0488
  101MOL   C21132411   1.825   0.035   6.502 -0.0133  0.3570 -1.2986
  101MOL   C21232412   1.678   0.162   6.319 -0.4275 -0.1582  0.7844
  101MOL   C21332413   1.527   0.153   6.363  0.7433  0.2077  0.4037
  101MOL   C21432414   1.487   0.013   6.414  0.7333  0.4195 -0.0506
  101MOL   C21532415   1.440   0.253   6.350 -0.2512  0.6012 -0.0485
  101MOL   H21632416   1.707   0.212   6.516 -0.1310 -3.5749  1.6536
  101MOL   H21732417   1.848   0.032   6.608  2.7169  1.6273 -1.8021
  101MOL   H21832418   1.906   7.889   6.439 -0.3894  1.1652 -2.2760
  101MOL   H21932419   1.748   7.853   6.483 -0.8959  1.0565 -0.4883
  101MOL   H22032420   1.694   0.253   6.261 -1.8714 -0.6760 -0.4558
  101MOL   H22132421   1.525   7.873   6.510  2.3620 -0.3153 -0.9375
  101MOL   H22232422   1.507   7.825   6.343  1.0052  0.9994 -0.6378
  101MOL   H22332423   1.380   0.003   6.435  0.9222 -0.1148  0.6721
  101MOL   H22432424   1.479   0.346   6.313 -1.5275  1.4884  0.7903
  101MOL   H22532425   1.334   0.244   6.370 -0.5113  1.8800 -0.8162
  101MOL   C22632426   1.715   0.059   6.209 -0.4352 -0.0049 -0.3223
  101MOL   C22732427   1.863   0.086   6.168  0.2518 -0.0799 -0.0626
  101MOL   C22832428   1.619   0.040   6.090  0.5779 -0.3672  0.0323
  101MOL   C22932429   1.610   7.785   6.037  0.0830  0.3235  0.0627
  101MOL   C23032430   1.728   7.732   5.962 -0.0810  0.1051 -0.0541
  101MOL   C23132431   1.501   7.709   6.064 -0.7807  0.5883 -0.4337
  101MOL   H23232432   1.711   7.863   6.272  1.1347  1.0306  1.2806
  101MOL   H23332433   1.916   7.889   6.137 -0.7217 -0.6827 -0.0014
  101MOL   H23432434   1.924   0.124   6.249 -0.6892  2.5623 -0.5181
  101MOL   H23532435   1.875   0.152   6.082 -3.5999 -0.0382 -0.6666
  101MOL   H23632436   1.518   0.063   6.125  0.2680 -0.9356 -0.4579
  101MOL   H23732437   1.725   7.623   5.964 -0.3196  0.1461  2.5352
  101MOL   H23832438   1.820   7.737   6.020  0.6742 -1.1733 -1.1054
  101MOL   H23932439   1.739   7.764   5.858  0.9101  0.0713  0.0346
  101MOL   H24032440   1.414   7.743   6.119  0.2436  1.3672  0.7250
  101MOL   H24132441   1.498   7.607   6.028  0.5125  0.0103  1.0274
  101MOL   C24232442   1.634   0.143   5.963 -0.1822 -1.1913  0.4068
  101MOL   C24332443   1.632   0.290   6.006  0.2063 -0.0318 -0.7601
  101MOL   C24432444   1.533   0.119   5.840 -0.2525 -1.3182  0.1200
  101MOL   C24532445   1.620   0.139   5.711  0.1187  0.5561  0.5780
  101MOL   C24632446   1.666   0.279   5.676 -0.3667  0.3084  0.0439
  101MOL   C24732447   1.654   0.039   5.627  0.1606  0.0727  0.0840
  101MOL   H24832448   1.733   0.124   5.921 -0.3966 -2.4715  0.4564
  101MOL   H24932449   1.725   0.321   6.053 -0.5049  0.5173  0.2945
  101MOL   H25032450   1.553   0.307   6.078  0.7156 -2.2450  0.3396
  101MOL   H25132451   1.620   0.360   5.923 -2.3331  3.2600  2.2234
  101MOL   H25232452   1.506   0.013   5.837  1.7726 -1.8131 -3.4759
  101MOL   H25332453   1.589   0.356   5.677  0.5799  1.2948 -1.6163
  101MOL   H25432454   1.700   0.274   5.573  0.7345 -1.2889  0.4550
  101MOL   H25532455   1.756   0.310   5.730 -0.8414 -0.4602  1.2923
  101MOL   H25632456   1.615   7.832   5.640  2.2376 -0.8924 -0.7877
  101MOL   H25732457   1.723   0.057   5.546 -0.8763  0.5863 -0.7038
  101MOL   C25832458   1.391   0.191   5.853 -0.3973  0.1905 -0.1885
  101MOL   C25932459   1.299   0.128   5.961  0.3683 -0.6665  0.4546
  101MOL   C26032460   1.319   0.217   5.719 -0.6942 -0.3816  0.1776
  101MOL   C26132461   1.265   0.362   5.702  0.1298  0.0028  0.4213
  101MOL   C26232462   1.134   0.389   5.775  0.4293 -0.1307 -0.4341
  101MOL   C26332463   1.329   0.459   5.640 -0.1727  0.2636 -0.2493
  101MOL   H26432464   1.413   0.294   5.882 -0.7000 -0.4406  2.3846
  101MOL   H26532465   1.322   0.181   6.053 -0.3840 -0.8863  0.7742
  101MOL   H26632466   1.308   0.020   5.978 -0.4023 -0.5901  1.3805
  101MOL   H26732467   1.192   0.143   5.943  0.5466 -1.3071 -1.3244
  101MOL   H26832468   1.396   0.216   5.642 -0.2229 -0.8545  0.6556
  101MOL   H26932469   1.053   0.331   5.731  1.6578 -0.9797 -1.6149
  101MOL   H27032470   1.099   0.492   5.770 -1.0191 -0.6405 -0.9062
  101MOL   H27132471   1.141   0.356   5.879  0.9919 -2.1759 -1.0870
  101MOL   H27232472   1.426   0.437   5.596 -0.0596  1.4203 -0.5879
  101MOL   H27332473   1.292   0.559   5.628  0.7190  0.5030 -1.0989
  101MOL   C27432474   1.220   0.108   5.660 -0.9015 -0.0501 -0.6891
  101MOL   C27532475   1.289   7.860   5.662  0.0484 -0.1081  0.0797
  101MOL   C27632476   1.138   0.139   5.523  0.1717 -0.5300  0.6075
  101MOL   C27732477   1.001   0.075   5.539  0.0047 -0.2452  0.1934
  101MOL   C27832478   0.897   0.159   5.615  0.6947 -0.2867  0.1771
  101MOL   C27932479   0.969   7.843   5.501 -0.9415 -0.2519 -0.0673
  101MOL   H28032480   1.143   0.092   5.736  0.9706 -2.3223  0.8245
  101MOL   H28132481   1.218   7.778   5.648 -0.6818  1.0641 -3.5771
  101MOL   H28232482   1.326   7.835   5.762  2.3298 -1.7945 -1.1400
  101MOL   H28332483   1.373   7.843   5.594  0.3416 -2.0091  0.8703
  101MOL   H28432484   1.117   0.245   5.531 -2.2481 -0.9453  0.2391
  101MOL   H28532485   0.911   0.159   5.723  0.0684  1.1416  0.2681
  101MOL   H28632486   0.806   0.100   5.613  0.5848 -0.2066  1.9941
  101MOL   H28732487   0.878   0.257   5.571  3.4514 -1.1742 -3.2344
  101MOL   H28832488   1.042   7.787   5.445  0.6998 -0.1466  1.9059
  101MOL   H28932489   0.871   7.798   5.510 -1.8957  1.5152 -1.4324
  101MOL   C29032490   1.198   0.116   5.378 -0.7079  1.1143  0.6326
  101MOL   C29132491   1.333   0.175   5.346  0.5395 -0.1541  0.2163
  101MOL   C29232492   1.099   0.141   5.263 -0.1168  0.3034  0.4982
  101MOL   C29332493   1.135   0.081   5.125  0.3183  0.5691  0.2587
  101MOL   C29432494   1.093   7.825   5.112 -0.0243 -0.0135  0.0830
  101MOL   C29532495   1.199   0.146   5.026  0.4088 -0.2115 -0.0997
  101MOL   H29632496   1.210   0.007   5.374 -1.0348  1.1138 -0.4740
  101MOL   H29732497   1.408   0.104   5.381 -0.0054 -1.1719 -0.6424
  101MOL   H29832498   1.353   0.270   5.397  1.1990 -0.7588  1.0859
  101MOL   H29932499   1.359   0.189   5.241 -1.6835  0.9728 -0.2191
  101MOL   H30032500   1.017   0.071   5.282  0.4910 -0.3161  0.8799
  101MOL   H30132501   1.161   7.754   5.160  0.3607 -0.5177 -1.1912
  101MOL   H30232502   1.104   7.790   5.009  0.6435 -2.8322  1.0690
  101MOL   H30332503   0.987   7.827   5.138 -0.1474  1.3307 -0.5286
  101MOL   H30432504   1.237   0.247   5.033 -0.7036  0.1465  0.8216
  101MOL   H30532505   1.210   0.094   4.932 -1.1804  1.2135 -1.1136
  101MOL   C30632506   1.028   0.278   5.262 -0.0183 -0.2916 -0.6939
  101MOL   C30732507   0.915   0.303   5.161 -0.0962 -0.1651  0.5522
  101MOL   C30832508   1.116   0.402   5.274  0.2555 -0.5875 -0.5947
  101MOL   C30932509   1.036   0.534   5.289  0.1953  0.2318 -0.4655
  101MOL   C31032510   0.996   0.567   5.437 -0.0469 -0.4754 -0.6638
  101MOL   C31132511   1.001   0.622   5.192  0.7285 -0.1216 -0.1326
  101MOL   H31232512   0.975   0.290   5.357  0.7084  1.3842 -0.4835
  101MOL   H31332513   0.855   0.212   5.168 -0.1193 -0.2449 -0.6910
  101MOL   H31432514   0.956   0.316   5.061  1.3762  0.6161  1.2397
  101MOL   H31532515   0.838   0.372   5.196 -0.2381 -1.4637  2.9066
  101MOL   H31632516   1.177   0.400   5.365  1.8865 -0.4998 -1.6681
  101MOL   H31732517   0.914   0.507   5.477  0.9266 -1.1211  0.4101
  101MOL   H31832518   0.951   0.666   5.430 -2.4771 -1.5654 -0.9485
  101MOL   H31932519   1.071   0.550   5.514 -1.1082 -0.9603  0.2788
  101MOL   H32032520   1.025   0.600   5.089 -1.2609  1.2031 -0.9084
  101MOL   H32132521   0.945   0.713   5.206 -0.2273 -0.5756 -0.9520
  101MOL   H32232522   1.189   0.408   5.193  1.1699 -2.5042  0.0660
  102MOL     C132523   5.379   3.261   4.413  0.2184 -0.8626  0.1971
  102MOL     C232524   5.415   3.408   4.381 -0.1977  0.4412  0.0213
  102MOL     C332525   5.494   3.178   4.479 -0.0392  0.1986 -0.7430
  102MOL     C432526   5.630   3.166   4.398  0.6253 -0.0590 -0.4442
  102MOL     C532527   5.761   3.185   4.479  0.4871  0.1704  0.5564
  102MOL     C632528   5.638   3.142   4.268 -0.0572  0.1162  0.2097
  102MOL     H732529   5.278   3.260   4.454  0.4543 -0.7496  0.7869
  102MOL     H832530   5.501   3.417   4.315  0.0990 -1.3575  0.1359
  102MOL     H932531   5.436   3.466   4.471  1.1456 -1.6633  1.0839
  102MOL    H1032532   5.339   3.462   4.324 -0.4545 -1.4906 -1.5097
  102MOL    H1132533   5.531   3.234   4.564 -1.6849 -0.8305  0.6760
  102MOL    H1232534   5.763   3.120   4.566 -0.1961  0.5940  0.8923
  102MOL    H1332535   5.770   3.287   4.517 -2.3442 -0.2867  2.6290
  102MOL    H1432536   5.854   3.174   4.422  2.4353  2.1987  3.1770
  102MOL    H1532537   5.548   3.119   4.212  0.6161 -2.7749  0.2651
  102MOL    H1632538   5.734   3.144   4.218  0.5781  0.4075  1.4196
  102MOL    H1732539   5.356   3.211   4.319 -0.5177  0.1718 -0.1745
  102MOL    C1832540   5.445   3.038   4.535  0.6290  0.1846  0.3585
  102MOL    C1932541   5.363   2.974   4.420  0.0692 -0.0012 -0.2902
  102MOL    C2032542   5.374   3.056   4.671 -0.5941 -0.0760 -0.1585
  102MOL    C2132543   5.473   3.094   4.784  0.0366  0.4824  0.3490
  102MOL    C2232544   5.433   3.222   4.860 -1.0355 -0.3679 -0.5689
  102MOL    C2332545   5.592   3.027   4.803  0.3484  0.0545  0.5380
  102MOL    H2432546   5.533   2.972   4.541  0.9991  0.5342 -0.8907
  102MOL    H2532547   5.414   2.980   4.324 -0.3917 -1.0311 -0.6181
  102MOL    H2632548   5.268   3.026   4.409  1.2587  3.0100  2.8067
  102MOL    H2732549   5.348   2.866   4.432  1.5397 -0.1861 -0.0683
  102MOL    H2832550   5.321   3.149   4.649 -0.8151 -0.3319 -0.7202
  102MOL    H2932551   5.401   3.307   4.799  0.6275 -0.4360 -1.5631
  102MOL    H3032552   5.511   3.260   4.925 -1.6903  1.2682 -0.7174
  102MOL    H3132553   5.343   3.208   4.919  0.3577 -0.0271  1.7108
  102MOL    H3232554   5.628   2.948   4.739  2.8861 -0.2496  2.2411
  102MOL    H3332555   5.660   3.052   4.884 -0.7097 -0.0036  1.4620
  102MOL    C3432556   5.281   2.945   4.728  0.6050 -0.5362  0.2853
  102MOL    C3532557   5.335   2.804   4.727  0.7912 -0.2257 -0.1237
  102MOL    C3632558   5.135   2.948   4.672 -0.2151  1.0517  0.6890
  102MOL    C3732559   5.071   3.082   4.664  0.8785  0.0458 -0.3683
  102MOL    C3832560   5.056   3.173   4.789 -0.1540 -0.4475  0.2995
  102MOL    C3932561   5.001   3.116   4.550  0.2915  0.2590 -0.8575
  102MOL    H4032562   5.266   2.974   4.832  0.9366 -1.1835  0.5155
  102MOL    H4132563   5.268   2.755   4.799 -1.4192  2.2424 -0.4179
  102MOL    H4232564   5.436   2.791   4.765  0.9560 -2.2080 -1.1802
  102MOL    H4332565   5.331   2.761   4.627  1.5473  0.6232 -0.5214
  102MOL    H4432566   5.145   2.928   4.565  0.8410  0.3666  0.9119
  102MOL    H4532567   4.986   3.251   4.760 -1.1436 -0.3188  2.8835
  102MOL    H4632568   5.144   3.221   4.830 -0.6012 -0.3066  1.1021
  102MOL    H4732569   5.001   3.120   4.866 -0.7373 -0.4200 -0.0938
  102MOL    H4832570   4.996   3.047   4.467  2.6388  0.3037 -1.0750
  102MOL    H4932571   4.944   3.208   4.548 -0.4551 -0.1140  1.8215
  102MOL    C5032572   5.028   2.841   4.728 -0.3772  0.4933 -0.1435
  102MOL    C5132573   5.026   2.820   4.887  0.2647 -0.0571  0.3565
  102MOL    C5232574   5.027   2.702   4.651  0.6676 -0.8968  0.2578
  102MOL    C5332575   5.013   2.715   4.499  0.5027 -0.3932  0.6545
  102MOL    C5432576   4.895   2.785   4.440 -0.5997  0.3888 -0.2740
  102MOL    C5532577   5.105   2.661   4.416  0.1826 -0.0646 -0.3258
  102MOL    H5632578   4.932   2.886   4.703 -0.1863  2.1034  1.8093
  102MOL    H5732579   4.937   2.763   4.910 -0.0462  0.4300  0.3696
  102MOL    H5832580   5.021   2.914   4.943 -0.2278 -0.2674  0.6609
  102MOL    H5932581   5.117   2.774   4.926 -0.8524 -1.1102  1.7462
  102MOL    H6032582   5.122   2.653   4.674 -0.2000 -2.8367 -0.1971
  102MOL    H6132583   4.904   2.832   4.342  0.0884  0.8575  0.0133
  102MOL    H6232584   4.869   2.865   4.509  1.2749 -1.9253  3.2693
  102MOL    H6332585   4.815   2.712   4.424 -0.6019  0.1884  0.6244
  102MOL    H6432586   5.185   2.596   4.450 -1.3141 -1.3145  0.8387
  102MOL    H6532587   5.111   2.677   4.309 -1.0701  0.1094 -0.3724
  102MOL    C6632588   4.923   2.591   4.694 -0.0457  0.5171 -0.4222
  102MOL    C6732589   4.779   2.642   4.723 -0.1843 -0.1620  0.2638
  102MOL    C6832590   4.971   2.491   4.814  0.1372 -0.2354 -0.2518
  102MOL    C6932591   5.118   2.440   4.801 -0.1108  0.0046 -0.3033
  102MOL    C7032592   5.208   2.446   4.924 -0.7344 -0.3807  0.5316
  102MOL    C7132593   5.156   2.396   4.678 -0.2971 -0.2630 -0.1138
  102MOL    H7232594   4.920   2.525   4.608  2.4074  1.9283 -1.6663
  102MOL    H7332595   4.756   2.736   4.674  1.2879  0.6035  1.0023
  102MOL    H7432596   4.752   2.662   4.826  1.7166 -1.6628  1.0962
  102MOL    H7532597   4.708   2.568   4.685 -0.2802  0.7006 -1.2994
  102MOL    H7632598   4.964   2.546   4.908 -1.4956  1.0737 -1.1121
  102MOL    H7732599   5.158   2.403   5.010 -0.3833 -0.5831  0.6386
  102MOL    H7832600   5.243   2.549   4.931 -0.6834 -0.3352 -0.3495
  102MOL    H7932601   5.298   2.389   4.899 -0.8164 -0.5834  0.6985
  102MOL    H8032602   5.099   2.393   4.587  1.3288  0.7726 -1.1890
  102MOL    H8132603   5.257   2.359   4.667 -0.4878 -0.8081 -0.0735
  102MOL    C8232604   4.879   2.365   4.848  0.1213  1.6282 -0.0762
  102MOL    C8332605   4.847   2.293   4.713 -0.2044 -0.2316 -0.1196
  102MOL    C8432606   4.751   2.360   4.948 -0.2887  0.1092 -0.1819
  102MOL    C8532607   4.772   2.447   5.077  0.5465 -0.1141  0.3995
  102MOL    C8632608   4.863   2.396   5.187  0.1298  0.0831  0.6203
  102MOL    C8732609   4.701   2.559   5.100 -0.5734 -0.4507  0.1840
  102MOL    H8832610   4.950   2.290   4.882  0.2320  2.3240  1.2642
  102MOL    H8932611   4.931   2.267   4.649  0.5644 -0.6116  1.0180
  102MOL    H9032612   4.778   2.347   4.649  0.7598  0.5837 -0.4832
  102MOL    H9132613   4.810   2.191   4.727  0.5084 -0.3373  1.1028
  102MOL    H9232614   4.676   2.416   4.893  1.0084  2.3546  0.2735
  102MOL    H9332615   4.825   2.314   5.248 -0.6495 -0.5799 -0.7165
  102MOL    H9432616   4.892   2.473   5.259  0.8110  0.5949 -0.1895
  102MOL    H9532617   4.956   2.356   5.147 -0.8259  2.1107 -4.0482
  102MOL    H9632618   4.636   2.605   5.027 -0.2135  0.7201  0.5776
  102MOL    H9732619   4.711   2.615   5.192  1.5663 -0.3311 -0.0826
  102MOL    C9832620   4.686   2.218   4.977  0.2279  0.3148  0.2668
  102MOL    C9932621   4.781   2.100   5.009  0.3884  0.8354  0.3317
  102MOL   C10032622   4.552   2.186   4.888  0.6066  0.1935  0.1040
  102MOL   C10132623   4.455   2.308   4.900 -0.4611 -0.4241  0.3224
  102MOL   C10232624   4.374   2.339   4.768 -0.3144 -0.4745 -0.8088
  102MOL   C10332625   4.424   2.369   5.018 -0.5846 -0.1526  0.2640
  102MOL   H10432626   4.649   2.233   5.079 -0.8799  0.8464 -0.2088
  102MOL   H10532627   4.830   2.056   4.922 -0.8595 -1.1844  0.6111
  102MOL   H10632628   4.744   2.018   5.070  0.8225 -0.5608 -1.2279
  102MOL   H10732629   4.867   2.123   5.072  0.6921  0.7331 -0.0392
  102MOL   H10832630   4.584   2.194   4.784  1.5998  2.0496  0.5251
  102MOL   H10932631   4.268   2.315   4.768 -0.2732 -0.6591 -0.3696
  102MOL   H11032632   4.423   2.301   4.678 -0.0541  2.3698 -1.9233
  102MOL   H11132633   4.386   2.444   4.742 -0.9075 -0.0753  0.5096
  102MOL   H11232634   4.474   2.348   5.111 -1.2966  1.5082  1.0326
  102MOL   H11332635   4.345   2.442   5.008 -0.5095 -0.3040 -1.7543
  102MOL   C11432636   4.474   2.050   4.911 -0.6920  0.6586 -0.2721
  102MOL   C11532637   4.408   2.040   5.051  0.3134 -0.6540  0.9388
  102MOL   C11632638   4.539   1.920   4.858 -0.2954  0.2094 -0.4374
  102MOL   C11732639   4.576   1.939   4.708 -0.5977 -0.0421 -0.0193
  102MOL   C11832640   4.466   1.976   4.612  0.0910 -0.5938  0.5171
  102MOL   C11932641   4.703   1.913   4.670  0.0874  0.0957 -0.4873
  102MOL   H12032642   4.377   2.060   4.861 -1.3713 -0.2860  0.8324
  102MOL   H12132643   4.342   1.953   5.046 -1.1654  0.5162 -0.3787
  102MOL   H12232644   4.343   2.123   5.079  1.0280  0.1910  0.1285
  102MOL   H12332645   4.483   2.017   5.127 -0.0977 -2.8233  0.7351
  102MOL   H12432646   4.637   1.911   4.906 -0.2134  1.9384 -0.2521
  102MOL   H12532647   4.510   2.040   4.535 -0.6331 -0.5505  0.1352
  102MOL   H12632648   4.384   2.037   4.648  1.5257  3.7021 -3.0401
  102MOL   H12732649   4.421   1.888   4.566 -0.7796  0.1617 -0.1089
  102MOL   H12832650   4.784   1.885   4.735  0.3959  1.9286 -0.0756
  102MOL   H12932651   4.738   1.924   4.569  0.9178  0.5503 -0.1487
  102MOL   C13032652   4.465   1.787   4.884 -0.3642  0.2565 -0.7710
  102MOL   C13132653   4.314   1.793   4.842 -0.2480  0.1692  0.1507
  102MOL   C13232654   4.493   1.717   5.020  0.7085  0.8692  0.2272
  102MOL   C13332655   4.636   1.727   5.068  0.0350  0.2841 -0.5985
  102MOL   C13432656   4.747   1.668   4.981 -0.1188  0.0130 -0.3870
  102MOL   C13532657   4.662   1.793   5.186  0.2291  0.3421 -0.2158
  102MOL   H13632658   4.504   1.723   4.805  2.7608  1.3926 -0.2224
  102MOL   H13732659   4.241   1.818   4.920 -1.4853 -0.9709 -0.6185
  102MOL   H13832660   4.282   1.697   4.803  0.8653  0.5252 -1.6679
  102MOL   H13932661   4.300   1.868   4.765  1.4436  0.9906  0.6137
  102MOL   H14032662   4.433   1.779   5.087  0.3495  2.7597 -1.7727
  102MOL   H14132663   4.745   1.690   4.874 -0.9783  1.9054 -0.0034
  102MOL   H14232664   4.748   1.560   4.974 -2.3932 -0.2363  2.2518
  102MOL   H14332665   4.850   1.687   5.012  0.1285 -0.9692 -0.6021
  102MOL   H14432666   4.587   1.841   5.247  1.1447  1.4715  0.0355
  102MOL   H14532667   4.759   1.793   5.234 -0.5969  1.9322  1.5227
  102MOL   C14632668   4.437   1.576   5.039  0.0168  0.6465  0.3837
  102MOL   C14732669   4.442   1.487   4.912  0.3663 -0.3686  0.4170
  102MOL   C14832670   4.295   1.567   5.114  0.0921 -0.2879 -0.0998
  102MOL   C14932671   4.285   1.654   5.240  0.5224 -0.3565 -0.0360
  102MOL   C15032672   4.151   1.721   5.264  0.2564 -0.1058  0.4896
  102MOL   C15132673   4.386   1.680   5.320  0.9117 -0.2274  0.3472
  102MOL   H15232674   4.510   1.531   5.107  0.2181  1.1065  0.4719
  102MOL   H15332675   4.441   1.384   4.948  3.8177  0.7580  4.0917
  102MOL   H15432676   4.532   1.504   4.851  0.4699  1.1503  0.9760
  102MOL   H15532677   4.361   1.495   4.840 -2.9569 -0.1008  4.0641
  102MOL   H15632678   4.232   1.600   5.032  2.3327  1.6760 -1.1148
  102MOL   H15732679   4.082   1.678   5.337  1.2658  0.3341  1.7070
  102MOL   H15832680   4.103   1.724   5.166 -1.2268  1.5033  1.2331
  102MOL   H15932681   4.167   1.821   5.302 -1.4335 -0.1506  1.3886
  102MOL   H16032682   4.482   1.631   5.305  0.8263  0.1800 -1.7360
  102MOL   H16132683   4.386   1.742   5.408 -0.8068 -4.2142  3.3141
  102MOL   C16232684   4.245   1.419   5.152  0.5063 -0.6517 -0.1870
  102MOL   C16332685   4.350   1.339   5.223 -0.0037  0.5461  0.1681
  102MOL   C16432686   4.151   1.354   5.043  0.2811 -0.1028 -0.0570
  102MOL   C16532687   4.027   1.439   5.014 -0.0037  0.2392 -0.3521
  102MOL   C16632688   3.920   1.462   5.121 -0.2008 -0.5718  0.3880
  102MOL   C16732689   4.003   1.484   4.890 -0.1029 -0.0978 -0.0537
  102MOL   H16832690   4.175   1.433   5.234  1.4657 -0.9923  0.7148
  102MOL   H16932691   4.431   1.310   5.157 -1.2394  0.9869 -1.5947
  102MOL   H17032692   4.321   1.250   5.279 -1.9372  1.4875  0.7292
  102MOL   H17132693   4.398   1.397   5.301  0.9419  0.4910 -0.3686
  102MOL   H17232694   4.211   1.364   4.952 -0.3247 -1.6175 -0.6296
  102MOL   H17332695   3.954   1.480   5.222 -2.0915  1.6818  0.6810
  102MOL   H17432696   3.847   1.381   5.126  0.3833 -1.0776  0.7848
  102MOL   H17532697   3.853   1.547   5.108  0.6891 -0.1272 -1.4375
  102MOL   H17632698   4.074   1.472   4.809 -1.2515  1.0346 -1.2653
  102MOL   H17732699   3.912   1.539   4.869 -2.5017 -2.8310  2.7792
  102MOL   C17832700   4.101   1.204   5.051 -0.0649 -0.2257 -1.0906
  102MOL   C17932701   4.057   1.160   5.194  0.0131 -0.5070  0.0747
  102MOL   C18032702   4.200   1.100   4.986 -0.3281 -0.4673 -0.1176
  102MOL   C18132703   4.232   1.135   4.839  0.3148  0.1932 -0.1137
  102MOL   C18232704   4.370   1.100   4.803 -0.7817 -0.5277 -0.2613
  102MOL   C18332705   4.144   1.185   4.744  0.3515 -0.0370  0.1400
  102MOL   H18432706   4.010   1.206   4.992  0.3066  2.8378 -1.6385
  102MOL   H18532707   3.990   1.075   5.188 -0.9319  0.4161 -3.1663
  102MOL   H18632708   4.015   1.238   5.258  3.0149  1.9996 -0.8893
  102MOL   H18732709   4.142   1.128   5.255 -0.5796 -1.0071  0.6507
  102MOL   H18832710   4.297   1.111   5.036 -0.1038  0.1691 -0.6843
  102MOL   H18932711   4.427   1.154   4.879 -0.2689 -0.8043 -0.4471
  102MOL   H19032712   4.403   1.153   4.714  0.2730 -0.1652  0.3285
  102MOL   H19132713   4.398   0.994   4.802  0.1765 -0.3001  0.8771
  102MOL   H19232714   4.039   1.207   4.749 -0.5924 -3.9377 -0.5022
  102MOL   H19332715   4.183   1.199   4.644 -0.6262  0.3029 -0.1917
  102MOL   C19432716   4.156   0.950   4.992 -0.3023 -0.1046 -0.0320
  102MOL   C19532717   4.005   0.942   4.941  0.3553  0.2628  0.0282
  102MOL   C19632718   4.192   0.875   5.126 -0.0350  0.2923  0.3571
  102MOL   C19732719   4.340   0.886   5.174 -0.1327  0.0925 -0.2598
  102MOL   C19832720   4.366   0.923   5.327  0.1790  0.1720 -0.4177
  102MOL   C19932721   4.442   0.878   5.088  0.4972  0.1600 -0.4213
  102MOL   H20032722   4.208   0.899   4.911 -0.5341  1.9263 -1.5023
  102MOL   H20132723   3.978   0.998   4.852 -1.6956 -0.0576  0.4154
  102MOL   H20232724   3.930   0.959   5.019  0.1299 -0.0113 -0.1265
  102MOL   H20332725   4.000   0.837   4.911 -1.8597  0.4311 -0.2616
  102MOL   H20432726   4.142   0.925   5.209 -1.2022 -1.2956  0.6296
  102MOL   H20532727   4.306   1.009   5.355 -1.2028 -0.4029 -1.5637
  102MOL   H20632728   4.473   0.945   5.326 -0.0897  1.5818  0.4755
  102MOL   H20732729   4.338   0.832   5.379 -2.2063  1.3757  0.4426
  102MOL   H20832730   4.421   0.861   4.984 -2.1941 -1.3513  0.3311
  102MOL   H20932731   4.546   0.900   5.110  0.6581  0.0042 -1.0133
  102MOL   C21032732   4.156   0.720   5.129 -0.3736 -0.3364  0.2738
  102MOL   C21132733   4.196   0.646   4.999 -0.5966  0.1964 -0.0513
  102MOL   C21232734   4.013   0.683   5.176  0.0343  0.1421 -0.8600
  102MOL   C21332735   3.980   0.750   5.312 -0.4849 -0.3626 -0.3587
  102MOL   C21432736   4.051   0.701   5.433 -0.1078 -0.1860  0.0628
  102MOL   C21532737   3.900   0.854   5.329 -0.2091 -0.0042 -0.6795
  102MOL   H21632738   4.220   0.693   5.214  0.0823 -0.0534  0.0216
  102MOL   H21732739   4.148   0.683   4.908  3.3981  1.5774 -1.6958
  102MOL   H21832740   4.176   0.539   5.010  2.1197 -0.4746 -1.1115
  102MOL   H21932741   4.303   0.644   4.977 -0.7476 -0.0787 -0.7897
  102MOL   H22032742   3.953   0.733   5.101 -0.1876  1.7905  0.3909
  102MOL   H22132743   4.012   0.606   5.469 -0.9386 -0.1103 -0.6274
  102MOL   H22232744   4.047   0.769   5.518  0.7706  0.1129 -0.1322
  102MOL   H22332745   4.159   0.689   5.425 -0.1730  0.0426 -1.3100
  102MOL   H22432746   3.850   0.888   5.239  0.1527  1.0531 -0.4901
  102MOL   H22532747   3.886   0.903   5.424  2.5998  0.4026 -0.4478
  102MOL   C22632748   3.966   0.533   5.184  0.2744  0.4042 -0.7417
  102MOL   C22732749   4.073   0.435   5.242 -0.2396 -0.3525 -0.0416
  102MOL   C22832750   3.888   0.485   5.057 -0.3395  0.0835  0.2841
  102MOL   C22932751   3.779   0.586   5.030  0.0518  0.1176  0.0468
  102MOL   C23032752   3.676   0.630   5.138 -0.3838  0.6501  0.0393
  102MOL   C23132753   3.759   0.627   4.904  0.5167 -0.4377  0.1925
  102MOL   H23232754   3.893   0.524   5.265  2.4234 -4.2157  0.8772
  102MOL   H23332755   4.127   0.377   5.168 -0.8610 -0.7483 -0.1852
  102MOL   H23432756   4.028   0.377   5.323  0.4849 -0.5781  0.1983
  102MOL   H23532757   4.151   0.491   5.294 -0.0360  0.5137 -1.2490
  102MOL   H23632758   3.965   0.494   4.980 -0.2851 -2.9579 -0.0766
  102MOL   H23732759   3.610   0.546   5.161 -0.6637  0.8539 -0.0105
  102MOL   H23832760   3.598   0.694   5.095 -3.1232 -1.1253  2.1882
  102MOL   H23932761   3.718   0.669   5.230 -1.0765 -0.8147  0.9901
  102MOL   H24032762   3.825   0.596   4.824  0.5664 -0.5309  0.2692
  102MOL   H24132763   3.683   0.697   4.873 -0.2450 -1.3533 -0.0336
  102MOL   C24232764   3.828   0.339   5.055  0.3152  0.9160  0.2956
  102MOL   C24332765   3.766   0.301   5.193 -0.2477  0.0156  0.3516
  102MOL   C24432766   3.914   0.230   4.984  0.6871  0.3673 -0.0792
  102MOL   C24532767   3.981   0.282   4.852  1.0028 -0.9334  0.0380
  102MOL   C24632768   3.892   0.293   4.731 -0.4856  0.5481 -0.5364
  102MOL   C24732769   4.112   0.307   4.843  0.5375  0.0777  0.1639
  102MOL   H24832770   3.741   0.346   4.990  0.3358 -0.1357  0.1389
  102MOL   H24932771   3.843   0.268   5.262 -0.0256 -0.9471 -0.3625
  102MOL   H25032772   3.698   0.216   5.190  0.2052 -0.3033 -0.9479
  102MOL   H25132773   3.716   0.387   5.239 -0.1918 -0.2606  0.9304
  102MOL   H25232774   4.002   0.226   5.049  0.5425  0.0674  0.1011
  102MOL   H25332775   3.881   0.197   4.681 -2.5649  0.7724 -0.5628
  102MOL   H25432776   3.934   0.358   4.655  2.1464 -1.4484 -0.8917
  102MOL   H25532777   3.791   0.324   4.758 -0.5469 -1.3562  1.6334
  102MOL   H25632778   4.174   0.288   4.929  0.1985 -1.3794  0.0987
  102MOL   H25732779   4.158   0.343   4.753 -2.4655 -0.5445 -1.7056
  102MOL   C25832780   3.854   0.090   4.964  0.6741  0.1013 -0.2913
  102MOL   C25932781   3.702   0.089   4.942 -0.0515  0.2190  0.0819
  102MOL   C26032782   3.900   7.867   5.062 -0.0802 -0.1333 -0.4167
  102MOL   C26132783   4.046   7.864   5.104 -0.6373  0.0560  0.8412
  102MOL   C26232784   4.148   7.859   4.991 -0.2050 -0.0402  0.7667
  102MOL   C26332785   4.083   7.854   5.232 -0.8070  0.0198 -0.8560
  102MOL   H26432786   3.883   0.054   4.865  1.3971 -1.1396  0.3579
  102MOL   H26532787   3.646   0.088   5.036  0.6407  0.6837  0.5051
  102MOL   H26632788   3.672   7.892   4.886 -1.3765  1.6362 -1.5007
  102MOL   H26732789   3.662   0.176   4.891  2.1734  1.6752  0.7901
  102MOL   H26832790   3.846   0.017   5.146 -1.4841  1.5614 -2.1152
  102MOL   H26932791   4.125   7.789   4.911  1.1426  1.2703 -0.8142
  102MOL   H27032792   4.246   7.823   5.020 -0.1093 -0.4441 -0.0317
  102MOL   H27132793   4.157   0.068   4.950 -2.2135  0.8665  2.4635
  102MOL   H27232794   4.005   7.852   5.306  0.8034 -1.2870  0.8536
  102MOL   H27332795   4.189   7.850   5.255 -0.7529 -0.1168 -1.1391
  102MOL   C27432796   3.838   7.719   5.035  0.8888  0.0085  0.2233
  102MOL   C27532797   3.836   7.682   4.885  0.4130  0.2756  0.6796
  102MOL   C27632798   3.705   7.685   5.106  0.5961 -0.0117 -0.4568
  102MOL   C27732799   3.714   7.706   5.259  0.1953 -0.5069 -0.0046
  102MOL   C27832800   3.824   7.628   5.337  0.9136 -0.5681 -0.3986
  102MOL   C27932801   3.633   7.789   5.329 -0.0426 -0.3239  0.7621
  102MOL   H28032802   3.923   7.663   5.073  0.9023 -0.3139 -0.2843
  102MOL   H28132803   3.736   7.706   4.847  0.3898  0.6326  0.9567
  102MOL   H28232804   3.836   7.574   4.871 -0.7689  0.2151  1.0128
  102MOL   H28332805   3.914   7.729   4.826 -1.3088 -1.1306 -2.8865
  102MOL   H28432806   3.640   7.762   5.066 -1.6120 -0.9656  1.1706
  102MOL   H28532807   3.919   7.606   5.288  1.2360  1.7360 -0.8576
  102MOL   H28632808   3.796   7.529   5.373  2.2958 -0.6470  0.5004
  102MOL   H28732809   3.848   7.683   5.428 -2.4933 -0.3836  0.4851
  102MOL   H28832810   3.559   7.849   5.277  0.3202  1.3685  2.1365
  102MOL   H28932811   3.636   7.799   5.436  1.3734  0.5322  0.6509
  102MOL   C29032812   3.633   7.549   5.079  0.1551 -0.1706  0.7663
  102MOL   C29132813   3.733   7.436   5.063  0.2063  0.3494 -0.0246
  102MOL   C29232814   3.513   7.547   4.980  0.1539  0.2554  0.3090
  102MOL   C29332815   3.414   7.665   5.023 -0.2633  0.8209  0.2294
  102MOL   C29432816   3.345   7.656   5.158 -0.1526  0.6518  1.2666
  102MOL   C29532817   3.401   7.779   4.949 -0.0415  0.6212  0.0406
  102MOL   H29632818   3.577   7.531   5.171  1.1861 -0.4851  1.3345
  102MOL   H29732819   3.829   7.461   5.108  2.3717  0.6544 -4.5725
  102MOL   H29832820   3.747   7.411   4.958 -0.4176  0.9334 -0.2534
  102MOL   H29932821   3.690   7.348   5.112 -1.5096  0.5813 -1.0831
  102MOL   H30032822   3.552   7.582   4.884 -0.0934  1.8417  0.7631
  102MOL   H30132823   3.259   7.722   5.170 -1.3999 -0.6002 -0.4483
  102MOL   H30232824   3.407   7.675   5.245 -0.2243  3.0908  0.8142
  102MOL   H30332825   3.294   7.560   5.155 -0.1243  0.6550  0.6277
  102MOL   H30432826   3.462   7.796   4.861 -0.0989  1.7116  0.2022
  102MOL   H30532827   3.338   7.864   4.970 -1.0786  0.1438 -1.0843
  102MOL   C30632828   3.433   7.416   4.960  0.5760  0.0588 -0.0562
  102MOL   C30732829   3.403   7.338   5.087  0.1364 -0.0076 -0.1332
  102MOL   C30832830   3.490   7.324   4.848  0.7825  0.6293  0.3722
  102MOL   C30932831   3.482   7.383   4.708  0.5207  0.0460  0.3550
  102MOL   C31032832   3.340   7.398   4.657  0.3068 -0.4813  0.4376
  102MOL   C31132833   3.594   7.412   4.638  0.9393 -0.0176 -0.0014
  102MOL   H31232834   3.335   7.447   4.921 -0.4423 -0.3692  2.0847
  102MOL   H31332835   3.472   7.257   5.111 -2.2581 -1.9396  0.4474
  102MOL   H31432836   3.302   7.296   5.094  0.2191 -0.3253 -0.7756
  102MOL   H31532837   3.406   7.399   5.178 -0.7494 -1.6517  1.0411
  102MOL   H31632838   3.587   7.280   4.872  0.1064 -0.8981  0.4081
  102MOL   H31732839   3.279   7.318   4.699  1.0090 -2.0578 -1.4288
  102MOL   H31832840   3.333   7.398   4.548  2.8493 -1.1119  0.2399
  102MOL   H31932841   3.300   7.489   4.702 -0.2461 -0.2996 -0.3982
  102MOL   H32032842   3.684   7.384   4.691 -0.0845  0.6813  2.1773
  102MOL   H32132843   3.606   7.453   4.539  1.4673  1.0451  0.4976
  102MOL   H32232844   3.427   7.235   4.851  0.0427  1.1074 -0.5658
  103MOL     C132845   4.134   4.209   2.301 -0.6767 -0.1691  0.3329
  103MOL     C232846   4.245   4.140   2.221  0.8467  0.2143 -0.0535
  103MOL     C332847   4.179   4.329   2.386 -0.7938  0.9511  0.6972
  103MOL     C432848   4.264   4.306   2.514  0.6784  0.4265  0.4482
  103MOL     C532849   4.347   4.410   2.577 -0.0350  0.1284 -0.5604
  103MOL     C632850   4.261   4.184   2.567 -0.7229 -0.1052 -0.7248
  103MOL     H732851   4.062   4.252   2.232 -1.6167  1.1092  2.0607
  103MOL     H832852   4.332   4.122   2.285  0.9868 -1.1689 -0.6205
  103MOL     H932853   4.267   4.221   2.151 -0.4944  3.4627  3.1068
  103MOL    H1032854   4.208   4.051   2.170 -0.6257  0.2806  0.8678
  103MOL    H1132855   4.262   4.374   2.331 -1.2305  1.1642  0.2093
  103MOL    H1232856   4.298   4.490   2.633  1.2812  0.7659 -0.2968
  103MOL    H1332857   4.416   4.456   2.507 -0.6521 -0.7767 -1.7836
  103MOL    H1432858   4.405   4.376   2.663 -0.2031  1.2480  0.0024
  103MOL    H1532859   4.207   4.098   2.530 -2.1931  0.0217  1.0713
  103MOL    H1632860   4.327   4.161   2.650  0.3745 -0.9860 -1.8269
  103MOL    H1732861   4.087   4.138   2.369 -2.9236  1.3569  0.4333
  103MOL    C1832862   4.055   4.425   2.414 -0.6182 -0.3923 -1.0955
  103MOL    C1932863   3.951   4.371   2.510  0.5644 -0.0141 -0.1237
  103MOL    C2032864   3.994   4.503   2.292  0.3529 -0.0577 -0.0240
  103MOL    C2132865   4.099   4.524   2.184 -0.4637  0.0009 -0.1869
  103MOL    C2232866   4.219   4.616   2.207 -0.4058  0.5189 -0.0076
  103MOL    C2332867   4.089   4.462   2.061  0.8894 -0.3377 -0.4974
  103MOL    H2432868   4.094   4.505   2.477 -3.4407 -0.0032  0.2514
  103MOL    H2532869   4.001   4.318   2.591  0.5618 -1.6016 -1.1235
  103MOL    H2632870   3.891   4.300   2.453 -2.0653  0.6167  1.7792
  103MOL    H2732871   3.890   4.451   2.552 -0.3904 -1.2691  0.9164
  103MOL    H2832872   3.915   4.443   2.248 -0.1063  0.1778  0.4758
  103MOL    H2932873   4.296   4.599   2.132  1.7091  3.2934  1.4510
  103MOL    H3032874   4.272   4.607   2.302  2.1638 -0.4267 -1.4797
  103MOL    H3132875   4.188   4.719   2.190  0.4379  0.2057 -4.0781
  103MOL    H3232876   4.011   4.395   2.029  0.0468  0.2996  0.1853
  103MOL    H3332877   4.169   4.473   1.989 -0.3751  1.5100 -1.6644
  103MOL    C3432878   3.923   4.642   2.316 -0.1177  0.0224 -0.3713
  103MOL    C3532879   3.992   4.717   2.435 -0.3176  0.2584 -0.7820
  103MOL    C3632880   3.763   4.633   2.329  0.6250 -0.0795 -0.0804
  103MOL    C3732881   3.701   4.584   2.196  0.4494  0.1868  0.1675
  103MOL    C3832882   3.597   4.478   2.223 -0.3216  0.8564 -0.1733
  103MOL    C3932883   3.746   4.606   2.070  0.0270 -0.2364  0.5485
  103MOL    H4032884   3.940   4.714   2.237 -1.6152  1.1619  0.3119
  103MOL    H4132885   4.101   4.725   2.444 -0.2621 -1.1771 -0.0006
  103MOL    H4232886   3.964   4.687   2.536  0.9702  0.7875 -0.2572
  103MOL    H4332887   3.978   4.824   2.418  1.4330  0.5208 -0.7062
  103MOL    H4432888   3.762   4.547   2.396  1.8634 -0.1386 -0.1330
  103MOL    H4532889   3.535   4.498   2.310  0.9888 -1.5239  1.3513
  103MOL    H4632890   3.642   4.388   2.265 -0.5513  1.3707  1.2035
  103MOL    H4732891   3.550   4.445   2.130  0.4852 -0.5964 -0.0784
  103MOL    H4832892   3.823   4.678   2.047 -0.3022 -0.5738 -1.7789
  103MOL    H4932893   3.700   4.545   1.994  0.2898 -0.1863  0.3488
  103MOL    C5032894   3.697   4.761   2.387  0.3398  0.0564 -0.4282
  103MOL    C5132895   3.563   4.742   2.463 -0.0540  0.2920  0.8071
  103MOL    C5232896   3.695   4.897   2.297  0.0381  0.7022 -0.1253
  103MOL    C5332897   3.756   5.012   2.374 -0.6212 -0.1351  0.7417
  103MOL    C5432898   3.676   5.056   2.502  0.0846  0.5464 -0.3984
  103MOL    C5532899   3.876   5.070   2.342 -0.3099  0.2008  0.0444
  103MOL    H5632900   3.758   4.776   2.476  1.2073 -0.9035 -0.8558
  103MOL    H5732901   3.519   4.836   2.496 -1.8216 -0.4180  0.5595
  103MOL    H5832902   3.584   4.677   2.548 -1.1258 -0.6232  0.3946
  103MOL    H5932903   3.482   4.699   2.403  0.3407 -0.5170  0.8468
  103MOL    H6032904   3.774   4.879   2.225 -0.8374 -3.5681 -0.1791
  103MOL    H6132905   3.570   5.079   2.489 -0.1323 -1.3256 -2.3640
  103MOL    H6232906   3.718   5.137   2.561 -0.7676  0.7464 -0.0567
  103MOL    H6332907   3.685   4.979   2.579  2.6026 -0.5147 -1.6666
  103MOL    H6432908   3.940   5.031   2.264  2.2141 -0.3516  2.3208
  103MOL    H6532909   3.927   5.149   2.395  2.3014 -1.2115 -0.2757
  103MOL    C6632910   3.566   4.942   2.216  0.5243 -0.3399 -0.1465
  103MOL    C6732911   3.500   4.821   2.136 -0.4498 -0.4973 -0.1535
  103MOL    C6832912   3.582   5.070   2.128 -0.0667 -0.7330  0.3579
  103MOL    C6932913   3.481   5.184   2.184  0.4175  0.9566 -0.3862
  103MOL    C7032914   3.337   5.157   2.141  0.5791  0.3105 -0.4767
  103MOL    C7132915   3.529   5.279   2.266  0.6831  0.3431 -0.0940
  103MOL    H7232916   3.502   4.967   2.301  1.0124 -1.9185  0.7164
  103MOL    H7332917   3.406   4.856   2.093  0.5211  1.5687 -0.6585
  103MOL    H7432918   3.477   4.740   2.206 -0.7693 -2.0297 -1.9918
  103MOL    H7532919   3.565   4.775   2.062 -1.6307 -3.3762  0.5431
  103MOL    H7632920   3.678   5.107   2.163 -0.1996 -0.3373  0.3191
  103MOL    H7732921   3.286   5.251   2.159 -1.1172 -0.9091  1.3220
  103MOL    H7832922   3.292   5.078   2.201  0.9233 -0.4371 -1.1815
  103MOL    H7932923   3.322   5.127   2.037 -1.9685  3.5495 -1.0984
  103MOL    H8032924   3.633   5.279   2.292  0.7044  0.9808 -0.1663
  103MOL    H8132925   3.469   5.362   2.301  1.5121 -0.1010  2.4689
  103MOL    C8232926   3.602   5.062   1.971 -1.0903 -0.1400  0.3353
  103MOL    C8332927   3.724   4.980   1.938  0.2892 -0.9374  0.4764
  103MOL    C8432928   3.601   5.199   1.896  0.0710  0.0717 -0.0102
  103MOL    C8532929   3.551   5.184   1.753 -0.5078  0.4403  0.1431
  103MOL    C8632930   3.400   5.158   1.737 -0.4075  0.6539  0.1640
  103MOL    C8732931   3.631   5.175   1.648  0.0908  0.6988  0.4502
  103MOL    H8832932   3.517   5.010   1.928 -1.8857 -1.1572  3.0370
  103MOL    H8932933   3.736   4.889   1.997  2.5899 -0.5196  0.7096
  103MOL    H9032934   3.821   5.026   1.958  1.4503 -4.1750  2.7700
  103MOL    H9132935   3.713   4.948   1.834 -0.5341 -0.1261  0.3131
  103MOL    H9232936   3.514   5.246   1.943 -0.8289 -1.2984 -0.2866
  103MOL    H9332937   3.358   5.179   1.639  1.5573 -1.0810 -1.0818
  103MOL    H9432938   3.346   5.226   1.803  0.5820 -0.3748  2.0852
  103MOL    H9532939   3.368   5.062   1.776 -0.0077  0.4554  0.0000
  103MOL    H9632940   3.739   5.176   1.645  0.1452 -2.1893 -1.0007
  103MOL    H9732941   3.585   5.157   1.551 -0.0525  2.2761  0.2264
  103MOL    C9832942   3.729   5.300   1.904 -0.9853  0.0053  0.4827
  103MOL    C9932943   3.808   5.309   2.042  0.3365 -0.0241 -0.1294
  103MOL   C10032944   3.710   5.439   1.847  0.2847  0.0552 -0.5252
  103MOL   C10132945   3.831   5.489   1.776  0.4678 -0.2483 -0.4407
  103MOL   C10232946   3.835   5.450   1.630  0.1068 -0.4975  0.1573
  103MOL   C10332947   3.928   5.561   1.830 -0.1526 -0.2352 -0.1911
  103MOL   H10432948   3.791   5.248   1.831 -1.3064 -0.7859  0.7620
  103MOL   H10532949   3.734   5.347   2.112 -0.1777  0.5976 -0.9968
  103MOL   H10632950   3.893   5.377   2.032 -0.6697  1.3070  0.3813
  103MOL   H10732951   3.834   5.210   2.080 -1.7758 -0.4459  0.2297
  103MOL   H10832952   3.627   5.432   1.777 -1.3489  0.4623  1.3340
  103MOL   H10932953   3.736   5.457   1.586 -1.0920 -1.3472  2.6268
  103MOL   H11032954   3.878   5.350   1.623  2.0358  0.2390  1.0121
  103MOL   H11132955   3.892   5.523   1.573  0.1320 -0.4109  0.2960
  103MOL   H11232956   3.921   5.580   1.936 -2.1785  0.8079 -0.4837
  103MOL   H11332957   4.009   5.595   1.768  0.3847  0.3775  0.8386
  103MOL   C11432958   3.639   5.550   1.940 -0.4329 -0.0038  0.3210
  103MOL   C11532959   3.498   5.503   1.983  0.3413  0.0097  0.4968
  103MOL   C11632960   3.642   5.697   1.886 -0.5425 -0.6092 -0.2427
  103MOL   C11732961   3.671   5.789   2.003  0.0221 -0.6940  0.4091
  103MOL   C11832962   3.568   5.795   2.113 -0.0063 -0.0676  0.3767
  103MOL   C11932963   3.789   5.854   2.006  0.0514 -0.8974 -0.8370
  103MOL   H12032964   3.704   5.550   2.027 -0.0525 -2.3279  0.0661
  103MOL   H12132965   3.515   5.430   2.063  0.3479 -0.4001  0.1208
  103MOL   H12232966   3.429   5.466   1.907 -1.2705  2.7709  0.5463
  103MOL   H12332967   3.437   5.577   2.036 -0.6273  0.3889 -1.1292
  103MOL   H12432968   3.731   5.717   1.826 -0.5385  0.5989  0.1622
  103MOL   H12532969   3.576   5.894   2.158 -1.3841 -0.2744  1.1117
  103MOL   H12632970   3.585   5.725   2.195  0.5634 -1.5871 -1.0214
  103MOL   H12732971   3.464   5.779   2.083 -0.0664 -1.0662  1.0999
  103MOL   H12832972   3.861   5.853   1.926  0.7311  1.4945 -0.3118
  103MOL   H12932973   3.809   5.907   2.099 -1.1794  0.6317 -1.4096
  103MOL   C13032974   3.525   5.748   1.786  0.1179 -0.0555  0.1435
  103MOL   C13132975   3.533   5.692   1.645  0.4626  0.1852  0.4106
  103MOL   C13232976   3.482   5.901   1.787 -0.0549  0.2054 -1.0652
  103MOL   C13332977   3.327   5.902   1.777  0.2573  0.6679 -0.7077
  103MOL   C13432978   3.250   5.869   1.906 -0.1479  0.0664 -0.2855
  103MOL   C13532979   3.254   5.927   1.669  0.3154 -0.0474  0.1909
  103MOL   H13632980   3.439   5.691   1.821  1.4620 -1.7100  0.7980
  103MOL   H13732981   3.454   5.728   1.579  0.4544 -0.0454  0.2930
  103MOL   H13832982   3.516   5.584   1.654  0.8550  0.1001  0.1391
  103MOL   H13932983   3.617   5.728   1.586 -1.1074  0.5274 -1.6872
  103MOL   H14032984   3.499   5.927   1.891  4.6840  1.3397 -1.9984
  103MOL   H14132985   3.266   5.765   1.934  0.3135  0.5078  1.1123
  103MOL   H14232986   3.145   5.899   1.901  0.4763  2.3422 -0.2010
  103MOL   H14332987   3.290   5.920   1.993  0.0149 -3.4037  1.7498
  103MOL   H14432988   3.290   5.960   1.573 -2.3075 -1.1215 -1.2158
  103MOL   H14532989   3.146   5.917   1.674  0.4399 -0.8352  1.5283
  103MOL   C14632990   3.557   6.001   1.689 -0.1477  0.2464 -0.0508
  103MOL   C14732991   3.712   5.995   1.714 -0.2434  0.2476 -0.3659
  103MOL   C14832992   3.503   6.147   1.680 -0.0035  0.3121 -0.6008
  103MOL   C14932993   3.547   6.209   1.544  0.2597 -0.1566 -0.0423
  103MOL   C15032994   3.440   6.200   1.433 -0.0880 -0.5399 -0.5971
  103MOL   C15132995   3.667   6.262   1.529  0.4015 -0.3142 -0.1367
  103MOL   H15232996   3.543   5.963   1.587 -0.5064  0.0773  0.0600
  103MOL   H15332997   3.752   5.894   1.705  2.8779  1.6147 -2.6492
  103MOL   H15432998   3.724   6.032   1.816 -1.4039 -1.3036  0.3493
  103MOL   H15532999   3.781   6.050   1.650  1.9266 -2.0443 -0.0977
  103MOL   H15633000   3.395   6.147   1.667 -0.0040 -0.0902 -0.6109
  103MOL   H15733001   3.393   6.102   1.421 -4.9254  1.6050 -0.4855
  103MOL   H15833002   3.483   6.238   1.340  0.0082  1.0895  0.0911
  103MOL   H15933003   3.362   6.271   1.460  0.7712 -0.1365  0.8635
  103MOL   H16033004   3.746   6.265   1.602  1.0324  2.8025 -0.8981
  103MOL   H16133005   3.697   6.299   1.433  1.2165 -0.6131  0.0062
  103MOL   C16233006   3.525   6.250   1.806  0.2003 -0.5720  0.1033
  103MOL   C16333007   3.528   6.172   1.946  0.2721  0.2500  0.1601
  103MOL   C16433008   3.432   6.378   1.819 -0.1250  0.3685 -0.5592
  103MOL   C16533009   3.284   6.340   1.807 -0.1973  0.2595 -0.3075
  103MOL   C16633010   3.202   6.298   1.924  0.3381  0.1164  0.1063
  103MOL   C16733011   3.204   6.366   1.696 -0.4664  0.2782 -0.1634
  103MOL   H16833012   3.624   6.294   1.801  0.6954 -1.4846  1.5138
  103MOL   H16933013   3.434   6.117   1.960  1.5855 -2.0015  0.3273
  103MOL   H17033014   3.534   6.243   2.028 -0.4697 -1.3450  1.6283
  103MOL   H17133015   3.614   6.106   1.951  0.7586  1.0193  2.0260
  103MOL   H17233016   3.445   6.415   1.920 -1.3994 -0.4547 -0.0700
  103MOL   H17333017   3.095   6.282   1.910  0.5569 -0.9207 -0.4374
  103MOL   H17433018   3.211   6.381   1.993  1.8882 -0.0956  0.1846
  103MOL   H17533019   3.230   6.207   1.978  0.1840  0.4986  0.8248
  103MOL   H17633020   3.245   6.416   1.609 -4.1061  0.9788 -1.5977
  103MOL   H17733021   3.098   6.346   1.690 -0.9334  2.3202  0.8438
  103MOL   C17833022   3.476   6.503   1.736 -0.6516 -0.0257  0.4366
  103MOL   C17933023   3.622   6.536   1.766  0.0099 -0.7368  0.6310
  103MOL   C18033024   3.387   6.636   1.744  0.1499  0.7657  0.1199
  103MOL   C18133025   3.385   6.708   1.609 -0.1423 -0.7843 -0.5850
  103MOL   C18233026   3.509   6.774   1.558  0.1953  0.7027  0.0229
  103MOL   C18333027   3.280   6.692   1.535 -0.2592  0.5282 -0.2767
  103MOL   H18433028   3.466   6.466   1.634  0.2099  0.7882  0.0518
  103MOL   H18533029   3.648   6.515   1.870  0.4069 -0.3165  0.6211
  103MOL   H18633030   3.650   6.640   1.749 -0.7904 -0.5175  0.6301
  103MOL   H18733031   3.682   6.472   1.702  0.0573  0.8445 -0.9254
  103MOL   H18833032   3.285   6.601   1.759  0.2370  0.1929 -0.5728
  103MOL   H18933033   3.586   6.707   1.519  0.9354  0.4019  1.9327
  103MOL   H19033034   3.569   6.821   1.636  0.8317 -1.2366  0.7137
  103MOL   H19133035   3.485   6.849   1.482  1.1295 -0.0357 -1.0136
  103MOL   H19233036   3.194   6.639   1.574  0.3463 -1.1158 -1.1466
  103MOL   H19333037   3.276   6.728   1.434  0.7676 -1.5815 -1.0995
  103MOL   C19433038   3.410   6.740   1.869 -0.2475  0.0088  0.4280
  103MOL   C19533039   3.418   6.664   2.003  0.1203 -0.3890 -0.0070
  103MOL   C19633040   3.300   6.861   1.864  0.3564  0.3396  0.3563
  103MOL   C19733041   3.369   6.991   1.899  0.3062  0.3089  0.0615
  103MOL   C19833042   3.427   7.007   2.041 -0.4557  0.1582 -0.1531
  103MOL   C19933043   3.392   7.077   1.803  0.0219  0.0119  0.1407
  103MOL   H20033044   3.507   6.788   1.857 -0.4128 -0.1945 -2.1175
  103MOL   H20133045   3.406   6.737   2.083 -1.1405 -1.3525  0.7047
  103MOL   H20233046   3.518   6.624   2.020  0.2656 -0.2542 -0.5571
  103MOL   H20333047   3.345   6.585   2.021  1.0589 -1.2699  0.0222
  103MOL   H20433048   3.278   6.876   1.758  2.9576 -0.6240 -0.3697
  103MOL   H20533049   3.521   6.952   2.044 -0.0748  0.7555 -1.0488
  103MOL   H20633050   3.366   6.968   2.122 -1.6831  0.4361 -0.9398
  103MOL   H20733051   3.442   7.113   2.061 -1.8903  0.0023  1.8833
  103MOL   H20833052   3.354   7.059   1.703 -2.2420  1.1221  0.7466
  103MOL   H20933053   3.445   7.169   1.820 -1.5859  1.1666 -0.9107
  103MOL   C21033054   3.160   6.837   1.932 -0.3459 -0.1819 -0.2226
  103MOL   C21133055   3.093   6.696   1.903 -0.5679 -1.0543  0.2209
  103MOL   C21233056   3.062   6.960   1.907 -1.0109  0.5706 -0.4487
  103MOL   C21333057   3.005   7.010   2.044  1.0210  0.7400  0.6464
  103MOL   C21433058   3.074   7.139   2.097  0.1459 -0.6689  0.4302
  103MOL   C21533059   2.895   6.953   2.099 -0.4694 -0.2542 -0.4000
  103MOL   H21633060   3.179   6.824   2.039 -0.7904 -1.0380 -0.2447
  103MOL   H21733061   3.063   6.669   1.801 -0.2865  1.4189 -0.5385
  103MOL   H21833062   3.001   6.694   1.962 -1.7451  2.2385 -1.3563
  103MOL   H21933063   3.150   6.612   1.942  0.8337  0.3271  1.2106
  103MOL   H22033064   3.123   7.043   1.872 -0.5853  0.9732  1.2264
  103MOL   H22133065   3.035   7.163   2.196 -0.3925 -4.0357  1.0966
  103MOL   H22233066   3.043   7.226   2.040 -0.4356 -1.0954  0.0897
  103MOL   H22333067   3.183   7.132   2.088  0.4243  0.9274  2.2114
  103MOL   H22433068   2.848   6.866   2.057  1.2693 -1.1783 -0.4630
  103MOL   H22533069   2.850   6.989   2.190 -1.1336  0.8572 -1.1539
  103MOL   C22633070   2.964   6.942   1.785 -0.1307 -0.0681  0.4369
  103MOL   C22733071   3.039   6.921   1.647  0.0109  0.0868 -0.4257
  103MOL   C22833072   2.852   7.060   1.781 -0.5338  0.0740 -0.4459
  103MOL   C22933073   2.725   6.986   1.732  0.4466 -0.4359  0.8247
  103MOL   C23033074   2.640   6.919   1.837 -0.0860  0.0839 -0.4238
  103MOL   C23133075   2.698   6.981   1.603 -0.0757  0.0656 -0.1798
  103MOL   H23233076   2.911   6.851   1.811 -1.6852  0.3122 -1.3163
  103MOL   H23333077   2.972   6.924   1.561  0.3550 -1.3597 -0.7430
  103MOL   H23433078   3.088   6.826   1.634  0.0762  0.0966 -0.2516
  103MOL   H23533079   3.103   7.009   1.635 -1.7678  1.6010  0.7119
  103MOL   H23633080   2.821   7.084   1.882 -1.4981 -1.8904 -0.2436
  103MOL   H23733081   2.689   6.831   1.880  0.5011  0.4007 -0.4497
  103MOL   H23833082   2.553   6.882   1.782 -0.1000 -0.4532 -0.0505
  103MOL   H23933083   2.603   6.973   1.924  0.2284 -1.8063  0.9246
  103MOL   H24033084   2.755   7.027   1.524 -1.8545  3.3070  0.3651
  103MOL   H24133085   2.608   6.934   1.567  0.2009 -1.2864  0.8204
  103MOL   C24233086   2.883   7.194   1.704  0.5660 -0.3714  0.1609
  103MOL   C24333087   3.006   7.270   1.750 -0.6270  0.0916  0.7186
  103MOL   C24433088   2.755   7.285   1.681  0.4538 -0.1304  0.2331
  103MOL   C24533089   2.744   7.337   1.534  0.1883  0.0495 -0.6362
  103MOL   C24633090   2.823   7.461   1.500  0.0394 -0.1478 -0.2759
  103MOL   C24733091   2.668   7.280   1.440  0.0939  0.0169  0.3364
  103MOL   H24833092   2.914   7.167   1.603  0.4552  2.3768 -0.6457
  103MOL   H24933093   3.098   7.212   1.750  0.1880  1.2639 -2.2851
  103MOL   H25033094   2.990   7.327   1.842 -0.9554  2.3013 -0.6702
  103MOL   H25133095   3.013   7.358   1.685 -0.5652  1.2286  2.2384
  103MOL   H25233096   2.670   7.216   1.684  0.9846 -0.7554  1.0468
  103MOL   H25333097   2.916   7.429   1.453  0.4062  0.1167  0.2728
  103MOL   H25433098   2.831   7.534   1.580  0.1049 -0.8932  0.4085
  103MOL   H25533099   2.778   7.521   1.421  1.1073  1.4625  0.3332
  103MOL   H25633100   2.609   7.192   1.463  0.3560 -0.4892 -0.8823
  103MOL   H25733101   2.656   7.326   1.343  1.2322 -0.8460 -0.2311
  103MOL   C25833102   2.720   7.394   1.785 -0.8245  0.1762 -0.5917
  103MOL   C25933103   2.705   7.327   1.925 -0.3322 -0.0398 -0.3174
  103MOL   C26033104   2.595   7.487   1.758 -0.6454  0.2984  0.4618
  103MOL   C26133105   2.621   7.617   1.830  0.3230  0.1614  0.9518
  103MOL   C26233106   2.691   7.725   1.741  0.4962 -1.0680  0.5933
  103MOL   C26333107   2.582   7.652   1.953 -0.3713  0.3533  0.0427
  103MOL   H26433108   2.811   7.452   1.795 -0.2732 -0.7182 -0.3536
  103MOL   H26533109   2.671   7.408   1.989  2.0340 -0.0710  1.0407
  103MOL   H26633110   2.798   7.295   1.971 -2.0019 -2.4011  1.5574
  103MOL   H26733111   2.640   7.239   1.929 -0.5307  0.0774 -0.8959
  103MOL   H26833112   2.594   7.516   1.653  1.1639  0.9732  0.6098
  103MOL   H26933113   2.638   7.722   1.646 -1.1654 -1.2687  1.5076
  103MOL   H27033114   2.800   7.713   1.738  0.5122 -0.6837 -0.4706
  103MOL   H27133115   2.669   7.825   1.777 -0.3486 -0.7731 -0.7345
  103MOL   H27233116   2.536   7.587   2.026  2.5616 -0.8237  0.9163
  103MOL   H27333117   2.598   7.753   1.985  1.2193 -0.4981  2.0052
  103MOL   C27433118   2.452   7.431   1.787 -0.4327 -0.0672  0.2819
  103MOL   C27533119   2.429   7.287   1.728 -0.0029  0.0185 -0.5146
  103MOL   C27633120   2.335   7.534   1.750  0.0051  0.1203  0.0018
  103MOL   C27733121   2.233   7.542   1.865 -0.3892 -0.1194 -0.4710
  103MOL   C27833122   2.144   7.414   1.892  0.4076 -0.2288  0.0770
  103MOL   C27933123   2.218   7.645   1.944  0.0025 -0.7330 -0.0049
  103MOL   H28033124   2.444   7.416   1.895 -0.6643  2.0718  0.5946
  103MOL   H28133125   2.488   7.219   1.789  0.9290  0.8936 -0.4176
  103MOL   H28233126   2.464   7.276   1.625  1.1661 -0.1765 -0.1080
  103MOL   H28333127   2.325   7.258   1.738 -0.3432 -0.2962 -4.1098
  103MOL   H28433128   2.381   7.632   1.740 -0.1673 -0.1417 -4.5040
  103MOL   H28533129   2.195   7.330   1.939 -0.4639 -0.7338  0.1154
  103MOL   H28633130   2.110   7.384   1.793  1.7434 -0.7710 -0.2305
  103MOL   H28733131   2.064   7.431   1.963  0.4376 -0.9998  0.3016
  103MOL   H28833132   2.273   7.738   1.934 -0.7641 -0.3605 -0.8370
  103MOL   H28933133   2.145   7.635   2.023 -0.6293  0.5857 -0.3997
  103MOL   C29033134   2.267   7.517   1.607  0.3165  0.2995  0.9611
  103MOL   C29133135   2.368   7.533   1.486  0.9358 -0.3766  0.1006
  103MOL   C29233136   2.132   7.602   1.584  0.1234  0.3347 -0.4438
  103MOL   C29333137   2.035   7.542   1.490  0.8359  0.2120  0.4050
  103MOL   C29433138   1.917   7.464   1.555 -0.7373 -0.4970 -0.6790
  103MOL   C29533139   2.044   7.545   1.355 -0.1798  0.0483 -0.9248
  103MOL   H29633140   2.237   7.412   1.599 -0.8025  0.6809 -0.0343
  103MOL   H29733141   2.324   7.518   1.387 -0.2238 -1.0057  0.6982
  103MOL   H29833142   2.443   7.456   1.505  0.8134 -0.7064 -0.7457
  103MOL   H29933143   2.415   7.628   1.512 -1.5432  1.4116 -1.7680
  103MOL   H30033144   2.087   7.581   1.681 -0.5561 -1.2717 -1.0903
  103MOL   H30133145   1.965   7.391   1.620 -0.5719 -0.4677 -0.7697
  103MOL   H30233146   1.836   7.423   1.494 -0.1675 -1.6412 -0.6840
  103MOL   H30333147   1.865   7.524   1.630  1.0411  0.7086 -0.3801
  103MOL   H30433148   2.117   7.597   1.295  2.9848 -1.4366  1.4884
  103MOL   H30533149   1.965   7.490   1.307  0.6719 -1.7119 -0.3336
  103MOL   C30633150   2.145   7.754   1.578  0.6184 -1.0833  0.0606
  103MOL   C30733151   2.031   7.825   1.656 -0.5990 -0.0168  0.6898
  103MOL   C30833152   2.153   7.818   1.435  0.2967  0.0876 -0.3669
  103MOL   C30933153   2.213   0.063   1.422 -0.2550 -0.4289  0.1306
  103MOL   C31033154   2.360   0.086   1.455 -0.0553 -0.4189 -0.2413
  103MOL   C31133155   2.146   0.172   1.384  0.1819  0.3303  0.2570
  103MOL   H31233156   2.241   7.780   1.623  0.3259  1.2329 -0.6008
  103MOL   H31333157   2.035   7.784   1.757 -1.3494 -2.6152 -0.2886
  103MOL   H31433158   1.929   7.806   1.623 -0.4693 -0.6682  0.6540
  103MOL   H31533159   2.046   0.040   1.662  2.2419 -0.1442 -2.5122
  103MOL   H31633160   2.224   7.761   1.375  1.1099 -0.5230  1.1329
  103MOL   H31733161   2.416   0.157   1.394  0.2324 -0.0296  0.4635
  103MOL   H31833162   2.411   7.882   1.447 -1.0414 -0.9940  0.3698
  103MOL   H31933163   2.362   0.126   1.556 -0.5932 -0.5616 -0.1745
  103MOL   H32033164   2.040   0.174   1.361  0.1715 -1.3484  0.1455
  103MOL   H32133165   2.188   0.272   1.378 -1.9577  1.1424 -2.6267
  103MOL   H32233166   2.058   7.810   1.382  1.7569  1.7112 -3.3472
  104MOL     C133167   5.987   2.858   7.810 -0.2518  0.0414 -0.1406
  104MOL     C233168   6.021   2.787   0.050 -0.4319 -0.2813 -0.6929
  104MOL     C333169   6.114   2.929   7.746  0.2385 -0.1238 -0.0341
  104MOL     C433170   6.159   3.051   7.836  0.4879  0.3850  0.1783
  104MOL     C533171   6.302   3.089   7.816 -0.5166  0.0203  0.1817
  104MOL     C633172   6.081   3.127   0.018 -0.0034 -0.2706 -0.0375
  104MOL     H733173   5.950   2.775   7.749  0.7626 -1.2542  0.9678
  104MOL     H833174   6.071   2.859   0.116  1.3270 -2.6126  0.5855
  104MOL     H933175   6.098   2.712   0.034 -0.8349 -1.1806  1.3958
  104MOL    H1033176   5.930   2.750   0.098 -1.6863  1.1456 -1.8750
  104MOL    H1133177   6.195   2.858   7.758 -0.5042 -0.9164  0.3869
  104MOL    H1233178   6.359   3.007   7.772  0.5559 -0.2573  2.0191
  104MOL    H1333179   6.349   3.124   0.016 -1.8499 -0.5259  1.0833
  104MOL    H1433180   6.299   3.176   7.751 -1.6121 -1.5728 -1.9465
  104MOL    H1533181   5.977   3.097   0.017 -0.6081  1.7265  1.2150
  104MOL    H1633182   6.128   3.205   0.075  1.3052 -1.6143  0.7590
  104MOL    H1733183   5.909   2.929   7.837 -0.8966 -0.0132 -1.8008
  104MOL    C1833184   6.095   2.970   7.596 -0.1579 -0.2920 -0.0752
  104MOL    C1933185   6.016   3.100   7.578 -0.0432 -0.1299 -0.0879
  104MOL    C2033186   6.058   2.852   7.498 -0.3207 -0.1734 -0.6289
  104MOL    C2133187   6.117   2.719   7.524 -0.1198  1.0099 -0.3428
  104MOL    C2233188   6.269   2.710   7.541  0.0756  0.1122  0.1626
  104MOL    C2333189   6.041   2.606   7.519 -0.2115  0.7915  0.6045
  104MOL    H2433190   6.198   2.991   7.568 -0.8921  2.4419 -0.8795
  104MOL    H2533191   6.026   3.114   7.470 -0.3348  0.8002  0.0045
  104MOL    H2633192   6.062   3.186   7.626  3.3124 -2.2188  0.6907
  104MOL    H2733193   5.914   3.090   7.614 -0.0591 -0.9346 -0.3269
  104MOL    H2833194   5.952   2.843   7.523 -0.3105  2.7211  0.6855
  104MOL    H2933195   6.317   2.803   7.569 -1.2916  0.7200  0.5370
  104MOL    H3033196   6.296   2.676   7.442  1.5213  0.6005  0.3812
  104MOL    H3133197   6.295   2.631   7.612 -1.4429 -2.2389 -1.8017
  104MOL    H3233198   5.937   2.626   7.500 -0.0316  2.3024  1.1553
  104MOL    H3333199   6.078   2.505   7.532  0.2849  0.6979 -1.4162
  104MOL    C3433200   6.075   2.879   7.341  0.3341  0.3719  0.1835
  104MOL    C3533201   6.208   2.953   7.311 -0.7857  0.0126 -0.1810
  104MOL    C3633202   5.946   2.942   7.267 -0.4461  0.1683 -1.0814
  104MOL    C3733203   5.826   2.853   7.281  0.7551  0.3953  0.0651
  104MOL    C3833204   5.826   2.723   7.212 -0.2740  0.3111  0.3871
  104MOL    C3933205   5.723   2.898   7.356 -0.2995  0.4253  0.0895
  104MOL    H4033206   6.083   2.784   7.288  0.6727  0.7455 -0.4457
  104MOL    H4133207   6.289   2.904   7.364 -1.1330 -1.4790 -0.9855
  104MOL    H4233208   6.203   3.060   7.331 -1.8548  0.1128 -0.9140
  104MOL    H4333209   6.231   2.946   7.204 -0.8698  1.2115 -0.2922
  104MOL    H4433210   5.922   3.029   7.327  3.0369 -0.1457  0.9071
  104MOL    H4533211   5.756   2.662   7.269  0.3130 -0.7248  0.0160
  104MOL    H4633212   5.912   2.660   7.236 -1.6578 -1.4738  0.7945
  104MOL    H4733213   5.814   2.730   7.104  2.2070 -0.7693 -0.0085
  104MOL    H4833214   5.732   2.992   7.408 -0.9203 -1.3047  3.4537
  104MOL    H4933215   5.639   2.835   7.379 -0.3611  0.6315  0.4304
  104MOL    C5033216   5.960   2.987   7.114 -0.5579  1.1670 -0.1901
  104MOL    C5133217   6.035   2.882   7.028  0.0150 -0.4789  0.1227
  104MOL    C5233218   6.013   3.144   7.099 -0.2454  0.0644  0.0517
  104MOL    C5333219   5.924   3.239   7.172  0.2031 -0.2505 -0.5752
  104MOL    C5433220   5.984   3.357   7.242 -0.0545  0.0573 -0.9337
  104MOL    C5533221   5.791   3.221   7.195 -0.3066  0.3457  0.2435
  104MOL    H5633222   5.857   2.984   7.082 -1.5936  2.9680  2.7644
  104MOL    H5733223   6.051   2.781   7.066 -0.5366 -0.9394 -0.8575
  104MOL    H5833224   6.134   2.921   7.006  0.5507  0.7801  4.2899
  104MOL    H5933225   5.990   2.870   6.930  1.1079  3.2178 -0.8911
  104MOL    H6033226   6.108   3.146   7.153  0.5987 -0.6982 -1.3721
  104MOL    H6133227   6.062   3.390   7.173  2.5915 -1.4076  1.2967
  104MOL    H6233228   6.014   3.323   7.341 -0.1920 -1.6241 -1.4537
  104MOL    H6333229   5.921   3.445   7.256  0.4822  0.4324 -0.8570
  104MOL    H6433230   5.740   3.138   7.150  0.4441  0.2049 -0.3687
  104MOL    H6533231   5.748   3.296   7.260  0.8084 -0.4540  1.9509
  104MOL    C6633232   6.042   3.177   6.944 -0.2232  0.0589 -0.8937
  104MOL    C6733233   6.181   3.248   6.943  0.4506 -0.3115 -0.3819
  104MOL    C6833234   5.931   3.244   6.862 -0.6799  0.0858  0.4134
  104MOL    C6933235   5.827   3.133   6.818 -0.3435  0.4494  0.2965
  104MOL    C7033236   5.872   3.029   6.714  0.1359 -0.6475 -0.3637
  104MOL    C7133237   5.706   3.126   6.868 -0.0767  0.4244 -0.1932
  104MOL    H7233238   6.063   3.085   6.890 -0.9275 -1.5009  1.4206
  104MOL    H7333239   6.253   3.195   7.004  0.7523  0.5395  0.0160
  104MOL    H7433240   6.168   3.340   7.001 -0.1940 -0.0893 -0.8689
  104MOL    H7533241   6.212   3.276   6.842  1.0862  0.3577 -0.0070
  104MOL    H7633242   5.871   3.305   6.930  1.9243  0.6390  2.3075
  104MOL    H7733243   5.845   3.062   6.613 -0.2076  0.8973  0.2076
  104MOL    H7833244   5.819   2.935   6.724 -2.3852  0.6744 -1.0325
  104MOL    H7933245   5.979   3.006   6.718  0.7301  2.1275  1.6837
  104MOL    H8033246   5.672   3.197   6.942 -0.6238  0.1975 -0.2251
  104MOL    H8133247   5.631   3.056   6.833  1.1200  0.3710 -2.7723
  104MOL    C8233248   5.959   3.333   6.734  0.5480 -0.4456  0.4489
  104MOL    C8333249   6.031   3.471   6.778 -0.1219  0.2337 -0.2638
  104MOL    C8433250   5.851   3.362   6.617 -0.7457  0.2554  0.6552
  104MOL    C8533251   5.920   3.381   6.480 -0.1658  0.3294 -0.7455
  104MOL    C8633252   5.934   3.246   6.402  0.1364  0.0564 -0.1330
  104MOL    C8733253   5.969   3.498   6.427 -0.4487  0.0263 -0.3881
  104MOL    H8833254   6.041   3.274   6.691  1.9347  0.7013  1.4712
  104MOL    H8933255   6.031   3.538   6.692 -0.9824  0.7299  0.1248
  104MOL    H9033256   6.130   3.458   6.823 -0.1669 -0.3098 -0.3205
  104MOL    H9133257   5.969   3.531   6.845 -0.0483  1.4938 -1.3155
  104MOL    H9233258   5.787   3.275   6.609  0.5287 -0.6157 -0.3896
  104MOL    H9333259   5.839   3.194   6.413 -0.2592  0.9353  0.6399
  104MOL    H9433260   6.006   3.189   6.462 -0.1755  0.7223  0.8732
  104MOL    H9533261   5.962   3.259   6.297 -1.7632 -1.3516 -0.8365
  104MOL    H9633262   5.948   3.592   6.475 -0.8598  0.4096 -1.3092
  104MOL    H9733263   6.025   3.501   6.335  0.8061  0.2444  0.3566
  104MOL    C9833264   5.747   3.482   6.641 -0.2635 -0.7310  0.1806
  104MOL    C9933265   5.674   3.460   6.769 -0.2043  0.1619 -0.1282
  104MOL   C10033266   5.647   3.505   6.514  0.0298  0.2074 -0.0012
  104MOL   C10133267   5.613   3.653   6.520  0.4549  0.2785  0.0572
  104MOL   C10233268   5.697   3.746   6.439 -0.3657 -0.0804  0.7168
  104MOL   C10333269   5.514   3.705   6.594 -0.3520  0.1952  0.4826
  104MOL   H10433270   5.807   3.572   6.656 -0.9568 -0.4884  1.5271
  104MOL   H10533271   5.597   3.382   6.767 -1.9615  1.7535  2.1189
  104MOL   H10633272   5.608   3.546   6.785 -2.9407 -1.8315 -0.3110
  104MOL   H10733273   5.736   3.458   6.859 -0.9558  1.0502  0.4135
  104MOL   H10833274   5.693   3.491   6.416  0.0225 -3.6544  0.4710
  104MOL   H10933275   5.744   3.720   6.344 -2.0540  2.2971 -0.8549
  104MOL   H11033276   5.771   3.798   6.501 -0.0235  1.5097 -0.9727
  104MOL   H11133277   5.635   3.831   6.409 -1.3201 -0.7832  0.6869
  104MOL   H11233278   5.450   3.645   6.657  0.0085 -0.1707  0.5027
  104MOL   H11333279   5.490   3.810   6.600 -1.2774  0.1807 -2.1998
  104MOL   C11433280   5.523   3.419   6.497  0.4505 -0.6927  0.3202
  104MOL   C11533281   5.570   3.278   6.467 -0.2533  0.5921 -0.6213
  104MOL   C11633282   5.409   3.457   6.394  0.3001  0.2405 -0.0597
  104MOL   C11733283   5.273   3.407   6.462 -0.3483  0.2302 -0.4303
  104MOL   C11833284   5.232   3.259   6.445 -0.2169 -0.0415 -0.1924
  104MOL   C11933285   5.203   3.493   6.538  0.1226  0.1327  0.6463
  104MOL   H12033286   5.477   3.419   6.596 -0.2669 -2.4640  0.0075
  104MOL   H12133287   5.498   3.209   6.424 -0.8875  1.1139 -0.3875
  104MOL   H12233288   5.582   3.225   6.562 -3.0584 -0.3914 -0.7706
  104MOL   H12333289   5.653   3.288   6.397  0.6633 -1.8551  0.0563
  104MOL   H12433290   5.411   3.566   6.396 -2.1004  0.3219 -1.2014
  104MOL   H12533291   5.304   3.198   6.499 -0.2568  0.7041  0.7165
  104MOL   H12633292   5.222   3.226   6.342 -2.2319 -1.9675  0.5914
  104MOL   H12733293   5.133   3.251   6.490 -0.0917 -0.9711 -0.0845
  104MOL   H12833294   5.233   3.597   6.540  0.9915 -0.0581 -1.2510
  104MOL   H12933295   5.115   3.472   6.596  1.1679 -0.0346  2.2010
  104MOL   C13033296   5.422   3.418   6.245  0.3426  0.8023 -0.5629
  104MOL   C13133297   5.551   3.476   6.177 -0.1849  0.0585 -0.6947
  104MOL   C13233298   5.291   3.437   6.158 -0.2653 -0.1628  0.0824
  104MOL   C13333299   5.274   3.325   6.054  0.4879 -0.4802  0.2968
  104MOL   C13433300   5.176   3.217   6.089 -0.4859 -0.5741 -0.6941
  104MOL   C13533301   5.360   3.310   5.949 -0.1794  0.0951 -0.8773
  104MOL   H13633302   5.451   3.313   6.241  0.1098  0.6209  2.0831
  104MOL   H13733303   5.640   3.414   6.180 -0.1170  0.2219  1.8318
  104MOL   H13833304   5.591   3.569   6.218 -1.0176 -0.3553  1.0894
  104MOL   H13933305   5.526   3.497   6.073 -3.6034 -1.0506 -0.1450
  104MOL   H14033306   5.203   3.435   6.222 -0.3984  2.2100 -0.0151
  104MOL   H14133307   5.117   3.171   6.010 -1.9812 -0.6630  0.4410
  104MOL   H14233308   5.096   3.259   6.150  0.8796  1.4782 -0.2895
  104MOL   H14333309   5.221   3.134   6.144  0.4050 -0.9390 -1.9731
  104MOL   H14433310   5.427   3.392   5.930 -1.4665  1.1157 -1.0496
  104MOL   H14533311   5.359   3.226   5.881  2.0482 -0.4706 -0.2485
  104MOL   C14633312   5.271   3.573   6.081 -0.0409  0.0880 -0.0223
  104MOL   C14733313   5.290   3.688   6.180  0.3898  0.0626 -0.0825
  104MOL   C14833314   5.126   3.598   6.017  0.3300  0.8187  0.3289
  104MOL   C14933315   4.998   3.526   6.074 -0.1094  0.2617 -0.0270
  104MOL   C15033316   4.918   3.425   5.989  0.2187 -0.2416  0.3862
  104MOL   C15133317   4.961   3.543   6.204  0.1005  0.1796 -0.6274
  104MOL   H15233318   5.350   3.596   6.010 -0.7153  0.9489 -0.4990
  104MOL   H15333319   5.391   3.694   6.220  1.2347 -0.9617 -2.0103
  104MOL   H15433320   5.216   3.679   6.259 -0.0860 -0.9018 -0.6213
  104MOL   H15533321   5.288   3.784   6.128  3.3467  0.2729  0.0854
  104MOL   H15633322   5.097   3.695   6.059 -3.9172 -0.6158  0.9279
  104MOL   H15733323   4.978   3.338   5.965 -0.8513 -0.3010 -2.1494
  104MOL   H15833324   4.877   3.466   5.897 -0.1867 -1.9327 -0.2063
  104MOL   H15933325   4.830   3.379   6.035 -0.6517  0.7727 -0.2426
  104MOL   H16033326   5.002   3.606   6.281  1.2677 -0.1212 -0.9934
  104MOL   H16133327   4.875   3.485   6.232  0.0804  0.0124 -1.0363
  104MOL   C16233328   5.125   3.617   5.856  0.0157 -0.8564  0.0273
  104MOL   C16333329   5.167   3.492   5.783  0.3459 -0.8197  0.7584
  104MOL   C16433330   5.208   3.744   5.812 -0.0983 -0.1538 -0.7078
  104MOL   C16533331   5.150   3.874   5.877 -0.0681 -0.5833  0.5201
  104MOL   C16633332   5.251   3.973   5.923 -1.3476 -0.7782 -0.4711
  104MOL   C16733333   5.025   3.909   5.908 -0.5742  0.1097 -0.1660
  104MOL   H16833334   5.020   3.626   5.828  0.5965  0.4522 -1.8566
  104MOL   H16933335   5.275   3.484   5.768  0.3355 -2.0777  1.2434
  104MOL   H17033336   5.133   3.503   5.681 -0.5303 -0.0554  1.1236
  104MOL   H17133337   5.127   3.407   5.839 -1.4781 -0.4027  0.1065
  104MOL   H17233338   5.305   3.730   5.859 -1.0740 -1.9047  0.8249
  104MOL   H17333339   5.262   3.964   6.031  0.4307 -0.7078 -0.6364
  104MOL   H17433340   5.215   4.071   5.892 -1.1361 -0.5119  0.1084
  104MOL   H17533341   5.354   3.959   5.891 -0.6248  0.0588  1.3613
  104MOL   H17633342   4.947   3.840   5.878  0.0184 -0.1411 -1.1301
  104MOL   H17733343   4.986   3.997   5.958 -0.9510  0.2888 -0.7652
  104MOL   C17833344   5.205   3.776   5.660  0.3806 -0.2597 -0.1980
  104MOL   C17933345   5.057   3.773   5.608 -0.0609 -0.2301 -0.5130
  104MOL   C18033346   5.310   3.694   5.573 -0.1688  0.0713 -0.0755
  104MOL   C18133347   5.448   3.668   5.641  0.2884 -0.7255  0.0226
  104MOL   C18233348   5.511   3.533   5.605 -0.8857 -0.0111  0.1375
  104MOL   C18333349   5.518   3.757   5.708  0.6703 -0.0870 -0.2170
  104MOL   H18433350   5.240   3.879   5.649 -1.0709  0.0210 -2.7669
  104MOL   H18533351   5.027   3.669   5.597  0.1130 -0.1768 -1.6247
  104MOL   H18633352   5.045   3.805   5.505 -2.0974 -0.8508 -0.4906
  104MOL   H18733353   4.990   3.831   5.671  0.3164  0.7476 -0.9925
  104MOL   H18833354   5.263   3.595   5.565  0.6257 -0.2793 -0.5163
  104MOL   H18933355   5.576   3.499   5.685  0.6401  2.7362  0.1273
  104MOL   H19033356   5.562   3.536   5.508  0.1370 -0.8854  0.6378
  104MOL   H19133357   5.435   3.455   5.596 -0.3265 -0.6865  1.1939
  104MOL   H19233358   5.496   3.860   5.733 -0.3572  0.0960 -1.8134
  104MOL   H19333359   5.617   3.726   5.737  0.1637 -1.8849 -0.3849
  104MOL   C19433360   5.328   3.745   5.427  0.6919  0.0281  0.5004
  104MOL   C19533361   5.330   3.900   5.416 -0.0023 -0.2598  0.6924
  104MOL   C19633362   5.237   3.682   5.319 -0.2238 -0.3560  0.5751
  104MOL   C19733363   5.234   3.530   5.326  0.8191  0.1852  0.0507
  104MOL   C19833364   5.344   3.449   5.283 -0.3710  0.7047 -0.3573
  104MOL   C19933365   5.126   3.466   5.377  0.4938  0.4485  0.0808
  104MOL   H20033366   5.425   3.721   5.385  0.8570 -0.0057  0.8966
  104MOL   H20133367   5.389   3.955   5.488  0.3693  2.1992 -1.4021
  104MOL   H20233368   5.227   3.937   5.424 -0.0863 -0.4621  0.5594
  104MOL   H20333369   5.374   3.934   5.322 -1.0539 -1.1092 -0.1335
  104MOL   H20433370   5.141   3.712   5.361  0.3284  0.0953  1.5307
  104MOL   H20533371   5.341   3.345   5.314  0.4710  0.7440 -0.1287
  104MOL   H20633372   5.444   3.479   5.317 -0.4155  0.1203  0.3146
  104MOL   H20733373   5.360   3.453   5.176 -0.7289 -1.7672 -0.5316
  104MOL   H20833374   5.034   3.512   5.408  0.0456  0.5910 -1.4363
  104MOL   H20933375   5.129   3.358   5.385 -1.0989  0.3572 -0.4119
  104MOL   C21033376   5.234   3.726   5.168 -0.7059  0.1700 -0.0067
  104MOL   C21133377   5.373   3.752   5.105 -0.1740 -0.1476 -0.1167
  104MOL   C21233378   5.141   3.851   5.131 -0.1453 -0.0695 -0.6734
  104MOL   C21333379   5.001   3.858   5.194  0.9830  1.1185 -0.6502
  104MOL   C21433380   4.970   3.983   5.267 -0.3308 -0.2143  0.0139
  104MOL   C21533381   4.931   3.745   5.219  0.3684  0.2410 -0.1599
  104MOL   H21633382   5.190   3.643   5.112 -2.1641  1.0116 -0.1214
  104MOL   H21733383   5.439   3.682   5.156 -1.9362 -0.1362  2.2447
  104MOL   H21833384   5.399   3.856   5.124 -1.5075  0.5293 -1.7942
  104MOL   H21933385   5.376   3.746   4.996  3.1316 -1.7608  0.0113
  104MOL   H22033386   5.191   3.939   5.171  0.8708 -0.9332 -0.0172
  104MOL   H22133387   4.985   3.975   5.375 -0.6706 -1.0218  0.0102
  104MOL   H22233388   4.863   3.996   5.247 -0.9872 -3.0970  1.2901
  104MOL   H22333389   5.031   4.066   5.233  0.4655  0.0853  2.0869
  104MOL   H22433390   4.966   3.650   5.180  0.2503 -0.8294  2.2499
  104MOL   H22533391   4.840   3.760   5.274 -0.6778  1.2832 -2.1334
  104MOL   C22633392   5.133   3.897   4.980 -0.4816  0.3228  0.0502
  104MOL   C22733393   5.091   4.046   4.969 -0.1175  0.3051  0.8822
  104MOL   C22833394   5.057   3.800   4.884  1.0319 -0.4039 -0.4908
  104MOL   C22933395   5.162   3.735   4.801 -0.7385  0.4388  0.7936
  104MOL   C23033396   5.232   3.813   4.694  0.7180 -0.1187 -0.5864
  104MOL   C23133397   5.193   3.609   4.825  0.9493 -0.0087  0.7039
  104MOL   H23233398   5.232   3.914   4.939  0.1602  1.6347  2.0727
  104MOL   H23333399   4.986   4.073   4.985 -0.2611 -0.1005  0.6337
  104MOL   H23433400   5.120   4.086   4.872 -0.3816  1.1462  1.1443
  104MOL   H23533401   5.157   4.111   5.026 -1.3429  0.5056  2.1123
  104MOL   H23633402   5.010   3.721   4.942  0.0288  1.0478  0.7390
  104MOL   H23733403   5.210   3.761   4.601 -0.9061  1.2546 -0.9808
  104MOL   H23833404   5.340   3.807   4.706  0.5127 -0.0939  1.3015
  104MOL   H23933405   5.202   3.918   4.699 -0.2370 -0.3870 -0.6807
  104MOL   H24033406   5.146   3.552   4.904 -1.2112  0.1490 -0.4136
  104MOL   H24133407   5.257   3.559   4.755 -0.1893  0.1153 -0.4462
  104MOL   C24233408   4.926   3.860   4.808 -0.3386  0.0178 -0.4379
  104MOL   C24333409   4.797   3.867   4.899 -0.4351  0.3574 -0.0433
  104MOL   C24433410   4.887   3.810   4.660  0.3493 -0.4715 -0.6733
  104MOL   C24533411   4.849   3.935   4.570  0.0264  1.0480  0.0625
  104MOL   C24633412   4.975   3.990   4.503  0.1069  0.0514 -0.0970
  104MOL   C24733413   4.729   3.986   4.551 -1.2094 -0.1864  0.1434
  104MOL   H24833414   4.949   3.963   4.781 -0.1416  0.6601  2.0560
  104MOL   H24933415   4.823   3.905   4.998 -1.5051 -1.2929  0.9053
  104MOL   H25033416   4.747   3.772   4.921  0.1921 -0.4060 -1.8224
  104MOL   H25133417   4.718   3.919   4.845 -1.4706 -1.8482 -0.7374
  104MOL   H25233418   4.979   3.768   4.619  0.5340 -2.6597  1.8449
  104MOL   H25333419   5.044   4.022   4.581 -0.9819  1.8841  0.1701
  104MOL   H25433420   4.955   4.092   4.468 -0.4406 -0.0928 -0.2112
  104MOL   H25533421   5.019   3.924   4.429 -0.8208 -0.8030  0.1018
  104MOL   H25633422   4.644   3.933   4.593 -1.7962  1.5075  1.1526
  104MOL   H25733423   4.710   4.074   4.491 -0.0954  0.8817  1.3281
  104MOL   C25833424   4.796   3.680   4.645  0.5368 -0.0240 -0.5690
  104MOL   C25933425   4.838   3.574   4.747  0.2608 -0.0757  0.0224
  104MOL   C26033426   4.784   3.623   4.501  0.0873 -0.4129 -0.2165
  104MOL   C26133427   4.633   3.595   4.474  0.2323 -0.2028  0.4923
  104MOL   C26233428   4.567   3.484   4.556  0.0011 -0.5102  0.2290
  104MOL   C26333429   4.561   3.669   4.386 -0.3673 -0.4943 -0.9093
  104MOL   H26433430   4.700   3.723   4.676  1.1181  1.6495 -1.0166
  104MOL   H26533431   4.837   3.612   4.849 -0.5332  0.5370 -0.2121
  104MOL   H26633432   4.936   3.533   4.722  0.7281 -0.6224  2.6590
  104MOL   H26733433   4.781   3.481   4.745  1.9830 -1.1413 -1.6680
  104MOL   H26833434   4.816   3.707   4.440  0.0755 -0.0833  0.2269
  104MOL   H26933435   4.466   3.465   4.519 -0.8300  0.5939  1.8930
  104MOL   H27033436   4.561   3.520   4.659  3.5869 -2.6035  1.2445
  104MOL   H27133437   4.632   3.397   4.565 -0.0150 -0.6239 -0.6748
  104MOL   H27233438   4.610   3.748   4.330  1.3094 -0.0592  1.1242
  104MOL   H27333439   4.456   3.645   4.372 -0.5212 -0.8039  0.6727
  104MOL   C27433440   4.882   3.511   4.449  0.1208 -0.3757 -0.1728
  104MOL   C27533441   5.028   3.556   4.455  0.6688 -0.1581  0.0080
  104MOL   C27633442   4.844   3.450   4.302 -0.7732 -0.0689 -0.0232
  104MOL   C27733443   4.870   3.303   4.298  0.0835 -0.4371 -0.1329
  104MOL   C27833444   4.743   3.225   4.330  0.1909 -0.6807  0.2024
  104MOL   C27933445   4.987   3.238   4.278 -0.1793  0.1730  0.1009
  104MOL   H28033446   4.856   3.425   4.511 -1.5232 -0.0061 -0.3241
  104MOL   H28133447   5.064   3.564   4.558 -2.9395  0.0542  1.3253
  104MOL   H28233448   5.046   3.646   4.396 -0.6685 -1.2797 -2.1611
  104MOL   H28333449   5.094   3.489   4.400  2.9879  1.7611  0.3383
  104MOL   H28433450   4.736   3.459   4.290 -1.0261 -0.2625  1.8339
  104MOL   H28533451   4.735   3.211   4.438 -2.8423 -1.4170 -0.0700
  104MOL   H28633452   4.741   3.126   4.283 -0.0002 -0.1674 -0.8799
  104MOL   H28733453   4.652   3.275   4.299  1.0335  0.8686  0.1806
  104MOL   H28833454   5.077   3.293   4.256 -1.6422  2.7965  0.5114
  104MOL   H28933455   4.999   3.130   4.276  1.7647  0.3826 -0.4751
  104MOL   C29033456   4.903   3.517   4.174 -1.1786  0.5501  0.5756
  104MOL   C29133457   4.881   3.670   4.162  0.3815  0.2723  0.2632
  104MOL   C29233458   4.869   3.439   4.036 -0.6716  1.2969  0.3575
  104MOL   C29333459   5.000   3.423   3.952  0.3265  0.6468 -0.2730
  104MOL   C29433460   5.087   3.541   3.908 -0.0502  0.1174 -0.3224
  104MOL   C29533461   5.056   3.306   3.941 -0.2116 -0.4224 -0.0288
  104MOL   H29633462   5.011   3.508   4.191 -1.1168 -2.0411 -0.7505
  104MOL   H29733463   4.926   3.718   4.249 -1.1643  2.5800 -0.1704
  104MOL   H29833464   4.773   3.688   4.167  0.3697  0.5350 -0.9438
  104MOL   H29933465   4.922   3.701   4.066 -0.2015  1.5270  0.4122
  104MOL   H30033466   4.834   3.339   4.064 -1.3583  0.8165 -2.0776
  104MOL   H30133467   5.099   3.621   3.981 -1.2813 -1.8637  2.1401
  104MOL   H30233468   5.027   3.587   3.829  1.8186  1.3065 -1.0640
  104MOL   H30333469   5.178   3.510   3.857  0.3767  1.1794 -0.2079
  104MOL   H30433470   5.007   3.218   3.981 -1.3669  1.5038  3.0195
  104MOL   H30533471   5.151   3.289   3.893  0.3349  1.6334  0.3141
  104MOL   C30633472   4.746   3.495   3.957 -0.5617  0.6499 -0.5680
  104MOL   C30733473   4.614   3.496   4.047  0.1218 -0.0728 -0.6915
  104MOL   C30833474   4.733   3.416   3.832 -0.4648  0.0159  0.0100
  104MOL   C30933475   4.635   3.486   3.737  0.4180  0.1505 -0.2884
  104MOL   C31033476   4.685   3.613   3.662 -0.1266  0.3430  0.4710
  104MOL   C31133477   4.510   3.441   3.718 -0.1704 -0.3477  0.1519
  104MOL   H31233478   4.781   3.592   3.921 -1.0634  1.4166  0.9801
  104MOL   H31333479   4.530   3.537   3.991 -0.4462  2.2803  1.7760
  104MOL   H31433480   4.599   3.542   4.144  0.5153  1.1109 -1.1806
  104MOL   H31533481   4.586   3.394   4.073  0.3633 -0.1188 -0.6119
  104MOL   H31633482   4.823   3.399   3.773 -0.7119 -0.1543 -0.3194
  104MOL   H31733483   4.631   3.629   3.568  1.2709  0.0459 -0.4012
  104MOL   H31833484   4.790   3.596   3.640 -0.2555  0.0959  0.0307
  104MOL   H31933485   4.676   3.690   3.738 -2.3775  0.7531 -0.1785
  104MOL   H32033486   4.472   3.352   3.766  1.2231 -0.4853  1.0202
  104MOL   H32133487   4.438   3.499   3.662 -0.7141 -1.0388  0.1232
  104MOL   H32233488   4.691   3.317   3.852 -0.3173 -0.0107  0.1836
  105MOL     C133489   4.217   7.775   6.496  0.0199 -0.2630 -0.3812
  105MOL     C233490   4.151   7.637   6.477  0.2956  0.4118 -0.2831
  105MOL     C333491   4.121   0.002   6.457  0.4315  0.7634  0.0310
  105MOL     C433492   4.085   0.021   6.306  0.4228  0.6512  0.0019
  105MOL     C533493   3.955   0.101   6.277 -0.0152  0.3480  0.4425
  105MOL     C633494   4.156   7.852   6.212  0.3065 -0.1738 -0.2389
  105MOL     H733495   4.249   7.781   6.600 -3.5395 -0.6334  0.7817
  105MOL     H833496   4.083   7.637   6.392  0.6374 -1.4458 -0.5651
  105MOL     H933497   4.108   7.603   6.571  2.4983  1.4659  1.1567
  105MOL    H1033498   4.221   7.557   6.454  0.1539  0.4834 -0.9657
  105MOL    H1133499   4.031   7.858   6.506 -1.6355  0.9387 -3.4613
  105MOL    H1233500   3.974   0.208   6.290  3.5124 -0.2579  0.7872
  105MOL    H1333501   3.874   0.062   6.338 -0.7533  0.4055 -0.4835
  105MOL    H1433502   3.914   0.071   6.180  2.1083  1.4153 -0.8300
  105MOL    H1533503   4.249   7.798   6.223  0.4080  0.2202  0.9329
  105MOL    H1633504   4.119   7.859   6.111 -0.5029  2.3745  0.1993
  105MOL    H1733505   4.306   7.774   6.432 -0.5376  0.5089 -1.1884
  105MOL    C1833506   4.168   0.134   6.522  1.0647  0.6995 -0.3571
  105MOL    C1933507   4.325   0.163   6.478  0.0849 -0.6638 -0.3015
  105MOL    C2033508   4.130   0.131   6.686 -0.1959 -0.3371 -0.3646
  105MOL    C2133509   3.977   0.101   6.706  0.2664 -0.4471 -0.6103
  105MOL    C2233510   3.874   0.201   6.642 -0.3333 -0.0025  0.5990
  105MOL    C2333511   3.931   7.883   6.766 -0.2615  0.2906 -0.6709
  105MOL    H2433512   4.106   0.211   6.478 -1.8782 -2.4210 -1.9078
  105MOL    H2533513   4.352   0.254   6.531  1.6823 -1.4722  0.3216
  105MOL    H2633514   4.327   0.180   6.371 -3.2355  1.4817 -0.0746
  105MOL    H2733515   4.392   0.082   6.508 -0.5486 -0.4652  1.7596
  105MOL    H2833516   4.169   0.041   6.735 -3.4555 -1.3972  0.3991
  105MOL    H2933517   3.781   0.194   6.699 -0.0814 -2.5162  0.7586
  105MOL    H3033518   3.861   0.198   6.534 -1.0063  0.9980  0.6415
  105MOL    H3133519   3.911   0.298   6.676  4.3555 -1.7231  0.8372
  105MOL    H3233520   4.002   7.812   6.806 -0.7553  0.8448  1.2543
  105MOL    H3333521   3.832   7.843   6.776  0.4525 -2.0542 -2.5327
  105MOL    C3433522   4.168   0.252   6.777 -0.3368 -0.0462 -0.5446
  105MOL    C3533523   4.192   0.380   6.706  0.4358  0.6042  0.6061
  105MOL    C3633524   4.268   0.220   6.884 -0.2292  0.7321  0.1736
  105MOL    C3733525   4.407   0.175   6.836 -0.2001 -0.1570  0.4939
  105MOL    C3833526   4.503   0.285   6.808  0.1531 -0.2591  0.0987
  105MOL    C3933527   4.445   0.049   6.835 -0.2314 -0.2361  0.9166
  105MOL    H4033528   4.074   0.281   6.823 -1.1655  0.0339 -2.2846
  105MOL    H4133529   4.286   0.399   6.653  0.5478 -0.9322  0.2335
  105MOL    H4233530   4.182   0.461   6.778 -0.8005  0.4867  0.5778
  105MOL    H4333531   4.111   0.406   6.638  0.0896  1.1770  1.2376
  105MOL    H4433532   4.288   0.316   6.931 -0.3690  0.8653 -0.0332
  105MOL    H4533533   4.490   0.360   6.886  1.2665 -0.2636  0.2951
  105MOL    H4633534   4.470   0.332   6.715 -1.1917 -0.7485  0.3173
  105MOL    H4733535   4.605   0.246   6.806 -0.6862 -2.5984  1.0731
  105MOL    H4833536   4.376   7.871   6.879  0.9741 -1.0611  1.5246
  105MOL    H4933537   4.539   0.020   6.790 -0.4351  2.3507 -1.3094
  105MOL    C5033538   4.216   0.145   7.013 -0.2953  0.4487 -0.2889
  105MOL    C5133539   4.088   0.205   7.070 -0.3804  0.0877 -0.0763
  105MOL    C5233540   4.321   0.112   7.118  0.4762  0.5356 -0.1423
  105MOL    C5333541   4.306   7.862   7.174  0.3231  0.3331 -0.1939
  105MOL    C5433542   4.167   7.835   7.237 -0.1342 -0.0193  0.5501
  105MOL    C5533543   4.403   7.772   7.169 -0.2069  0.4997 -0.4411
  105MOL    H5633544   4.185   0.044   6.984  1.0888  0.0750 -0.5494
  105MOL    H5733545   4.048   0.167   7.164 -0.2507 -0.9300 -0.4336
  105MOL    H5833546   4.008   0.190   6.998 -0.4094  1.7279 -0.4253
  105MOL    H5933547   4.096   0.313   7.083 -0.4559  0.2482 -1.3272
  105MOL    H6033548   4.424   0.110   7.080  0.1800 -0.5311 -0.9215
  105MOL    H6133549   4.094   7.800   7.164 -0.0864  2.3129 -0.6579
  105MOL    H6233550   4.128   0.027   7.296  0.6770 -0.1622  1.2967
  105MOL    H6333551   4.180   7.754   7.309 -1.2312  0.2853  1.1111
  105MOL    H6433552   4.499   7.799   7.127 -0.5343 -0.3778 -1.7827
  105MOL    H6533553   4.405   7.666   7.190  1.5575  1.1623  3.1759
  105MOL    C6633554   4.350   0.216   7.234  0.0369  0.0462 -0.0804
  105MOL    C6733555   4.378   0.357   7.179 -0.2455  0.1832 -0.2052
  105MOL    C6833556   4.460   0.170   7.342 -0.7750 -0.2479 -0.6035
  105MOL    C6933557   4.417   0.211   7.487 -1.2204 -0.2648 -0.0505
  105MOL    C7033558   4.334   0.112   7.560 -0.3394  0.0681 -0.1135
  105MOL    C7133559   4.446   0.325   7.552  0.7586 -0.4208  1.2537
  105MOL    H7233560   4.257   0.220   7.291 -0.3330  1.3259 -0.7415
  105MOL    H7333561   4.451   0.377   7.100 -0.3414  0.2624 -0.2740
  105MOL    H7433562   4.405   0.416   7.266  1.0283 -0.1985 -0.3413
  105MOL    H7533563   4.281   0.399   7.151 -0.0927  1.2124  0.7933
  105MOL    H7633564   4.453   0.062   7.339 -0.4192 -0.2499 -2.1094
  105MOL    H7733565   4.297   0.153   7.654  0.1828  1.4368 -0.4968
  105MOL    H7833566   4.395   0.022   7.568 -0.7442 -0.1474  0.6171
  105MOL    H7933567   4.244   0.082   7.506 -0.8679  0.4539  0.5445
  105MOL    H8033568   4.498   0.407   7.505  0.8079 -0.8312  0.5752
  105MOL    H8133569   4.413   0.336   7.654 -1.5088  0.0204  0.5176
  105MOL    C8233570   4.615   0.204   7.310 -0.7706 -0.0003 -0.1876
  105MOL    C8333571   4.672   0.172   7.164 -0.3383  0.0169  0.1325
  105MOL    C8433572   4.716   0.157   7.427  0.0400  0.1823 -0.6129
  105MOL    C8533573   4.834   0.258   7.441 -0.0607 -0.1877 -0.0873
  105MOL    C8633574   4.817   0.370   7.544 -0.6342 -0.1584 -0.4021
  105MOL    C8733575   4.941   0.256   7.359  0.0796  0.6088  0.1220
  105MOL    H8833576   4.621   0.313   7.306  1.6318 -0.1473 -1.2096
  105MOL    H8933577   4.673   0.064   7.153  0.7592 -0.0355  0.6567
  105MOL    H9033578   4.775   0.207   7.153  0.0603 -0.8169  1.2099
  105MOL    H9133579   4.608   0.216   7.087  0.5944 -0.7901 -1.1234
  105MOL    H9233580   4.659   0.172   7.518  1.1870  2.0653 -0.1838
  105MOL    H9333581   4.799   0.327   7.643 -1.0889 -1.1903 -0.9267
  105MOL    H9433582   4.727   0.430   7.527 -0.9170 -0.4489  0.0384
  105MOL    H9533583   4.904   0.435   7.544 -0.1408 -0.8212 -0.5857
  105MOL    H9633584   4.945   0.181   7.281  0.9195 -0.4387  1.1468
  105MOL    H9733585   5.024   0.326   7.362  0.5435  0.0838 -0.2666
  105MOL    C9833586   4.763   0.005   7.429  0.3147  0.5598  0.0802
  105MOL    C9933587   4.647   7.791   7.418 -0.0945  0.2560  0.6325
  105MOL   C10033588   4.874   7.867   7.539  0.1553  0.6282  0.3977
  105MOL   C10133589   4.991   7.793   7.470 -0.4391 -0.6077  0.3997
  105MOL   C10233590   4.978   7.649   7.424  0.1263  0.3930 -0.1832
  105MOL   C10333591   5.104   7.863   7.455  0.1552  0.2263 -0.6226
  105MOL   H10433592   4.809   7.888   7.331 -0.6969  0.5866 -0.4012
  105MOL   H10533593   4.615   7.783   7.314  1.6927  2.3881 -0.1218
  105MOL   H10633594   4.556   7.822   7.470  0.1808 -1.3976  2.1056
  105MOL   H10733595   4.668   7.689   7.448 -0.0736  0.5054  1.4935
  105MOL   H10833596   4.913   0.071   7.569  4.0208 -0.3777 -1.0768
  105MOL   H10933597   4.955   7.578   7.503  0.3514  0.2204 -0.2711
  105MOL   H11033598   5.057   7.599   7.367  0.0377  0.1619 -0.1024
  105MOL   H11133599   4.892   7.649   7.357 -0.4957 -2.0390  0.5753
  105MOL   H11233600   5.099   0.071   7.495  0.8437 -0.2996  0.8177
  105MOL   H11333601   5.192   7.820   7.409  0.1771  0.8022 -1.1250
  105MOL   C11433602   4.820   7.815   7.675 -0.0471  0.4099  0.1101
  105MOL   C11533603   4.704   0.015   7.717  0.1110 -0.0116 -0.2507
  105MOL   C11633604   4.926   7.785   7.783 -0.1573 -0.4511 -0.7083
  105MOL   C11733605   4.891   7.645   7.850 -0.5282 -0.4387  0.6745
  105MOL   C11833606   4.759   7.635   0.033  0.3346  0.3508  0.0667
  105MOL   C11933607   4.969   7.536   7.834 -1.2473  0.4232  0.0688
  105MOL   H12033608   4.782   7.715   7.657  1.1485  0.1648 -1.1112
  105MOL   H12133609   4.620   7.878   7.655  0.8382 -1.0962 -0.7456
  105MOL   H12233610   4.740   0.118   7.711 -0.6626  0.2634 -0.1434
  105MOL   H12333611   4.672   0.004   7.821  0.4745  1.8742  0.0802
  105MOL   H12433612   5.018   7.765   7.729 -0.6357  0.4679 -1.8886
  105MOL   H12533613   4.747   7.535   0.074  0.7354  0.8417  1.4094
  105MOL   H12633614   4.675   7.665   7.863  1.2514  2.1529 -0.3508
  105MOL   H12733615   4.765   7.698   0.122 -1.7820  2.1035 -0.9731
  105MOL   H12833616   5.056   7.550   7.771 -0.8514 -2.4488 -0.0935
  105MOL   H12933617   4.948   7.442   7.883  0.6230  0.2443  0.5645
  105MOL   C13033618   4.954   0.009   7.891  0.2289 -0.1692 -0.3985
  105MOL   C13133619   4.994   0.145   7.824 -0.3554  0.0563  0.3351
  105MOL   C13233620   5.047   7.863   0.124  0.2073  0.4193  0.1949
  105MOL   C13333621   5.012   0.060   0.244  0.1468 -0.6633 -0.0266
  105MOL   C13433622   4.903   0.004   0.339  0.0937 -0.0815  0.2470
  105MOL   C13533623   5.063   0.181   0.263 -0.2107  0.7333  0.1733
  105MOL   H13633624   4.862   0.043   0.045  0.5895 -0.3219  0.4415
  105MOL   H13733625   4.900   0.194   7.795  1.9983  2.6320 -3.4730
  105MOL   H13833626   5.066   0.134   7.743 -0.4564 -0.1932  0.2787
  105MOL   H13933627   5.035   0.228   7.883 -0.5036  1.3529 -1.3418
  105MOL   H14033628   5.021   7.758   0.140  1.8861 -0.2171 -1.0835
  105MOL   H14133629   4.835   0.088   0.352 -0.0134 -0.0625 -0.4137
  105MOL   H14233630   4.958   7.860   0.426  0.2407  2.6095  1.3271
  105MOL   H14333631   4.847   7.820   0.286 -1.4058  0.8758  0.4162
  105MOL   H14433632   5.136   0.224   0.195  1.4182 -1.0984  0.7258
  105MOL   H14533633   5.029   0.249   0.340 -0.0913  0.5521  0.3837
  105MOL   C14633634   5.200   7.850   0.109  0.3172  0.1104  0.9447
  105MOL   C14733635   5.243   7.785   7.873  0.1863 -0.2939 -0.4597
  105MOL   C14833636   5.287   7.809   0.229  0.3906  0.2733  0.3256
  105MOL   C14933637   5.376   0.031   0.284  0.4064 -0.0045 -0.0690
  105MOL   C15033638   5.464   0.092   0.176  0.6966 -0.6477  0.1087
  105MOL   C15133639   5.378   0.071   0.409  0.3323  0.3639 -0.2925
  105MOL   H15233640   5.228   0.061   0.087 -0.0889 -0.1463 -0.8567
  105MOL   H15333641   5.203   7.842   7.789  1.5836 -0.1953 -1.0745
  105MOL   H15433642   5.207   7.682   7.872  1.5569 -0.8008 -3.2700
  105MOL   H15533643   5.351   7.771   7.864  0.0823 -0.5596 -1.3460
  105MOL   H15633644   5.212   7.814   0.308 -3.0870 -0.8275 -2.7609
  105MOL   H15733645   5.437   0.194   0.150 -0.4787 -0.9310  0.2102
  105MOL   H15833646   5.454   0.029   0.088 -1.7599 -0.9051  0.5495
  105MOL   H15933647   5.571   0.095   0.199  0.9343 -0.2320 -1.0273
  105MOL   H16033648   5.305   0.030   0.478 -1.0315 -1.9381 -3.0327
  105MOL   H16133649   5.457   0.140   0.437 -0.8489  1.0750  1.3984
  105MOL   C16233650   5.336   7.657   0.239  0.3831 -0.3827 -0.1010
  105MOL   C16333651   5.210   7.572   0.262 -0.4735  1.1665 -0.0898
  105MOL   C16433652   5.452   7.617   0.346 -0.0805 -0.3411  0.0805
  105MOL   C16533653   5.577   7.698   0.334 -0.7646 -0.0398 -0.3507
  105MOL   C16633654   5.647   7.695   0.199  0.4096  0.1885  0.1598
  105MOL   C16733655   5.630   7.763   0.437 -0.4405 -0.0718 -0.3643
  105MOL   H16833656   5.379   7.633   0.141  1.4239  1.5508 -0.1370
  105MOL   H16933657   5.172   7.578   0.364  0.0953  2.4214  0.0610
  105MOL   H17033658   5.219   7.466   0.240 -2.7984  0.3307  2.6721
  105MOL   H17133659   5.123   7.595   0.202 -2.0958  0.5432  1.9669
  105MOL   H17233660   5.414   7.644   0.444  0.5104  0.2417  0.1475
  105MOL   H17333661   5.587   7.727   0.113 -0.3011 -0.3576  0.4453
  105MOL   H17433662   5.695   7.600   0.176 -0.6268 -0.3231  0.0933
  105MOL   H17533663   5.721   7.775   0.204  0.9683 -0.3226 -0.0213
  105MOL   H17633664   5.581   7.764   0.533  1.5044  1.1708  0.6604
  105MOL   H17733665   5.725   7.815   0.433  0.0797 -0.9021  0.9279
  105MOL   C17833666   5.485   7.467   0.354 -0.0121  0.2106  0.6136
  105MOL   C17933667   5.496   7.397   0.213  0.6216  0.0342  0.1599
  105MOL   C18033668   5.413   7.384   0.463  0.0751  0.4941  0.0687
  105MOL   C18133669   5.424   7.436   0.601  0.3963  0.4347  0.5529
  105MOL   C18233670   5.299   7.419   0.689 -0.0575  0.0881  0.9611
  105MOL   C18333671   5.538   7.492   0.648  1.0116  0.2151  0.6858
  105MOL   H18433672   5.587   7.464   0.391 -0.0217 -1.7232  0.4883
  105MOL   H18533673   5.564   7.312   0.222  1.2223  0.6319  1.4993
  105MOL   H18633674   5.534   7.469   0.141 -0.8245 -0.2061 -0.8478
  105MOL   H18733675   5.397   7.358   0.193  1.0556 -1.4922  0.9261
  105MOL   H18833676   5.312   7.404   0.429  0.6110 -2.0772 -3.3395
  105MOL   H18933677   5.319   7.339   0.760  0.6295  1.1124  1.9326
  105MOL   H19033678   5.216   7.399   0.621 -0.3699 -1.6989  1.8392
  105MOL   H19133679   5.302   7.516   0.738  0.2619  0.5522  0.0272
  105MOL   H19233680   5.624   7.507   0.586  1.3984 -0.1596  1.1237
  105MOL   H19333681   5.541   7.527   0.750 -2.4233  0.9559  0.6024
  105MOL   C19433682   5.437   7.228   0.469  0.1616 -0.1497 -1.1174
  105MOL   C19533683   5.590   7.202   0.481 -0.1767 -0.5050 -0.1095
  105MOL   C19633684   5.362   7.148   0.366  0.1137  1.0718  0.5502
  105MOL   C19733685   5.211   7.171   0.376  0.7438 -0.1155 -0.3425
  105MOL   C19833686   5.137   7.164   0.245 -0.1232 -0.2455  0.0898
  105MOL   C19933687   5.141   7.199   0.488  0.2083  0.4324 -0.1229
  105MOL   H20033688   5.403   7.191   0.566  3.3878 -1.1461 -0.3297
  105MOL   H20133689   5.632   7.291   0.527  1.0594 -0.9216 -0.4302
  105MOL   H20233690   5.641   7.191   0.386  2.2635 -1.5871  1.2754
  105MOL   H20333691   5.619   7.109   0.531  1.0991 -1.6420 -2.8464
  105MOL   H20433692   5.402   7.183   0.271  0.3122  0.4557  0.4005
  105MOL   H20533693   5.077   7.074   0.231 -1.5821  0.9771 -1.8452
  105MOL   H20633694   5.213   7.166   0.167 -1.2718  1.1105 -1.0179
  105MOL   H20733695   5.071   7.247   0.220 -0.6412 -0.5202  0.5303
  105MOL   H20833696   5.184   7.198   0.587 -0.4145 -1.8122  0.1481
  105MOL   H20933697   5.036   7.222   0.489 -0.3895 -2.1931  1.0630
  105MOL   C21033698   5.387   6.986   0.358 -0.3455 -0.6515 -0.5191
  105MOL   C21133699   5.340   6.913   0.493 -0.0949 -0.2294 -1.1290
  105MOL   C21233700   5.527   6.926   0.316  0.3555  0.6842 -0.4005
  105MOL   C21333701   5.580   6.985   0.186  0.0958 -0.5435 -0.0485
  105MOL   C21433702   5.732   6.987   0.166  0.2136 -0.2957 -0.3247
  105MOL   C21533703   5.502   7.031   0.085  0.8546 -0.8595  0.1798
  105MOL   H21633704   5.313   6.952   0.286 -2.6597  1.1293  0.9147
  105MOL   H21733705   5.299   6.813   0.484  2.1215 -1.1385 -1.2745
  105MOL   H21833706   5.253   6.967   0.534 -0.9605 -2.0390 -0.5383
  105MOL   H21933707   5.422   6.905   0.564  0.2393  1.9601 -1.2325
  105MOL   H22033708   5.603   6.963   0.385 -1.3350  2.5538  0.4945
  105MOL   H22133709   5.764   7.049   0.083 -0.3405  0.4668  0.0244
  105MOL   H22233710   5.789   6.894   0.163  1.7458  0.5720  0.8013
  105MOL   H22333711   5.762   7.034   0.260 -0.3020 -0.3748 -0.1170
  105MOL   H22433712   5.394   7.029   0.088  0.8465 -0.1844  0.4055
  105MOL   H22533713   5.545   7.072   7.887 -1.2325  0.9123 -0.0692
  105MOL   C22633714   5.536   6.765   0.317  0.1573  0.0925 -0.1952
  105MOL   C22733715   5.413   6.697   0.253  0.2227  0.2661 -0.6046
  105MOL   C22833716   5.578   6.690   0.451  0.5050  0.1596  0.0266
  105MOL   C22933717   5.701   6.761   0.502  0.1851 -0.3562  0.3054
  105MOL   C23033718   5.704   6.799   0.646  0.5147 -0.5230 -1.0399
  105MOL   C23133719   5.811   6.789   0.419  0.7809 -0.0057  1.1038
  105MOL   H23233720   5.613   6.732   0.247  1.2096  2.4555 -0.2054
  105MOL   H23333721   5.325   6.682   0.315 -0.2741  0.3671 -1.2755
  105MOL   H23433722   5.434   6.595   0.221 -1.4435 -0.9306  2.0039
  105MOL   H23533723   5.389   6.752   0.162 -0.7618  1.5353  0.3994
  105MOL   H23633724   5.503   6.710   0.528 -0.3452 -1.0701 -0.4705
  105MOL   H23733725   5.615   6.851   0.681  1.8156  1.0225  0.1129
  105MOL   H23833726   5.796   6.857   0.660 -0.4471  0.9585 -0.8262
  105MOL   H23933727   5.720   6.715   0.713 -0.0449  0.6352  0.5663
  105MOL   H24033728   5.817   6.750   0.319 -0.7206 -2.6595  1.9918
  105MOL   H24133729   5.901   6.844   0.447  1.6162 -1.5155  1.4281
  105MOL   C24233730   5.604   6.534   0.456  0.1383 -0.1699  0.1496
  105MOL   C24333731   5.688   6.479   0.340  0.2984 -0.0711  0.5076
  105MOL   C24433732   5.475   6.450   0.478  0.0382 -0.1813 -0.0560
  105MOL   C24533733   5.409   6.478   0.611 -0.2643 -0.5457 -1.3898
  105MOL   C24633734   5.268   6.523   0.606  0.2463  0.2435 -0.1047
  105MOL   C24733735   5.482   6.495   0.719 -0.5830 -0.8598 -0.0099
  105MOL   H24833736   5.667   6.503   0.540  1.6290 -3.1793 -1.9578
  105MOL   H24933737   5.735   6.381   0.352  1.0400  0.5728  3.1762
  105MOL   H25033738   5.782   6.534   0.326  0.6572 -0.9014 -0.4008
  105MOL   H25133739   5.623   6.482   0.252  0.3590  0.5250  0.4812
  105MOL   H25233740   5.417   6.498   0.398  0.0828  3.6973  2.1040
  105MOL   H25333741   5.218   6.433   0.570 -1.0551 -0.1103  2.4328
  105MOL   H25433742   5.248   6.591   0.523 -3.1228  0.4020  0.7932
  105MOL   H25533743   5.232   6.576   0.694  3.6815  1.8579  0.4185
  105MOL   H25633744   5.588   6.474   0.731 -0.7573 -1.3236  0.6980
  105MOL   H25733745   5.434   6.530   0.809 -0.3250  1.5540 -0.7554
  105MOL   C25833746   5.479   6.298   0.457 -0.5263  0.3743 -0.0363
  105MOL   C25933747   5.580   6.235   0.554  0.1531  0.4391 -0.2803
  105MOL   C26033748   5.466   6.249   0.301 -0.3204 -0.0153  0.1942
  105MOL   C26133749   5.336   6.300   0.227 -0.1981 -0.0865 -0.1738
  105MOL   C26233750   5.360   6.334   0.080 -0.3398 -0.4234 -1.1046
  105MOL   C26333751   5.213   6.297   0.278 -0.4298 -0.3004 -0.0420
  105MOL   H26433752   5.387   6.257   0.498  0.0782 -0.6938  0.2551
  105MOL   H26533753   5.555   6.248   0.659 -1.6785 -3.7554 -0.1244
  105MOL   H26633754   5.685   6.256   0.531  0.4067 -1.8785 -1.3497
  105MOL   H26733755   5.576   6.126   0.552  0.0421  0.4135  0.8594
  105MOL   H26833756   5.548   6.298   0.249  0.7190 -1.5022  0.4141
  105MOL   H26933757   5.360   6.238   0.028 -2.3437 -2.2811  2.1335
  105MOL   H27033758   5.446   6.397   0.059  0.8675 -2.0191 -1.0276
  105MOL   H27133759   5.272   6.384   0.041 -1.6034 -2.4356 -0.9292
  105MOL   H27233760   5.200   6.262   0.380 -1.8309 -0.8672 -0.4024
  105MOL   H27333761   5.132   6.329   0.215 -2.0038 -1.8989  1.0873
  105MOL   C27433762   5.481   6.099   0.276 -0.0862 -0.4684 -0.6043
  105MOL   C27533763   5.388   6.016   0.370 -0.3460 -0.1219 -0.4446
  105MOL   C27633764   5.619   6.032   0.250 -0.0342 -1.0616 -0.9166
  105MOL   C27733765   5.743   6.122   0.267  0.4923  0.1699 -0.7680
  105MOL   C27833766   5.794   6.194   0.143  0.2830 -0.5066  0.3950
  105MOL   C27933767   5.806   6.119   0.375  0.1090  0.2975 -0.5565
  105MOL   H28033768   5.437   6.085   0.178 -0.0320 -0.7924 -0.5821
  105MOL   H28133769   5.365   5.925   0.314  0.3309 -1.1687  0.9556
  105MOL   H28233770   5.290   6.056   0.396  0.5045  1.7251 -0.0004
  105MOL   H28333771   5.436   5.978   0.460 -2.2979 -2.3551 -0.2975
  105MOL   H28433772   5.630   5.966   0.335  1.6574  0.1125 -0.2015
  105MOL   H28533773   5.710   6.238   0.090 -0.4046 -0.4968  1.4894
  105MOL   H28633774   5.858   6.122   0.091  0.4122 -0.9010  1.0911
  105MOL   H28733775   5.866   6.266   0.182  0.6394  0.0393 -1.2141
  105MOL   H28833776   5.779   6.069   0.466 -0.1500  1.4943  0.0374
  105MOL   H28933777   5.900   6.170   0.386 -0.1046  1.1362 -2.4457
  105MOL   C29033778   5.638   5.935   0.127  0.7966 -0.0497 -0.2417
  105MOL   C29133779   5.514   5.856   0.088 -0.5075 -0.0055 -0.1946
  105MOL   C29233780   5.764   5.837   0.137  0.8138  0.0205  0.1121
  105MOL   C29333781   5.835   5.804   0.004 -0.2669  0.0636 -0.4461
  105MOL   C29433782   5.979   5.743   0.018  0.2883  0.3119  0.8356
  105MOL   C29533783   5.783   5.824   7.775  0.4550 -0.1089 -0.1078
  105MOL   H29633784   5.651   5.992   0.035  1.7432  0.9904  0.5212
  105MOL   H29733785   5.481   5.792   0.170  1.9087  0.3441  1.0993
  105MOL   H29833786   5.533   5.788   0.005 -2.2145 -0.6301 -0.0982
  105MOL   H29933787   5.421   5.899   0.052 -1.0591  0.0720  1.2614
  105MOL   H30033788   5.836   5.906   0.181 -1.1436  3.6625 -2.1685
  105MOL   H30133789   5.960   5.648   0.067 -0.3533 -0.0408 -0.0826
  105MOL   H30233790   6.030   5.813   0.084 -0.2969  1.4478  0.0924
  105MOL   H30333791   6.042   5.734   7.822  2.0426 -0.1717  2.1072
  105MOL   H30433792   5.690   5.872   7.750  1.0130  1.2183  0.3191
  105MOL   H30533793   5.836   5.780   7.692 -0.6068 -1.6170 -0.0136
  105MOL   C30633794   5.738   5.713   0.224  0.2997 -0.1835  0.5104
  105MOL   C30733795   5.857   5.707   0.321 -0.2008 -0.0630 -0.3393
  105MOL   C30833796   5.698   5.586   0.155  0.2019 -0.5372 -0.1168
  105MOL   C30933797   5.608   5.486   0.229  0.5800 -0.5339 -0.6127
  105MOL   C31033798   5.456   5.518   0.231 -0.0750 -0.1216 -0.3874
  105MOL   C31133799   5.661   5.382   0.296 -0.0666  0.0358 -0.1265
  105MOL   H31233800   5.657   5.741   0.291 -0.8851 -2.6431  0.1654
  105MOL   H31333801   5.955   5.688   0.278  0.4988 -2.2642  2.0586
  105MOL   H31433802   5.842   5.624   0.391  1.1928 -0.5953 -0.6561
  105MOL   H31533803   5.860   5.799   0.379  0.4643 -0.2389 -0.0881
  105MOL   H31633804   5.670   5.601   0.051 -1.6719 -2.5552  0.0582
  105MOL   H31733805   5.413   5.524   0.131 -0.1094  0.3724 -0.3435
  105MOL   H31833806   5.442   5.606   0.294 -1.4424  0.2374 -1.1747
  105MOL   H31933807   5.403   5.432   0.271 -0.2203  0.6010  0.9860
  105MOL   H32033808   5.766   5.361   0.303  0.2670  0.9927 -2.0491
  105MOL   H32133809   5.595   5.315   0.351  0.9230  1.2369  2.6349
  105MOL   H32233810   5.781   5.519   0.134 -1.0450 -1.9105 -0.7565
  106MOL     C133811   2.618   0.942   5.422  0.5876 -0.3551  0.9308
  106MOL     C233812   2.769   0.967   5.458 -1.0178  0.2275  0.0824
  106MOL     C333813   2.582   0.948   5.269  0.5982  0.4877  0.4306
  106MOL     C433814   2.564   1.091   5.222 -0.4944  0.2032 -0.0133
  106MOL     C533815   2.450   1.174   5.276  0.2267 -0.3043  0.1443
  106MOL     C633816   2.656   1.142   5.134  0.3157 -0.7591 -0.8335
  106MOL     H733817   2.598   0.841   5.459  0.4427 -0.6290  0.1095
  106MOL     H833818   2.789   0.982   5.564  0.5990 -0.6480 -0.0753
  106MOL     H933819   2.804   1.061   5.415  1.0539  0.2398  1.6889
  106MOL    H1033820   2.842   0.899   5.413 -1.0942  1.0821 -1.3630
  106MOL    H1133821   2.672   0.906   5.225  1.2271 -1.9901  3.8478
  106MOL    H1233822   2.350   1.130   5.272 -0.2937  0.8913 -0.4781
  106MOL    H1333823   2.452   1.270   5.224  1.4700 -0.1566  0.4540
  106MOL    H1433824   2.471   1.204   5.379 -1.1702 -0.2437  0.4243
  106MOL    H1533825   2.742   1.079   5.116  3.1499  2.4736  0.8446
  106MOL    H1633826   2.654   1.242   5.093  2.8452 -0.3362 -0.0002
  106MOL    H1733827   2.543   1.001   5.474 -0.5194 -1.4283  0.5739
  106MOL    C1833828   2.457   0.865   5.213 -0.2810 -0.0604 -0.8851
  106MOL    C1933829   2.437   0.727   5.275  0.1165  0.1960 -0.0061
  106MOL    C2033830   2.458   0.862   5.051  0.0978 -0.4298 -0.5549
  106MOL    C2133831   2.321   0.912   4.996 -0.5024  0.0323  0.3587
  106MOL    C2233832   2.199   0.816   5.001  0.0066  0.1782  0.3160
  106MOL    C2333833   2.307   1.032   4.937 -0.0476  0.5239  0.0266
  106MOL    H2433834   2.363   0.913   5.241  0.3936  0.1426  1.1284
  106MOL    H2533835   2.402   0.736   5.378  2.0459 -0.1279  0.6940
  106MOL    H2633836   2.535   0.681   5.284  1.3555  2.8156  0.2063
  106MOL    H2733837   2.361   0.668   5.223  1.0721  1.6545 -3.1918
  106MOL    H2833838   2.521   0.944   5.015 -0.3865 -0.0191 -0.4788
  106MOL    H2933839   2.211   0.721   4.949 -0.7609 -0.0268  0.5115
  106MOL    H3033840   2.107   0.858   4.962  0.7039 -0.6749 -2.3188
  106MOL    H3133841   2.165   0.795   5.103  0.6214 -0.0055  0.4900
  106MOL    H3233842   2.385   1.107   4.931  0.4676  0.1496  1.7228
  106MOL    H3333843   2.211   1.053   4.893  0.5940 -1.8021 -2.5709
  106MOL    C3433844   2.513   0.730   4.984 -0.1681 -0.3587 -0.0905
  106MOL    C3533845   2.660   0.718   5.033  0.1310 -0.6048  0.1145
  106MOL    C3633846   2.508   0.722   4.833 -0.3284  0.8068 -0.5259
  106MOL    C3733847   2.472   0.582   4.798 -0.8217 -0.7826  0.8796
  106MOL    C3833848   2.580   0.479   4.801  0.4469  0.0544 -0.5502
  106MOL    C3933849   2.358   0.552   4.742  0.3315  0.0016 -0.0613
  106MOL    H4033850   2.463   0.643   5.028 -0.8201 -0.3672 -0.8368
  106MOL    H4133851   2.670   0.696   5.139  1.1160 -2.0908 -0.2733
  106MOL    H4233852   2.718   0.808   5.013  1.2524 -1.7726 -2.0499
  106MOL    H4333853   2.714   0.633   4.989  1.8741 -0.0798  1.2107
  106MOL    H4433854   2.418   0.765   4.789  0.6655  2.9011 -0.5962
  106MOL    H4533855   2.585   0.420   4.709  0.3849 -2.7100  1.1642
  106MOL    H4633856   2.583   0.406   4.882  2.7656 -1.3389 -1.8222
  106MOL    H4733857   2.677   0.526   4.821 -0.8133  1.5493  2.2932
  106MOL    H4833858   2.285   0.629   4.718  0.8362  0.3617 -0.4687
  106MOL    H4933859   2.329   0.450   4.724 -3.2870  1.3959 -2.8813
  106MOL    C5033860   2.624   0.781   4.743  0.6441 -0.2976 -0.0926
  106MOL    C5133861   2.632   0.934   4.764  0.3571  0.5391 -0.3784
  106MOL    C5233862   2.619   0.740   4.589  0.7092 -0.2845  0.8089
  106MOL    C5333863   2.764   0.726   4.539 -0.6118  0.4669  0.1691
  106MOL    C5433864   2.813   0.578   4.542 -0.5984  0.4179  0.0142
  106MOL    C5533865   2.845   0.825   4.500  0.3159 -0.6268  0.1868
  106MOL    H5633866   2.712   0.739   4.791  0.8262  0.9485  0.6721
  106MOL    H5733867   2.675   0.960   4.860 -0.7694  0.9184  0.0251
  106MOL    H5833868   2.534   0.980   4.755  1.5004  2.9366 -0.9156
  106MOL    H5933869   2.689   0.979   4.682  1.5427  1.6950  1.0625
  106MOL    H6033870   2.589   0.635   4.588 -4.0931  0.9815 -1.7052
  106MOL    H6133871   2.789   0.534   4.639  0.3531 -0.0581  0.0463
  106MOL    H6233872   2.920   0.572   4.523 -0.6033  0.5922 -0.0644
  106MOL    H6333873   2.767   0.522   4.461 -0.0630  0.7950 -0.5543
  106MOL    H6433874   2.823   0.931   4.498 -0.3111 -0.7335  1.3643
  106MOL    H6533875   2.936   0.787   4.456  1.1530  0.3878  1.0244
  106MOL    C6633876   2.528   0.825   4.487  0.0460  0.3093 -0.8535
  106MOL    C6733877   2.385   0.839   4.535  0.9797 -0.1988  0.1270
  106MOL    C6833878   2.541   0.776   4.339  0.3589 -0.5168  0.3397
  106MOL    C6933879   2.533   0.898   4.247  0.6958 -0.1746 -0.6056
  106MOL    C7033880   2.661   0.981   4.227  0.2405  0.7039  0.2461
  106MOL    C7133881   2.418   0.934   4.194  0.7828 -0.8469 -0.1709
  106MOL    H7233882   2.571   0.925   4.494  1.0764 -0.1769 -0.0239
  106MOL    H7333883   2.331   0.882   4.451  3.2955  1.3338 -0.6402
  106MOL    H7433884   2.371   0.896   4.627 -1.1976 -0.2703 -0.1407
  106MOL    H7533885   2.330   0.748   4.557  1.2985 -0.4306 -0.0420
  106MOL    H7633886   2.642   0.734   4.335  0.8436  0.4055  2.4125
  106MOL    H7733887   2.745   0.912   4.218  0.3361  0.1539  4.4550
  106MOL    H7833888   2.666   1.050   4.311 -2.8217  0.6464  0.5290
  106MOL    H7933889   2.650   1.039   4.136  0.5595 -0.5666 -0.6097
  106MOL    H8033890   2.325   0.883   4.214  0.1443  0.4339  0.1931
  106MOL    H8133891   2.421   1.020   4.129  0.0767 -1.4075 -0.9562
  106MOL    C8233892   2.451   0.651   4.300 -0.4739 -0.4167  0.7412
  106MOL    C8333893   2.459   0.529   4.395  0.0793 -0.3847  0.1649
  106MOL    C8433894   2.463   0.597   4.144 -0.3831 -0.1263 -0.6342
  106MOL    C8533895   2.584   0.641   4.063  0.0559 -0.1005  0.2412
  106MOL    C8633896   2.716   0.567   4.076  0.3943 -0.2065 -0.6232
  106MOL    C8733897   2.584   0.751   3.989 -0.7578 -0.1628  0.3771
  106MOL    H8833898   2.350   0.688   4.315 -0.4679  0.3417 -0.8801
  106MOL    H8933899   2.563   0.497   4.397  0.1207 -0.1331  2.3108
  106MOL    H9033900   2.413   0.440   4.351  1.1989 -0.6686 -0.4655
  106MOL    H9133901   2.424   0.544   4.497  0.4344 -0.4973  0.3036
  106MOL    H9233902   2.491   0.492   4.153  0.2725  0.0916 -0.1242
  106MOL    H9333903   2.742   0.558   4.181  0.0398 -1.5077 -0.6279
  106MOL    H9433904   2.792   0.629   4.029  0.3400  0.9494  0.7803
  106MOL    H9533905   2.721   0.468   4.031 -0.6842 -0.0256 -1.1563
  106MOL    H9633906   2.496   0.812   3.973  0.2816  1.2935  0.1028
  106MOL    H9733907   2.678   0.785   3.949 -0.8527 -0.6150 -0.2290
  106MOL    C9833908   2.326   0.594   4.071  0.2713  1.1026 -0.6127
  106MOL    C9933909   2.221   0.514   4.156  0.2229 -0.6670 -0.1004
  106MOL   C10033910   2.322   0.552   3.920 -0.5944 -0.1181 -0.6832
  106MOL   C10133911   2.228   0.633   3.835  0.0784 -0.2963 -0.0620
  106MOL   C10233912   2.079   0.634   3.875 -0.3019 -0.4772 -0.0019
  106MOL   C10333913   2.262   0.694   3.721 -0.0424  0.0764 -0.4389
  106MOL   H10433914   2.291   0.697   4.077 -2.0084  0.2746  1.1532
  106MOL   H10533915   2.121   0.524   4.113  1.3871  2.0455 -2.3125
  106MOL   H10633916   2.196   0.561   4.251  0.8509  0.5494 -0.5384
  106MOL   H10733917   2.235   0.410   4.186 -0.1172 -0.1012  2.0927
  106MOL   H10833918   2.421   0.578   3.881  0.2164 -0.4833  1.0932
  106MOL   H10933919   2.043   0.531   3.873  2.0064 -1.3578  1.2581
  106MOL   H11033920   2.016   0.692   3.808  0.6570 -0.2431 -0.7152
  106MOL   H11133921   2.060   0.686   3.969  0.8711  1.3603 -0.7502
  106MOL   H11233922   2.363   0.700   3.683  0.0232  1.1761 -0.1162
  106MOL   H11333923   2.183   0.737   3.661 -0.7930 -0.8185 -0.1033
  106MOL   C11433924   2.307   0.393   3.905  0.7885 -0.2257 -0.3190
  106MOL   C11533925   2.413   0.317   3.985 -0.6563 -0.5752  0.2632
  106MOL   C11633926   2.290   0.333   3.762 -0.3093 -0.5114 -1.0599
  106MOL   C11733927   2.174   0.230   3.759 -0.4971  0.7439  0.8118
  106MOL   C11833928   2.197   0.102   3.829  0.5212 -0.2327  0.2702
  106MOL   C11933929   2.055   0.263   3.705 -0.1737 -0.4523 -0.1594
  106MOL   H12033930   2.208   0.375   3.947  1.1218  0.3654  0.7508
  106MOL   H12133931   2.516   0.351   3.974 -1.1547 -0.0846 -3.4321
  106MOL   H12233932   2.419   0.209   3.971  0.3899 -0.7273  1.7169
  106MOL   H12333933   2.384   0.324   4.090  0.9798  1.3640  0.6299
  106MOL   H12433934   2.249   0.414   3.703 -1.4008  0.6981  1.2727
  106MOL   H12533935   2.108   0.039   3.829  1.3112 -1.3736 -1.3691
  106MOL   H12633936   2.212   0.114   3.937  0.8806  0.8256  0.1075
  106MOL   H12733937   2.292   0.061   3.798  0.1811  0.5087 -1.7879
  106MOL   H12833938   2.044   0.355   3.649 -0.0694 -0.0459  0.4846
  106MOL   H12933939   1.974   0.192   3.714 -1.8729  1.6271  1.6697
  106MOL   C13033940   2.412   0.279   3.685  0.3700 -0.0246  0.1295
  106MOL   C13133941   2.511   0.388   3.667  0.4136 -0.4296  0.1974
  106MOL   C13233942   2.395   0.186   3.555 -0.7981  0.1949 -0.1760
  106MOL   C13333943   2.514   0.083   3.540  0.2343  0.8852  0.0205
  106MOL   C13433944   2.519   7.854   3.637 -0.0474 -1.0461 -0.2609
  106MOL   C13533945   2.617   0.104   3.450 -0.1308 -0.6649 -1.0171
  106MOL   H13633946   2.460   0.211   3.755  0.1177 -0.7224 -0.3698
  106MOL   H13733947   2.585   0.364   3.591  0.0772  2.8332 -1.2350
  106MOL   H13833948   2.568   0.404   3.758  0.5734 -0.7642  0.1581
  106MOL   H13933949   2.463   0.478   3.629  3.0903  1.0534  0.1705
  106MOL   H14033950   2.311   0.118   3.571 -1.4979  1.4615  1.7048
  106MOL   H14133951   2.503   7.883   3.741 -0.2593  1.7482 -1.0391
  106MOL   H14233952   2.612   7.798   3.628  0.1994 -0.7300  0.3049
  106MOL   H14333953   2.432   7.791   3.617 -0.7689 -0.0430 -0.2786
  106MOL   H14433954   2.623   0.187   3.382 -1.4440 -1.3518 -1.9906
  106MOL   H14533955   2.702   0.038   3.444  2.5175  2.6246 -0.5257
  106MOL   C14633956   2.344   0.262   3.422  0.4605 -0.5220  0.0301
  106MOL   C14733957   2.279   0.402   3.434  0.5969  0.6535  0.2927
  106MOL   C14833958   2.239   0.176   3.343  0.0784 -0.6679  0.1804
  106MOL   C14933959   2.291   0.037   3.309 -0.5891  0.2457  0.6575
  106MOL   C15033960   2.205   7.819   3.367  0.6697  0.0547 -0.1577
  106MOL   C15133961   2.391   0.019   3.223  0.3040  0.4932  0.4599
  106MOL   H15233962   2.436   0.276   3.364  0.5711  0.2990  0.3937
  106MOL   H15333963   2.352   0.465   3.484  1.0443 -0.8659  1.5939
  106MOL   H15433964   2.189   0.402   3.497 -0.1673  1.2552 -0.7957
  106MOL   H15533965   2.274   0.441   3.333  2.4687  0.1328 -0.0213
  106MOL   H15633966   2.165   0.162   3.421  0.7981 -0.3664  0.9319
  106MOL   H15733967   2.253   7.722   3.358  0.9987  0.4975 -3.5196
  106MOL   H15833968   2.109   7.803   3.317 -0.7226  1.2741  2.0456
  106MOL   H15933969   2.190   7.825   3.475 -1.7538  0.5034 -0.4931
  106MOL   H16033970   2.457   0.094   3.180  3.1314 -2.4681 -0.5154
  106MOL   H16133971   2.419   7.812   3.193  1.2755 -0.1097  3.2013
  106MOL   C16233972   2.163   0.239   3.220 -0.0187 -0.0761  0.4025
  106MOL   C16333973   2.253   0.307   3.117 -0.1910 -0.6428  0.1089
  106MOL   C16433974   2.028   0.319   3.244  0.3599  0.0082  0.5543
  106MOL   C16533975   1.933   0.261   3.348  0.8067 -0.6840 -0.2230
  106MOL   C16633976   1.859   0.358   3.438  0.7623  0.3616  1.3919
  106MOL   C16733977   1.901   0.130   3.340  0.4362 -0.2838  0.0574
  106MOL   H16833978   2.133   0.151   3.164 -2.3319  0.3576  0.8984
  106MOL   H16933979   2.201   0.323   3.022 -1.1644 -1.6884  0.4587
  106MOL   H17033980   2.337   0.246   3.084  0.7588  0.8904 -0.3778
  106MOL   H17133981   2.302   0.402   3.139 -0.1788 -1.2839  2.8941
  106MOL   H17233982   2.056   0.416   3.283 -1.4006  1.1109 -0.8291
  106MOL   H17333983   1.924   0.441   3.466  1.3423  1.3889 -2.6810
  106MOL   H17433984   1.829   0.300   3.526 -0.5917 -2.9121 -1.1640
  106MOL   H17533985   1.771   0.403   3.391  1.5411  0.7345  0.2915
  106MOL   H17633986   1.955   0.065   3.272 -0.5956  0.3612 -1.4087
  106MOL   H17733987   1.833   0.087   3.412  3.0262 -2.8028  1.0967
  106MOL   C17833988   1.937   0.366   3.124 -0.0216 -0.4917 -0.5435
  106MOL   C17933989   1.910   0.246   3.025  0.2194 -0.7674  0.0691
  106MOL   C18033990   1.991   0.505   3.070 -0.5025 -0.0861 -0.3479
  106MOL   C18133991   1.935   0.614   3.160 -0.0425  0.4083  0.0393
  106MOL   C18233992   2.034   0.685   3.253  0.7729  1.1248  0.0330
  106MOL   C18333993   1.803   0.639   3.170  0.0049 -0.7142 -0.3182
  106MOL   H18433994   1.836   0.384   3.160  0.4399 -0.3605  0.7214
  106MOL   H18533995   1.998   0.196   2.985  0.3010  0.4441 -1.2892
  106MOL   H18633996   1.853   0.268   2.935  1.9720 -0.9035 -1.0967
  106MOL   H18733997   1.860   0.161   3.073 -1.5086  0.0440 -0.2486
  106MOL   H18833998   2.099   0.504   3.081 -0.6847 -0.3529  1.6163
  106MOL   H18933999   2.043   0.784   3.207 -0.2555  1.0008 -0.4480
  106MOL   H19034000   2.134   0.640   3.249  0.7668  1.0019  1.1146
  106MOL   H19134001   1.987   0.689   3.351 -0.0101 -2.8456 -0.0945
  106MOL   H19234002   1.728   0.580   3.119  0.5447 -1.1506 -0.6204
  106MOL   H19334003   1.759   0.718   3.229  0.1293 -0.7095 -0.2319
  106MOL   C19434004   1.978   0.538   2.912  0.7384 -0.1273  0.2282
  106MOL   C19534005   2.054   0.450   2.819  0.9606  0.0723 -0.2844
  106MOL   C19634006   1.973   0.692   2.873  0.2766  0.1714 -0.4512
  106MOL   C19734007   1.880   0.698   2.749  0.4117  0.9465  0.3472
  106MOL   C19834008   1.732   0.719   2.777 -0.6719  0.6562 -0.8803
  106MOL   C19934009   1.927   0.685   2.624 -1.0087  0.6195 -0.0056
  106MOL   H20034010   1.877   0.508   2.885  0.9654  0.1614 -0.9467
  106MOL   H20134011   2.048   0.347   2.857 -2.2665  0.5674  0.6904
  106MOL   H20234012   2.151   0.486   2.785 -0.1970  0.5466 -3.2543
  106MOL   H20334013   2.012   0.455   2.719  1.5158 -1.0909 -0.5857
  106MOL   H20434014   1.920   0.757   2.942  1.5171  1.9544 -1.1432
  106MOL   H20534015   1.702   0.633   2.837  0.5049  0.3931 -0.6634
  106MOL   H20634016   1.668   0.722   2.689  0.7467 -0.8840 -2.0014
  106MOL   H20734017   1.711   0.810   2.833  3.8597  0.0265  2.1145
  106MOL   H20834018   2.033   0.666   2.612 -0.9778  0.4175  0.5549
  106MOL   H20934019   1.864   0.687   2.536 -0.2757  0.8255 -0.5328
  106MOL   C21034020   2.112   0.766   2.835 -0.3361 -0.0155 -0.3335
  106MOL   C21134021   2.219   0.759   2.943 -0.4338  0.2218 -0.7606
  106MOL   C21234022   2.109   0.915   2.781  0.2317  0.9741  0.2166
  106MOL   C21334023   2.229   0.922   2.686  0.0386  0.0987  0.1469
  106MOL   C21434024   2.206   0.878   2.539 -0.0885 -0.1285  0.4736
  106MOL   C21534025   2.350   0.966   2.724 -0.1621 -0.2114  0.1493
  106MOL   H21634026   2.154   0.695   2.762  1.4435  1.0341 -0.3501
  106MOL   H21734027   2.183   0.802   3.037  0.8857  0.7983 -0.5180
  106MOL   H21834028   2.303   0.821   2.914  0.3941 -1.1871 -1.3698
  106MOL   H21934029   2.257   0.660   2.966 -0.4321  0.4686  0.3474
  106MOL   H22034030   2.025   0.916   2.711  1.9987 -0.3138 -1.9691
  106MOL   H22134031   2.210   0.769   2.536 -0.6425 -0.1855  1.4197
  106MOL   H22234032   2.288   0.910   2.476  0.4774 -0.6009  0.9570
  106MOL   H22334033   2.108   0.912   2.506  0.8149  3.0474  0.8815
  106MOL   H22434034   2.361   1.005   2.824 -2.0766  0.3195  0.1794
  106MOL   H22534035   2.430   0.968   2.652 -1.4091 -0.0222 -1.2497
  106MOL   C22634036   2.077   1.042   2.878 -0.1900 -0.8872  0.4223
  106MOL   C22734037   1.964   1.027   2.986  0.0042  0.4124  0.7417
  106MOL   C22834038   2.075   1.178   2.807 -0.3459 -0.1160 -0.2080
  106MOL   C22934039   2.129   1.288   2.903  0.3603  0.4445  0.8214
  106MOL   C23034040   2.276   1.322   2.891 -0.1822 -0.2192 -0.6159
  106MOL   C23134041   2.060   1.352   2.998  0.0331  0.2375  1.2923
  106MOL   H23234042   2.165   1.044   2.942 -0.5244  1.5931  0.8415
  106MOL   H23334043   1.872   0.991   2.940 -0.6456  0.8422  1.6969
  106MOL   H23434044   1.952   1.108   3.058  1.0629  0.0530  1.3457
  106MOL   H23534045   1.993   0.943   3.051 -0.2347  0.7771  1.3217
  106MOL   H23634046   2.151   1.175   2.728  1.1933  2.3975  1.1218
  106MOL   H23734047   2.304   1.371   2.797 -0.4077  2.5294  0.6946
  106MOL   H23834048   2.350   1.243   2.907  0.7675  1.0387  1.4330
  106MOL   H23934049   2.306   1.400   2.962 -0.1763  0.6189 -1.5265
  106MOL   H24034050   1.957   1.319   3.011 -0.0040  0.3214  1.2064
  106MOL   H24134051   2.106   1.428   3.059 -0.9984  1.8287  0.1393
  106MOL   C24234052   1.941   1.222   2.742  0.2187 -0.1633  0.7116
  106MOL   C24334053   1.881   1.116   2.645 -0.2840  0.3929 -0.2443
  106MOL   C24434054   1.928   1.371   2.683 -0.6307  0.1091 -0.3683
  106MOL   C24534055   1.787   1.419   2.682 -0.1322 -0.5956 -0.3489
  106MOL   C24634056   1.747   1.499   2.812 -0.1499  0.4409 -0.3613
  106MOL   C24734057   1.705   1.426   2.571 -0.1528  0.1908 -0.2969
  106MOL   H24834058   1.879   1.210   2.830  1.1895 -1.4343  1.2322
  106MOL   H24934059   1.842   1.034   2.705 -0.8285  0.7525 -0.1037
  106MOL   H25034060   1.957   1.082   2.575 -0.2439 -0.7021  0.3163
  106MOL   H25134061   1.805   1.162   2.581 -0.8441 -1.5496 -1.0206
  106MOL   H25234062   1.977   1.442   2.750  2.9830 -3.0542  0.4966
  106MOL   H25334063   1.827   1.489   2.886 -1.0455 -2.4254  0.2963
  106MOL   H25434064   1.655   1.457   2.853 -0.1706 -0.7446 -1.6092
  106MOL   H25534065   1.730   1.605   2.795  3.1117  1.0472 -0.1970
  106MOL   H25634066   1.738   1.388   2.476 -0.6290  0.1764 -0.4567
  106MOL   H25734067   1.609   1.475   2.565 -1.3624 -1.9769  0.8790
  106MOL   C25834068   2.000   1.395   2.547 -0.1894 -0.3011 -0.5282
  106MOL   C25934069   2.143   1.335   2.524  0.3138  0.0673 -0.8555
  106MOL   C26034070   1.991   1.542   2.491  0.0048  0.0619  0.2587
  106MOL   C26134071   1.962   1.557   2.341 -0.5395 -0.1898  0.2882
  106MOL   C26234072   2.084   1.531   2.247  0.7185  0.6529  0.5470
  106MOL   C26334073   1.840   1.588   2.293 -0.5634 -0.1243  0.5691
  106MOL   H26434074   1.942   1.346   2.469 -0.1544 -0.4832 -0.4399
  106MOL   H26534075   2.199   1.374   2.440 -0.1171  2.8612  0.1059
  106MOL   H26634076   2.139   1.227   2.511 -3.5876 -0.0138  0.3312
  106MOL   H26734077   2.217   1.342   2.604  0.1671 -0.7072 -0.6533
  106MOL   H26834078   1.900   1.583   2.535  1.3409  0.4500  2.6891
  106MOL   H26934079   2.182   1.575   2.264  0.7218  0.8368  0.0554
  106MOL   H27034080   2.071   1.564   2.144  1.6631 -0.1914  0.1521
  106MOL   H27134081   2.089   1.423   2.246 -1.7669  0.5031 -1.5826
  106MOL   H27234082   1.753   1.605   2.355 -0.1520  2.1079  0.5813
  106MOL   H27334083   1.818   1.608   2.189 -0.0503  3.9829  1.1582
  106MOL   C27434084   2.100   1.643   2.548  0.4149 -0.6648 -0.4128
  106MOL   C27534085   2.127   1.635   2.695 -0.8532  0.3632  0.5695
  106MOL   C27634086   2.100   1.783   2.490  0.1795  0.3603 -0.6915
  106MOL   C27734087   2.243   1.850   2.496 -0.0964  0.2900  0.0418
  106MOL   C27834088   2.320   1.847   2.366 -0.2515 -0.2410 -0.0038
  106MOL   C27934089   2.288   1.924   2.597 -0.4319 -0.0558 -0.3826
  106MOL   H28034090   2.197   1.610   2.513  0.9591  0.3695  0.0807
  106MOL   H28134091   2.194   1.708   2.740 -0.5077  1.8716 -2.2485
  106MOL   H28234092   2.162   1.540   2.735 -1.1103 -0.5767 -1.3558
  106MOL   H28334093   2.034   1.661   2.746 -0.1537  2.1777  0.9551
  106MOL   H28434094   2.067   1.776   2.386 -1.7298 -1.3768  0.0077
  106MOL   H28534095   2.332   1.747   2.323 -1.1275 -0.1024 -0.5880
  106MOL   H28634096   2.414   1.902   2.375  0.0823 -1.0814  1.8615
  106MOL   H28734097   2.263   1.891   2.284 -0.4421 -2.9945 -1.4110
  106MOL   H28834098   2.241   1.942   2.693 -3.5582  0.5644 -1.9739
  106MOL   H28934099   2.383   1.972   2.580 -1.0796  1.0740 -0.8066
  106MOL   C29034100   1.994   1.888   2.562 -0.1293  0.1465  0.2631
  106MOL   C29134101   1.852   1.823   2.592 -0.3214 -0.1197 -0.1916
  106MOL   C29234102   1.990   2.031   2.492  0.3069  0.3984  0.1992
  106MOL   C29334103   1.999   2.137   2.605 -0.4680  0.1851 -0.0595
  106MOL   C29434104   1.878   2.155   2.689 -0.4637 -0.0266  0.4269
  106MOL   C29534105   2.099   2.222   2.624 -0.7545  0.3131  0.7689
  106MOL   H29634106   2.030   1.896   2.664  0.6257  0.0553  0.0130
  106MOL   H29734107   1.828   1.767   2.501 -0.5228 -0.9311  0.3540
  106MOL   H29834108   1.770   1.889   2.617  0.1296  0.6703 -0.7791
  106MOL   H29934109   1.861   1.750   2.673  0.0019 -0.4999 -0.5620
  106MOL   H30034110   2.077   2.035   2.426 -0.1988 -2.1726 -0.7101
  106MOL   H30134111   1.835   2.060   2.721 -1.6542  0.4224  0.2041
  106MOL   H30234112   1.805   2.211   2.630 -0.4958 -1.3769 -0.8642
  106MOL   H30334113   1.885   2.221   2.775 -0.7816 -0.3328  0.6860
  106MOL   H30434114   2.175   2.220   2.546 -0.7009  0.8494  0.8012
  106MOL   H30534115   2.108   2.296   2.703  1.1907  3.1290 -1.9312
  106MOL   C30634116   1.867   2.067   2.393  0.1796  0.4968  0.9914
  106MOL   C30734117   1.864   1.971   2.272 -0.4701 -0.4954 -1.3293
  106MOL   C30834118   1.877   2.209   2.335 -0.3051 -0.3150  0.5483
  106MOL   C30934119   1.746   2.256   2.280 -0.2622 -0.4386  0.6364
  106MOL   C31034120   1.643   2.309   2.378  0.9124 -0.8080 -0.0963
  106MOL   C31134121   1.727   2.263   2.141 -0.9630 -0.1943 -0.7911
  106MOL   H31234122   1.771   2.070   2.445 -0.8820  0.5824 -0.9354
  106MOL   H31334123   1.965   1.971   2.233  0.1834 -0.8723  0.3177
  106MOL   H31434124   1.802   2.005   2.189  0.0481  0.5450 -1.2901
  106MOL   H31534125   1.837   1.869   2.302 -1.2523  0.3704  1.0635
  106MOL   H31634126   1.909   2.281   2.411  0.5097 -0.2466  0.1548
  106MOL   H31734127   1.683   2.387   2.442  1.5647 -1.1087 -0.1355
  106MOL   H31834128   1.615   2.226   2.443 -0.4100 -0.7731 -0.6068
  106MOL   H31934129   1.557   2.336   2.317  0.1993 -2.5112  0.1067
  106MOL   H32034130   1.802   2.223   2.075 -1.9451 -3.3665 -0.0757
  106MOL   H32134131   1.634   2.302   2.103 -0.7920  1.5928  0.5163
  106MOL   H32234132   1.953   2.220   2.256  0.0274 -0.2084  0.8807
  107MOL     C134133   1.969   5.746   5.498 -1.0972  0.2599  0.3945
  107MOL     C234134   2.020   5.618   5.453  0.1954  0.4450  0.4307
  107MOL     C334135   2.050   5.876   5.454 -0.6539 -0.1758  0.0599
  107MOL     C434136   2.191   5.867   5.514  0.1016  0.1479  0.2961
  107MOL     C534137   2.194   5.851   5.660  0.7313 -0.3941 -0.1541
  107MOL     C634138   2.305   5.876   5.445 -0.3472  0.2220  0.0233
  107MOL     H734139   1.873   5.751   5.446 -0.0102 -1.4385 -1.8496
  107MOL     H834140   2.012   5.594   5.347 -2.0305 -0.6945  0.8044
  107MOL     H934141   1.977   5.533   5.507 -0.3551  1.9333  2.3921
  107MOL    H1034142   2.128   5.603   5.462 -0.0435 -0.5168  1.9704
  107MOL    H1134143   2.063   5.868   5.346 -1.4126 -0.9522  0.0236
  107MOL    H1234144   2.134   5.931   5.704 -0.8347 -0.8261 -1.4681
  107MOL    H1334145   2.288   5.856   5.715  0.6598  2.6052 -0.2144
  107MOL    H1434146   2.150   5.756   5.690 -2.2269  1.5652  2.0264
  107MOL    H1534147   2.308   5.889   5.338 -3.1541 -1.6347 -0.3382
  107MOL    H1634148   2.402   5.865   5.491 -0.5317 -2.1217 -0.0945
  107MOL    H1734149   1.958   5.744   5.606  1.4451  1.2486  0.7105
  107MOL    C1834150   1.975   6.007   5.494  0.4448 -0.0147 -0.4000
  107MOL    C1934151   1.827   6.006   5.464  0.2622  0.1278 -0.1310
  107MOL    C2034152   2.042   6.145   5.457  0.0130  0.2204 -0.1314
  107MOL    C2134153   2.030   6.250   5.576  0.1009  0.0627  0.1006
  107MOL    C2234154   2.148   6.252   5.677 -0.3533  0.3549 -0.3564
  107MOL    C2334155   1.937   6.348   5.586  0.2433  0.1179  0.5925
  107MOL    H2434156   1.978   6.014   5.603  0.3127  0.3877 -0.4228
  107MOL    H2534157   1.782   5.930   5.529 -0.1208 -0.0158 -0.5565
  107MOL    H2634158   1.816   5.970   5.361  2.2903 -3.3688  0.7793
  107MOL    H2734159   1.777   6.098   5.493 -1.1892 -0.7806  0.3599
  107MOL    H2834160   2.145   6.111   5.451  0.7398  2.1687  1.1734
  107MOL    H2934161   2.141   6.167   5.744  0.1016  1.0739  0.6023
  107MOL    H3034162   2.168   6.345   5.730 -3.1051  0.0753  1.2886
  107MOL    H3134163   2.237   6.239   5.615 -0.7231  0.8220 -1.0013
  107MOL    H3234164   1.853   6.360   5.519  0.6315  0.7334  0.2139
  107MOL    H3334165   1.950   6.423   5.663  0.2457  1.1571 -0.4123
  107MOL    C3434166   2.015   6.200   5.312  0.2643 -0.7921  0.6953
  107MOL    C3534167   2.031   6.096   5.207  0.1240 -0.2999 -0.3706
  107MOL    C3634168   2.073   6.343   5.279  0.5948 -0.6422  0.1676
  107MOL    C3734169   1.971   6.416   5.193 -0.2054  0.1819 -0.4900
  107MOL    C3834170   1.854   6.481   5.256  0.3676  0.4878  0.8620
  107MOL    C3934171   1.978   6.428   5.055 -0.4877  0.5614 -0.6435
  107MOL    H4034172   1.908   6.220   5.297  0.6117  1.3713  0.8565
  107MOL    H4134173   2.127   6.046   5.202 -0.2811 -0.9355 -1.7575
  107MOL    H4234174   2.018   6.143   5.110  0.0766  1.9135  0.6631
  107MOL    H4334175   1.952   6.021   5.209  0.9355 -1.2919 -3.2230
  107MOL    H4434176   2.077   6.400   5.372 -0.9969  0.3079 -0.3215
  107MOL    H4534177   1.807   6.565   5.205 -1.0683  0.1091  1.5094
  107MOL    H4634178   1.889   6.515   5.354 -2.7588 -2.3480  3.1068
  107MOL    H4734179   1.784   6.404   5.291  0.5147  1.5093  3.5300
  107MOL    H4834180   2.053   6.377   4.997 -1.3104  0.3511 -1.5334
  107MOL    H4934181   1.897   6.481   5.007  0.9578  2.6010 -0.8762
  107MOL    C5034182   2.215   6.352   5.222 -0.0981 -0.2362 -0.1810
  107MOL    C5134183   2.317   6.264   5.299 -1.1724 -0.9065  0.3415
  107MOL    C5234184   2.269   6.508   5.206 -0.5512 -0.6897  0.0901
  107MOL    C5334185   2.336   6.530   5.072  0.0467  0.0711 -0.2877
  107MOL    C5434186   2.476   6.468   5.065 -0.4405  0.1852 -0.3351
  107MOL    C5534187   2.286   6.601   4.974  0.3059  0.4829  0.4008
  107MOL    H5634188   2.212   6.319   5.118 -0.5682  0.3116 -0.3422
  107MOL    H5734189   2.340   6.300   5.399  2.6997 -2.4787  0.1077
  107MOL    H5834190   2.404   6.259   5.233  0.6464  0.6751  2.5527
  107MOL    H5934191   2.283   6.160   5.301 -3.4705 -0.2344 -1.6079
  107MOL    H6034192   2.180   6.570   5.190  0.1946  0.2431 -0.4790
  107MOL    H6134193   2.535   6.514   4.985  0.3831 -1.3318 -0.6283
  107MOL    H6234194   2.468   6.364   5.033 -0.0714 -0.0426  0.2991
  107MOL    H6334195   2.541   6.465   5.153 -1.0297  0.3165  0.1035
  107MOL    H6434196   2.188   6.646   4.975  0.7086  1.4359 -1.0631
  107MOL    H6534197   2.340   6.624   4.883  0.6756 -1.0840  0.2053
  107MOL    C6634198   2.342   6.566   5.336  0.4051  0.1826 -0.2110
  107MOL    C6734199   2.245   6.569   5.458  0.1353  0.1179  0.4343
  107MOL    C6834200   2.427   6.699   5.312  0.2828  1.0010  0.1987
  107MOL    C6934201   2.554   6.703   5.401 -0.0907 -0.2907 -0.2695
  107MOL    C7034202   2.685   6.662   5.339 -0.0554 -0.1537 -0.3098
  107MOL    C7134203   2.550   6.739   5.526  0.6976 -0.4308  0.2864
  107MOL    H7234204   2.418   6.495   5.368  1.4489  1.4969  0.2914
  107MOL    H7334205   2.144   6.605   5.434  0.0745  0.8051  1.7030
  107MOL    H7434206   2.266   6.617   5.553  1.2168 -1.2779  0.9172
  107MOL    H7534207   2.218   6.468   5.490 -0.1116  0.0429 -0.0046
  107MOL    H7634208   2.465   6.696   5.210 -0.7662  1.3145 -0.2091
  107MOL    H7734209   2.752   6.620   5.414 -1.7961 -0.3902  1.1529
  107MOL    H7834210   2.727   6.747   5.286  2.8734 -0.6609  1.0842
  107MOL    H7934211   2.667   6.575   5.274 -0.5108 -1.1720  1.1498
  107MOL    H8034212   2.459   6.780   5.565  0.0039  0.7599 -2.4799
  107MOL    H8134213   2.632   6.735   5.597  0.7387  0.4839  0.2967
  107MOL    C8234214   2.348   6.831   5.326  0.3795 -0.1718  0.2339
  107MOL    C8334215   2.211   6.835   5.255 -0.2410 -0.0466 -0.3228
  107MOL    C8434216   2.431   6.964   5.297 -0.3405 -0.3821 -0.1881
  107MOL    C8534217   2.390   7.067   5.397 -0.1321  0.0576 -0.2707
  107MOL    C8634218   2.472   7.091   5.529  0.8217 -0.1365 -0.9586
  107MOL    C8734219   2.278   7.144   5.379  0.0249  0.1628  0.5946
  107MOL    H8834220   2.315   6.836   5.429 -0.1840  0.9540  0.0072
  107MOL    H8934221   2.137   6.764   5.291  0.2325 -0.8124 -0.8400
  107MOL    H9034222   2.218   6.814   5.148  0.4186 -0.1388 -0.2637
  107MOL    H9134223   2.154   6.928   5.254  0.4031  0.3866  1.3065
  107MOL    H9234224   2.536   6.953   5.324 -0.9256 -0.8859  2.0309
  107MOL    H9334225   2.407   7.149   5.594  0.9125  2.5055 -3.1214
  107MOL    H9434226   2.566   7.146   5.515  0.6241  0.3121 -0.5242
  107MOL    H9534227   2.480   6.992   5.574 -2.6130 -0.6548 -1.3950
  107MOL    H9634228   2.216   7.134   5.292 -1.6653  1.4323  1.6273
  107MOL    H9734229   2.251   7.220   5.451 -0.3153  0.8093 -0.2137
  107MOL    C9834230   2.438   7.018   5.152  0.4430  1.1217  0.2213
  107MOL    C9934231   2.494   6.922   5.053  0.0343  0.7766  0.1964
  107MOL   C10034232   2.499   7.161   5.124  0.2585  0.4424 -0.6323
  107MOL   C10134233   2.437   7.221   5.004 -0.1635 -0.0356 -0.1773
  107MOL   C10234234   2.296   7.286   5.028  0.7743  0.3830 -0.1972
  107MOL   C10334235   2.494   7.223   4.880  0.3882  0.3718 -0.1351
  107MOL   H10434236   2.333   7.007   5.124  0.4084  1.0531  0.3796
  107MOL   H10534237   2.443   6.825   5.045  0.6084  0.5201 -0.3694
  107MOL   H10634238   2.597   6.902   5.081 -0.7489 -1.1031  1.9033
  107MOL   H10734239   2.498   6.964   4.953 -2.5218  1.9264  0.5404
  107MOL   H10834240   2.474   7.228   5.207 -0.0947  1.4300 -1.5322
  107MOL   H10934241   2.224   7.225   4.973  2.9294 -3.0417  0.6016
  107MOL   H11034242   2.295   7.389   4.994  0.4606 -0.1966 -2.0096
  107MOL   H11134243   2.260   7.275   5.130  1.0721  0.8914 -0.0390
  107MOL   H11234244   2.588   7.184   4.846 -0.1924 -0.8408 -0.3770
  107MOL   H11334245   2.434   7.271   4.803  0.5176 -0.6766 -0.9044
  107MOL   C11434246   2.656   7.181   5.116 -0.3746 -0.5010  0.0391
  107MOL   C11534247   2.739   7.107   5.226  0.1156 -0.3148 -0.3984
  107MOL   C11634248   2.704   7.332   5.100  0.1582  0.6308  0.3911
  107MOL   C11734249   2.817   7.341   4.996  0.5960 -0.1998  0.1001
  107MOL   C11834250   2.951   7.276   5.030  0.4233 -0.1266 -0.4738
  107MOL   C11934251   2.795   7.388   4.874  0.2551  0.2806  0.9964
  107MOL   H12034252   2.689   7.131   5.025  2.0975  3.5751 -1.4502
  107MOL   H12134253   2.840   7.149   5.232  0.1394 -0.2620 -1.1589
  107MOL   H12234254   2.752   7.000   5.210  0.3671 -0.4083  0.3856
  107MOL   H12334255   2.702   7.125   5.327 -1.8017 -1.1650 -0.9359
  107MOL   H12434256   2.620   7.379   5.049  2.3123  2.6301 -1.4552
  107MOL   H12534257   2.952   7.167   5.018  0.9755  0.1078 -2.7469
  107MOL   H12634258   2.980   7.306   5.130 -1.1774 -0.4630  0.1113
  107MOL   H12734259   3.033   7.302   4.963  0.5624 -1.4811 -0.8442
  107MOL   H12834260   2.696   7.420   4.847 -0.2345 -1.3378  0.8209
  107MOL   H12934261   2.877   7.392   4.803 -0.4017  0.3713  0.2393
  107MOL   C13034262   2.728   7.422   5.225  0.1930 -0.0053  0.2514
  107MOL   C13134263   2.598   7.427   5.320 -0.1321  0.1299 -0.0211
  107MOL   C13234264   2.809   7.557   5.215  0.0452  0.2064 -0.1758
  107MOL   C13334265   2.893   7.573   5.344 -0.0254  0.8792  0.3121
  107MOL   C13434266   3.033   7.501   5.350  0.0219  0.2287  0.0871
  107MOL   C13534267   2.844   7.647   5.448 -0.2304 -0.0472  0.7584
  107MOL   H13634268   2.791   7.351   5.277 -0.6668 -0.9449  0.0338
  107MOL   H13734269   2.586   7.331   5.369  1.4196  0.5272  1.1667
  107MOL   H13834270   2.511   7.451   5.258  0.3087  1.1332 -0.2695
  107MOL   H13934271   2.607   7.506   5.395  1.1944 -1.0021  1.0184
  107MOL   H14034272   2.892   7.542   5.145  1.1593 -0.7627  1.3314
  107MOL   H14134273   3.017   7.399   5.313  0.7523  0.8022 -1.9143
  107MOL   H14234274   3.069   7.513   5.452  0.1948  3.2629 -0.2893
  107MOL   H14334275   3.101   7.549   5.278  0.0204  1.7940  1.1074
  107MOL   H14434276   2.744   7.688   5.438 -0.1718 -0.1936 -0.4913
  107MOL   H14534277   2.898   7.667   5.540  1.0073 -0.3997  0.1108
  107MOL   C14634278   2.734   7.684   5.174 -0.1740 -0.0058  0.9274
  107MOL   C14734279   2.645   7.656   5.045  0.0059 -0.2920 -0.3056
  107MOL   C14834280   2.825   7.808   5.160  0.4245 -0.0323  0.1060
  107MOL   C14934281   2.747   0.037   5.218 -0.5653 -0.2949 -0.4882
  107MOL   C15034282   2.623   0.082   5.147  0.1821 -0.5045  0.5362
  107MOL   C15134283   2.783   0.092   5.329 -0.1912  0.1753 -0.9291
  107MOL   H15234284   2.670   7.697   5.261 -1.4390  2.0038 -0.2502
  107MOL   H15334285   2.570   7.585   5.081  2.2132 -2.0721  0.9090
  107MOL   H15434286   2.700   7.641   4.952 -0.1558 -1.5139 -0.2139
  107MOL   H15534287   2.584   7.741   5.015 -0.1097 -1.3872 -3.3720
  107MOL   H15634288   2.914   7.790   5.220 -0.8316 -0.8762  1.7625
  107MOL   H15734289   2.637   0.092   5.039 -0.3728  1.1141  0.6059
  107MOL   H15834290   2.583   0.177   5.182 -1.8502 -0.1565 -2.4902
  107MOL   H15934291   2.543   0.010   5.166  0.6846 -1.3436 -0.4321
  107MOL   H16034292   2.870   0.059   5.385  0.3144  0.6873 -1.4002
  107MOL   H16134293   2.728   0.175   5.371 -1.4421 -1.1645  0.1318
  107MOL   C16234294   2.872   7.841   5.012 -0.3495  0.3505  0.8555
  107MOL   C16334295   2.963   7.723   4.961 -0.4326  0.1441  0.5876
  107MOL   C16434296   2.940   0.081   4.978 -0.4663  0.0863 -0.4560
  107MOL   C16534297   2.911   0.134   4.832 -0.4170  0.0008 -0.0247
  107MOL   C16634298   2.785   0.226   4.812 -0.0573 -0.2068  0.2040
  107MOL   C16734299   2.993   0.105   4.732  0.2452  0.4865  0.1815
  107MOL   H16834300   2.787   7.836   4.944  0.5301  0.7502 -0.2982
  107MOL   H16934301   3.042   7.707   5.035  1.5829 -0.1021 -1.5619
  107MOL   H17034302   3.012   7.745   4.866  0.4726  0.7423  1.1858
  107MOL   H17134303   2.915   7.627   4.943 -0.6502  0.1824  0.9620
  107MOL   H17234304   2.878   0.157   5.026 -1.9220 -0.9886 -0.6124
  107MOL   H17334305   2.699   0.163   4.835  0.0578  0.0357  1.2943
  107MOL   H17434306   2.785   0.266   4.710  0.3211 -0.1730  0.2165
  107MOL   H17534307   2.779   0.312   4.879 -1.3711 -0.9560  1.0734
  107MOL   H17634308   3.083   0.046   4.742  0.8951  1.4585  0.2228
  107MOL   H17734309   2.976   0.154   4.637  1.8076  0.6198 -0.0519
  107MOL   C17834310   3.080   0.125   5.035  0.1683  0.4364 -0.1264
  107MOL   C17934311   3.126   0.073   5.169  0.7250  0.1514  0.0866
  107MOL   C18034312   3.126   0.271   5.009  0.5179  0.4209 -0.1402
  107MOL   C18134313   3.275   0.273   4.958  0.5752  0.9498  0.0271
  107MOL   C18234314   3.289   0.273   4.810  0.6624 -0.3683 -0.2420
  107MOL   C18334315   3.384   0.274   5.037  0.0425  0.6495 -0.5653
  107MOL   H18434316   3.144   0.066   4.969  1.1326  0.3734  0.8580
  107MOL   H18534317   3.118   7.857   5.155 -1.4011  0.6284 -2.8552
  107MOL   H18634318   3.055   0.102   5.246 -1.3350  0.0587 -1.7196
  107MOL   H18734319   3.227   0.101   5.199  0.0760  0.3147  2.1473
  107MOL   H18834320   3.062   0.304   4.927  0.5967  2.7403  0.6747
  107MOL   H18934321   3.254   0.184   4.759  0.4837 -0.6485  0.3662
  107MOL   H19034322   3.395   0.282   4.783  0.3316  1.3763 -1.0359
  107MOL   H19134323   3.232   0.360   4.777 -1.4442 -1.1790  1.1615
  107MOL   H19234324   3.378   0.281   5.145  1.8637 -4.3961  0.0102
  107MOL   H19334325   3.481   0.273   4.989  0.0448  0.9660 -0.5622
  107MOL   C19434326   3.107   0.382   5.123  0.9394 -0.2035  0.7519
  107MOL   C19534327   2.961   0.382   5.165  0.4405  0.2447  0.2514
  107MOL   C19634328   3.166   0.528   5.097  0.0397 -0.9527  0.1461
  107MOL   C19734329   3.194   0.603   5.233 -0.5528 -0.3281 -0.1774
  107MOL   C19834330   3.336   0.604   5.274 -0.6931 -0.7681 -0.6458
  107MOL   C19934331   3.100   0.654   5.316 -0.0411  0.4466 -0.9006
  107MOL   H20034332   3.168   0.346   5.206 -1.1015 -1.5784  1.6875
  107MOL   H20134333   2.923   0.283   5.190 -1.0943  1.0675  1.2787
  107MOL   H20234334   2.889   0.413   5.089  0.7038 -0.0875 -0.1400
  107MOL   H20334335   2.943   0.444   5.253 -0.5960 -0.7867  0.7793
  107MOL   H20434336   3.263   0.528   5.048 -0.2615 -0.3982 -0.4665
  107MOL   H20534337   3.382   0.507   5.293 -1.9548 -1.0704  0.9958
  107MOL   H20634338   3.339   0.651   5.372 -0.5745 -0.0030 -1.0190
  107MOL   H20734339   3.393   0.675   5.214  1.5114  0.7219  3.0300
  107MOL   H20834340   2.992   0.653   5.304 -0.0545 -1.9435 -0.9582
  107MOL   H20934341   3.136   0.699   5.407  0.4817 -3.0619  0.7346
  107MOL   C21034342   3.082   0.630   5.004  0.7720 -0.6556  0.9546
  107MOL   C21134343   3.015   0.562   4.875 -0.0978 -0.4885  0.4046
  107MOL   C21234344   3.139   0.770   4.965 -0.1716 -0.2275 -0.0291
  107MOL   C21334345   3.024   0.877   4.972  0.1350 -0.1005  0.4491
  107MOL   C21434346   3.005   0.941   5.109 -0.0365  0.4560  0.6194
  107MOL   C21534347   2.960   0.929   4.861  0.1573 -0.3454 -0.4582
  107MOL   H21634348   3.002   0.653   5.074 -0.3866 -0.1481 -0.5164
  107MOL   H21734349   2.966   0.642   4.818  0.8275 -1.5779 -1.9917
  107MOL   H21834350   2.925   0.503   4.894  0.8807 -1.7220  1.2572
  107MOL   H21934351   3.084   0.515   4.805  1.2255  3.4271 -1.0628
  107MOL   H22034352   3.197   0.800   5.052  2.2702 -3.1041 -0.5524
  107MOL   H22134353   2.950   1.035   5.105 -1.6532 -0.3943  2.4214
  107MOL   H22234354   3.101   0.954   5.160  0.9469 -0.7920 -0.8450
  107MOL   H22334355   2.948   0.871   5.170 -1.0028 -0.3330 -1.1532
  107MOL   H22434356   2.973   0.895   4.760 -2.5256 -1.7203 -0.3763
  107MOL   H22534357   2.892   1.013   4.865 -0.4726 -0.7373 -2.6675
  107MOL   C22634358   3.234   0.772   4.839 -0.3243 -0.3815 -0.5406
  107MOL   C22734359   3.342   0.659   4.818 -0.1504 -0.1832  0.9163
  107MOL   C22834360   3.300   0.917   4.805  0.8780  0.6072 -0.0963
  107MOL   C22934361   3.307   0.935   4.653  0.0689 -0.1123  0.4195
  107MOL   C23034362   3.183   0.980   4.575 -0.0606 -0.0779  0.3847
  107MOL   C23134363   3.413   0.900   4.577 -0.3458 -0.1127 -0.4554
  107MOL   H23234364   3.164   0.761   4.757 -1.6835 -0.9174  0.6782
  107MOL   H23334365   3.398   0.643   4.910  0.4251 -1.2413  0.3875
  107MOL   H23434366   3.409   0.673   4.733 -0.7812  0.8751  0.5832
  107MOL   H23534367   3.302   0.559   4.802 -0.0149  0.1579 -1.8312
  107MOL   H23634368   3.226   0.990   4.839 -0.3523  0.4548 -2.3799
  107MOL   H23734369   3.110   0.900   4.568 -1.7160  1.5106 -1.1359
  107MOL   H23834370   3.198   1.029   4.479 -0.2638  2.5039  1.6199
  107MOL   H23934371   3.141   1.059   4.637  1.5808  0.0985  1.2982
  107MOL   H24034372   3.503   0.859   4.620 -1.5126 -1.0651  1.1635
  107MOL   H24134373   3.412   0.920   4.471 -2.2601  1.8401 -0.1191
  107MOL   C24234374   3.428   0.962   4.886 -0.4559 -0.0041 -0.3005
  107MOL   C24334375   3.434   0.943   5.036  0.3011 -0.3673  0.8725
  107MOL   C24434376   3.476   1.108   4.850 -0.0017  0.7190  0.0296
  107MOL   C24534377   3.631   1.127   4.875  0.0334  0.2851 -0.9825
  107MOL   C24634378   3.709   1.114   4.746  0.2446  0.0752 -0.7129
  107MOL   C24734379   3.690   1.153   4.993  0.7097 -0.4826  0.0711
  107MOL   H24834380   3.511   0.908   4.842 -0.3030  0.5548 -0.7096
  107MOL   H24934381   3.424   0.836   5.057  0.0663 -0.5162  0.0468
  107MOL   H25034382   3.348   0.993   5.080 -1.4198 -1.9287 -0.5807
  107MOL   H25134383   3.524   0.985   5.081  0.2556 -1.6507  2.2043
  107MOL   H25234384   3.457   1.119   4.744  1.0503 -0.5239 -0.2974
  107MOL   H25334385   3.694   1.213   4.705 -0.3365  0.3686  0.1776
  107MOL   H25434386   3.654   1.041   4.686  0.6804 -1.4578  0.6855
  107MOL   H25534387   3.815   1.092   4.741  0.7261  2.3139 -0.6420
  107MOL   H25634388   3.639   1.166   5.088  1.0026 -0.1494  0.1838
  107MOL   H25734389   3.797   1.167   4.988  0.5106  0.8795 -0.6485
  107MOL   C25834390   3.396   1.235   4.906 -0.1894  0.0479  0.2309
  107MOL   C25934391   3.244   1.221   4.944 -0.7587  0.4811  0.0732
  107MOL   C26034392   3.425   1.364   4.816 -0.2203 -0.2364  0.0785
  107MOL   C26134393   3.449   1.491   4.897 -0.4484 -0.2520 -0.4817
  107MOL   C26234394   3.578   1.570   4.876  0.7350 -0.0198  0.1781
  107MOL   C26334395   3.374   1.535   5.003 -0.5763 -0.2878  0.5698
  107MOL   H26434396   3.454   1.257   4.996 -3.2848 -1.3858  2.6767
  107MOL   H26534397   3.230   1.145   5.021  3.2835 -0.0289  0.3818
  107MOL   H26634398   3.184   1.193   4.857 -2.6273 -1.7953  1.9976
  107MOL   H26734399   3.199   1.311   4.986  0.5510  0.3603  1.7925
  107MOL   H26834400   3.529   1.347   4.788 -0.5949 -1.7659 -0.4005
  107MOL   H26934401   3.582   1.582   4.768 -0.2261  0.6325  0.2085
  107MOL   H27034402   3.661   1.512   4.916 -0.3810 -0.6129  1.6776
  107MOL   H27134403   3.567   1.669   4.922  0.2856 -0.7627  1.7040
  107MOL   H27234404   3.286   1.482   5.036  1.4321 -3.3464  1.2662
  107MOL   H27334405   3.401   1.622   5.061  2.2700 -0.1639 -0.8351
  107MOL   C27434406   3.339   1.381   4.683 -0.0054 -0.2846  0.4490
  107MOL   C27534407   3.429   1.386   4.559 -0.2696 -0.7451 -0.0783
  107MOL   C27634408   3.215   1.479   4.698  0.4421  0.3856 -0.1158
  107MOL   C27734409   3.081   1.405   4.667  0.1339 -0.9995  0.2008
  107MOL   C27834410   3.050   1.368   4.525  0.7758 -0.9461 -0.3197
  107MOL   C27934411   2.987   1.402   4.761 -0.1944 -0.7791 -0.5962
  107MOL   H28034412   3.296   1.282   4.667  0.7508 -0.7771  1.3819
  107MOL   H28134413   3.469   1.288   4.532  2.0913  0.1128  0.2030
  107MOL   H28234414   3.514   1.451   4.583  1.1344 -2.3013 -0.7488
  107MOL   H28334415   3.380   1.413   4.466  2.0161 -1.2726 -1.4778
  107MOL   H28434416   3.210   1.507   4.803 -0.9014  2.2096 -0.6473
  107MOL   H28534417   2.941   1.375   4.528  0.7980 -0.5714 -0.3381
  107MOL   H28634418   3.089   1.272   4.492  2.2823 -0.4665  0.0285
  107MOL   H28734419   3.087   1.447   4.460  2.1769 -1.7915 -0.5726
  107MOL   H28834420   3.006   1.443   4.859  1.3564  2.7905 -2.3232
  107MOL   H28934421   2.890   1.359   4.739 -2.0434  2.5920  0.6469
  107MOL   C29034422   3.217   1.612   4.613  0.1834  0.4929 -0.0951
  107MOL   C29134423   3.339   1.707   4.666 -0.4816  0.2550  0.5326
  107MOL   C29234424   3.080   1.697   4.596  0.0424 -0.9073  0.5384
  107MOL   C29334425   3.081   1.759   4.453  0.0854  0.2362 -0.0434
  107MOL   C29434426   3.169   1.880   4.422  0.2919 -1.2260  0.1785
  107MOL   C29534427   3.013   1.696   4.352  0.3038 -0.5026 -0.0647
  107MOL   H29634428   3.251   1.579   4.516  0.6564 -1.3908  0.6860
  107MOL   H29734429   3.347   1.725   4.773  2.3622 -0.1388  0.4213
  107MOL   H29834430   3.318   1.797   4.610 -0.9001  1.6785  2.9021
  107MOL   H29934431   3.436   1.668   4.634 -1.1618 -2.1917  1.2719
  107MOL   H30034432   2.993   1.632   4.603 -2.3303  2.3045  2.2930
  107MOL   H30134433   3.167   1.953   4.503 -1.8286  0.6033 -1.4718
  107MOL   H30234434   3.135   1.936   4.335  2.0035  0.5566  0.6312
  107MOL   H30334435   3.273   1.847   4.414  0.6943 -0.5458  2.3796
  107MOL   H30434436   2.952   1.610   4.376  0.4985 -0.6800 -0.2050
  107MOL   H30534437   3.018   1.735   4.252  1.7435  0.5252  0.3858
  107MOL   C30634438   3.042   1.802   4.706  0.6665  0.1587 -0.6801
  107MOL   C30734439   3.047   1.759   4.854 -0.3586  0.2574  0.2711
  107MOL   C30834440   2.904   1.870   4.680 -0.1690 -0.0740  0.4767
  107MOL   C30934441   2.908   2.012   4.631  0.2379 -0.2614  0.2080
  107MOL   C31034442   2.967   2.125   4.718  0.1616 -0.1969 -0.5190
  107MOL   C31134443   2.876   2.035   4.502 -0.1894 -0.1076  0.0428
  107MOL   H31234444   3.120   1.878   4.709  0.5832  0.1842  0.8313
  107MOL   H31334445   3.147   1.741   4.895 -0.8796  1.6770  2.1825
  107MOL   H31434446   2.991   1.667   4.868  2.4923 -1.4589  0.8630
  107MOL   H31534447   3.004   1.834   4.919  1.5128  0.5874  1.1710
  107MOL   H31634448   2.834   1.820   4.613 -2.7810  3.3583  0.5143
  107MOL   H31734449   3.075   2.120   4.727 -0.0388 -0.7173  1.8735
  107MOL   H31834450   2.936   2.127   4.822  1.3385  0.6442 -0.1747
  107MOL   H31934451   2.926   2.219   4.680 -2.8832 -1.3038 -0.1540
  107MOL   H32034452   2.843   1.955   4.437  1.4589 -0.4860 -0.3601
  107MOL   H32134453   2.888   2.136   4.467  1.9868 -0.3332  0.1011
  107MOL   H32234454   2.848   1.869   4.773 -0.2258  0.3795  0.4489
  108MOL     C134455   7.290   5.410   4.897 -0.6829 -0.4179  0.0274
  108MOL     C234456   7.306   5.539   4.971 -0.1118 -0.4047 -0.5231
  108MOL     C334457   7.158   5.338   4.919  0.2655  0.1234  0.3468
  108MOL     C434458   7.136   5.300   5.072 -0.0693 -0.3850  0.1756
  108MOL     C534459   6.993   5.277   5.119 -1.0246 -0.5930 -0.5328
  108MOL     C634460   7.239   5.270   5.159  0.5982  0.0995 -0.4209
  108MOL     H734461   7.302   5.443   4.793 -1.9771 -1.1806 -0.3703
  108MOL     H834462   7.408   5.566   4.998 -1.3331  0.6430  3.5623
  108MOL     H934463   7.252   5.544   5.066  1.2805 -0.5459  0.2857
  108MOL    H1034464   7.267   5.624   4.914  0.3558  0.4925  0.4643
  108MOL    H1134465   7.083   5.413   4.894  1.3189  1.0851  0.0624
  108MOL    H1234466   6.984   5.249   5.224 -0.8115 -1.2730 -0.6884
  108MOL    H1334467   6.931   5.208   5.061 -2.1710 -0.3009  0.3503
  108MOL    H1434468   6.947   5.376   5.116 -0.5442 -0.3358  0.6126
  108MOL    H1534469   7.341   5.281   5.125  0.4704 -1.4444 -1.3457
  108MOL    H1634470   7.219   5.237   5.260 -0.3814  0.3524 -0.5286
  108MOL    H1734471   7.372   5.347   4.930 -0.5088 -0.1684  0.0746
  108MOL    C1834472   7.138   5.210   4.827 -0.3149  0.2642 -0.3086
  108MOL    C1934473   7.253   5.117   4.846 -0.0823 -0.3339  0.0828
  108MOL    C2034474   7.089   5.238   4.682  0.3592  0.0052  0.0040
  108MOL    C2134475   6.962   5.322   4.682 -0.0294  0.4918  0.1541
  108MOL    C2234476   6.950   5.439   4.589 -0.0198  0.0154 -0.0497
  108MOL    C2334477   6.862   5.292   4.771 -0.4383  0.8610  0.2626
  108MOL    H2434478   7.062   5.144   4.868 -3.5440  2.1614 -2.9777
  108MOL    H2534479   7.229   5.021   4.801  1.4114 -0.7545  0.1621
  108MOL    H2634480   7.291   5.094   4.946 -0.6187  1.1980  0.6668
  108MOL    H2734481   7.338   5.158   4.792  0.0327  0.4919  0.8709
  108MOL    H2834482   7.167   5.308   4.650 -0.6213  0.0559 -2.4075
  108MOL    H2934483   7.000   5.530   4.622  2.3534 -0.1932 -2.8293
  108MOL    H3034484   6.846   5.469   4.578 -0.5323 -1.4827  0.5603
  108MOL    H3134485   6.987   5.417   4.489 -0.5499 -0.0346 -0.2352
  108MOL    H3234486   6.873   5.224   4.854  0.1474  1.4865  0.7018
  108MOL    H3334487   6.768   5.346   4.768 -1.4866 -0.9549 -0.2072
  108MOL    C3434488   7.069   5.124   4.584  0.2911 -0.5330 -0.2333
  108MOL    C3534489   6.974   5.014   4.640 -0.4191 -0.3947 -0.2423
  108MOL    C3634490   7.192   5.065   4.512 -0.7651  0.1102 -0.1002
  108MOL    C3734491   7.307   5.166   4.496  0.2149  0.1517  0.7154
  108MOL    C3834492   7.278   5.298   4.433 -0.4682  0.1374 -0.1229
  108MOL    C3934493   7.434   5.133   4.532  0.0160  0.7007 -0.1629
  108MOL    H4034494   7.021   5.181   4.504  0.6458  0.9732  0.6073
  108MOL    H4134495   7.013   4.959   4.725  2.6852  0.5249 -0.9686
  108MOL    H4234496   6.964   4.926   4.576  0.5152 -0.2592 -0.5926
  108MOL    H4334497   6.872   5.048   4.657  0.3406  1.1256  1.3791
  108MOL    H4434498   7.231   5.003   4.592  0.6299  1.2951  0.1595
  108MOL    H4534499   7.289   5.306   4.325 -0.9279 -0.5272 -0.2223
  108MOL    H4634500   7.345   5.372   4.476 -1.1274 -0.0141  1.1737
  108MOL    H4734501   7.178   5.332   4.457 -0.3416  0.2273  0.2869
  108MOL    H4834502   7.460   5.039   4.578 -0.3834  0.6473 -0.0378
  108MOL    H4934503   7.513   5.206   4.525  1.8475 -1.4284 -2.5338
  108MOL    C5034504   7.167   4.967   4.390 -0.3012 -0.7569 -0.1801
  108MOL    C5134505   7.261   4.846   4.397 -0.1047 -0.4275  0.1351
  108MOL    C5234506   7.162   5.027   4.240 -0.4439 -0.5548  0.1668
  108MOL    C5334507   7.046   5.119   4.223 -0.3139  0.2116 -0.0998
  108MOL    C5434508   7.077   5.244   4.148  0.2237  0.2206  0.4358
  108MOL    C5534509   6.921   5.090   4.265  0.3558 -0.8885 -0.0088
  108MOL    H5634510   7.066   4.929   4.403 -0.9632  0.8922 -0.3071
  108MOL    H5734511   7.256   4.810   4.500  0.4258  1.2730  0.7802
  108MOL    H5834512   7.362   4.879   4.373 -1.0111  2.6539  0.3835
  108MOL    H5934513   7.235   4.761   4.334 -0.3541 -0.9437  0.9172
  108MOL    H6034514   7.240   5.103   4.242 -0.5380 -0.4935  1.3378
  108MOL    H6134515   7.169   5.241   4.090  2.6430 -0.3001  4.1350
  108MOL    H6234516   7.098   5.317   4.226  3.1059  0.1011 -0.1652
  108MOL    H6334517   6.997   5.273   4.080  0.8578  1.0088  0.0167
  108MOL    H6434518   6.885   5.008   4.325 -2.1346  1.5325  1.9309
  108MOL    H6534519   6.839   5.156   4.243 -1.4450 -2.7199  1.0410
  108MOL    C6634520   7.173   4.939   4.107 -0.3766 -1.0266  0.5651
  108MOL    C6734521   7.065   4.822   4.119  0.0580 -0.0025  0.5716
  108MOL    C6834522   7.307   4.876   4.051 -0.6623  0.1350  0.0759
  108MOL    C6934523   7.442   4.937   4.088  0.5249  0.8225  0.4132
  108MOL    C7034524   7.540   4.833   4.131 -0.8441 -0.4436  0.2450
  108MOL    C7134525   7.461   5.072   4.085  0.1779  0.2721 -0.5774
  108MOL    H7234526   7.143   5.008   4.028 -0.8792 -1.0954  0.6998
  108MOL    H7334527   7.105   4.725   4.148 -0.0573 -0.4281 -0.6407
  108MOL    H7434528   7.023   4.796   4.022 -0.1799 -1.0736  0.9549
  108MOL    H7534529   6.989   4.851   4.191  1.6329 -0.5917  2.5185
  108MOL    H7634530   7.308   4.780   4.102 -0.1778 -0.4222 -0.9665
  108MOL    H7734531   7.630   4.880   4.090 -1.8656 -1.3985 -3.3215
  108MOL    H7834532   7.535   4.734   4.087 -1.6882 -1.6204  2.8987
  108MOL    H7934533   7.541   4.832   4.240  3.5887  0.6242  0.3413
  108MOL    H8034534   7.380   5.138   4.058  0.4839  1.0905  0.4780
  108MOL    H8134535   7.558   5.116   4.108  0.8352 -0.3327 -2.1056
  108MOL    C8234536   7.308   4.832   3.901  0.4779  0.2642  0.1820
  108MOL    C8334537   7.369   4.696   3.863  1.1181 -0.2473 -0.4121
  108MOL    C8434538   7.324   4.937   3.791 -0.6247  0.1572  0.6862
  108MOL    C8534539   7.195   4.958   3.712 -0.3805 -0.9741 -0.3118
  108MOL    C8634540   7.091   5.059   3.761 -0.0350  0.1469  1.0239
  108MOL    C8734541   7.181   4.885   3.604  0.4143  0.0875  0.2020
  108MOL    H8834542   7.202   4.807   3.899  0.3079  0.7030  2.9977
  108MOL    H8934543   7.477   4.690   3.846  1.4143  2.2883  0.3449
  108MOL    H9034544   7.328   4.653   3.772 -1.1160 -1.8351  1.3196
  108MOL    H9134545   7.354   4.626   3.944  0.9725 -0.7224 -0.8504
  108MOL    H9234546   7.336   5.038   3.830 -1.3280  0.1475  0.9303
  108MOL    H9334547   7.031   5.023   3.844 -0.9250  2.4286  1.4003
  108MOL    H9434548   7.031   5.086   3.674  0.6095  2.6184  1.3060
  108MOL    H9534549   7.148   5.149   3.785 -2.8841  2.1060  0.6807
  108MOL    H9634550   7.251   4.815   3.561 -0.0712 -1.9297  2.6018
  108MOL    H9734551   7.090   4.897   3.546 -0.8852  1.5020  2.4522
  108MOL    C9834552   7.456   4.929   3.707 -0.1562 -0.1002 -0.0387
  108MOL    C9934553   7.588   4.944   3.789  0.1186 -0.4857  0.3641
  108MOL   C10034554   7.474   5.036   3.591  0.1672  0.2242 -0.0508
  108MOL   C10134555   7.551   4.974   3.469  0.0372  0.2910 -0.4099
  108MOL   C10234556   7.468   4.917   3.351  0.4069 -0.5112 -0.1918
  108MOL   C10334557   7.688   4.974   3.464  0.5149  0.1029 -0.2312
  108MOL   H10434558   7.457   4.830   3.663 -2.0030 -0.0545 -0.2138
  108MOL   H10534559   7.589   4.874   3.873  0.5779  1.2010  1.7922
  108MOL   H10634560   7.590   5.041   3.838 -1.0910  0.0018 -0.5206
  108MOL   H10734561   7.682   4.929   3.736  1.5529  1.8618  2.1561
  108MOL   H10834562   7.373   5.033   3.550  0.3700 -0.1627 -0.5357
  108MOL   H10934563   7.402   4.995   3.314  0.1844 -0.7498 -0.2975
  108MOL   H11034564   7.424   4.820   3.376 -2.1176  0.8515  0.8690
  108MOL   H11134565   7.538   4.889   3.272  0.6384 -0.5098  0.0105
  108MOL   H11234566   7.738   5.021   3.548  0.0198  0.7173 -0.2776
  108MOL   H11334567   7.752   4.931   3.388 -0.7028 -0.0741 -1.1789
  108MOL   C11434568   7.515   5.188   3.621 -0.2499 -0.2411  0.2908
  108MOL   C11534569   7.444   5.261   3.744 -0.2327  0.1863  0.3455
  108MOL   C11634570   7.530   5.282   3.487 -0.1837 -0.3350 -0.4957
  108MOL   C11734571   7.651   5.381   3.501 -0.2974 -0.4926 -0.5659
  108MOL   C11834572   7.782   5.342   3.440 -0.0488  0.0354 -0.5208
  108MOL   C11934573   7.637   5.498   3.575 -0.0571  0.4584  0.2318
  108MOL   H12034574   7.619   5.173   3.649 -0.1171  1.5507  0.8479
  108MOL   H12134575   7.481   5.363   3.759  1.6582 -0.1775 -1.6229
  108MOL   H12234576   7.455   5.210   3.840 -1.2339 -0.6491  0.0261
  108MOL   H12334577   7.338   5.264   3.722 -0.2908 -1.2850  0.3449
  108MOL   H12434578   7.555   5.210   3.408 -0.7652  0.4529 -1.4105
  108MOL   H12534579   7.855   5.422   3.448  1.8755 -1.7927  0.7586
  108MOL   H12634580   7.773   5.315   3.335 -1.7332  0.1315 -0.4292
  108MOL   H12734581   7.836   5.258   3.483  1.2649  1.4692  0.6818
  108MOL   H12834582   7.540   5.524   3.616 -0.7758  3.3445 -3.1063
  108MOL   H12934583   7.719   5.565   3.593 -0.0740  1.0533 -1.8129
  108MOL   C13034584   7.394   5.358   3.448 -0.3738 -1.2715 -0.6168
  108MOL   C13134585   7.278   5.262   3.426  0.1078  0.2143  0.0966
  108MOL   C13234586   7.407   5.454   3.319 -0.4372 -0.0726 -0.1766
  108MOL   C13334587   7.329   5.583   3.345 -0.6466  1.1957 -0.5037
  108MOL   C13434588   7.177   5.571   3.352 -0.0822 -0.0321  0.8829
  108MOL   C13534589   7.391   5.703   3.368 -0.1801  0.2296 -0.6790
  108MOL   H13634590   7.369   5.427   3.528 -0.5457 -1.2813 -0.6614
  108MOL   H13734591   7.248   5.208   3.515  1.1199 -0.7522 -0.1464
  108MOL   H13834592   7.294   5.178   3.359 -4.0725  1.0889 -2.1584
  108MOL   H13934593   7.186   5.316   3.402  1.3439  1.4700 -1.9818
  108MOL   H14034594   7.510   5.490   3.328 -0.1435 -1.0480  0.5776
  108MOL   H14134595   7.148   5.519   3.260 -0.3091  1.6131  0.0077
  108MOL   H14234596   7.135   5.671   3.356  0.7850  0.3259  1.1666
  108MOL   H14334597   7.140   5.518   3.439  1.1084  0.0209  1.4227
  108MOL   H14434598   7.499   5.716   3.368  0.0935 -1.7270  1.3098
  108MOL   H14534599   7.331   5.787   3.400  1.0090  1.1945 -0.9032
  108MOL   C14634600   7.397   5.386   3.179 -0.2490 -0.1010 -0.4882
  108MOL   C14734601   7.504   5.278   3.160 -0.6626  0.0181 -0.6204
  108MOL   C14834602   7.384   5.490   3.060  0.4061  0.3209  0.0560
  108MOL   C14934603   7.282   5.431   2.966 -0.7088  0.1129  0.4057
  108MOL   C15034604   7.310   5.308   2.885 -0.3443  0.6926  1.0930
  108MOL   C15134605   7.154   5.474   2.963  0.5924  0.2826 -0.1589
  108MOL   H15234606   7.301   5.336   3.171  0.0877 -0.7380 -0.6202
  108MOL   H15334607   7.603   5.308   3.194 -0.7099 -1.6987  1.1044
  108MOL   H15434608   7.507   5.244   3.056  1.6362 -3.2682  0.4438
  108MOL   H15534609   7.473   5.186   3.209  0.9070 -0.8774 -1.2456
  108MOL   H15634610   7.338   5.582   3.096 -2.7106 -0.6632 -1.1456
  108MOL   H15734611   7.307   5.217   2.945 -0.2959 -0.3705 -0.4907
  108MOL   H15834612   7.403   5.316   2.829 -0.2451  0.1748  1.1866
  108MOL   H15934613   7.228   5.298   2.814  1.1675  1.3986 -0.8053
  108MOL   H16034614   7.120   5.557   3.022  0.9897 -0.2952  0.8868
  108MOL   H16134615   7.078   5.422   2.907  1.7674 -0.7437 -0.8344
  108MOL   C16234616   7.515   5.532   2.976  0.0705 -0.4110 -0.0790
  108MOL   C16334617   7.623   5.603   3.054 -0.1923 -0.7085  0.0629
  108MOL   C16434618   7.497   5.592   2.832  0.4507 -0.0112  1.0091
  108MOL   C16534619   7.592   5.517   2.740 -0.0248 -0.2417  0.9827
  108MOL   C16634620   7.740   5.533   2.769 -0.1182  0.3265  0.3555
  108MOL   C16734621   7.554   5.442   2.636  0.0068 -0.5121  0.0727
  108MOL   H16834622   7.565   5.437   2.958 -0.3133 -0.7211  0.4901
  108MOL   H16934623   7.719   5.630   3.010 -0.9996  3.0995  0.5357
  108MOL   H17034624   7.647   5.535   3.136  3.0650 -1.0636 -1.0838
  108MOL   H17134625   7.591   5.695   3.100  1.9681  0.7798 -1.2822
  108MOL   H17234626   7.404   5.548   2.795  1.0895 -1.6110  1.2570
  108MOL   H17334627   7.776   5.467   2.849 -1.5000 -1.2136 -0.2746
  108MOL   H17434628   7.771   5.634   2.795  1.9455 -0.6031  1.6986
  108MOL   H17534629   7.805   5.495   2.690 -0.8414 -0.2725  0.0386
  108MOL   H17634630   7.449   5.433   2.611 -0.3340  1.8128  0.6077
  108MOL   H17734631   7.626   5.394   2.571 -0.1470  0.6428 -0.9827
  108MOL   C17834632   7.482   5.746   2.815  0.2397 -0.4467  0.2203
  108MOL   C17934633   7.399   5.814   2.918  0.5697  0.2871  0.1288
  108MOL   C18034634   7.421   5.794   2.675  0.0671  0.1874  0.3532
  108MOL   C18134635   7.301   5.715   2.615 -0.3395  0.7718  0.6048
  108MOL   C18234636   7.166   5.722   2.683  0.0597 -0.2604  0.2775
  108MOL   C18334637   7.308   5.668   2.490  0.1317  0.3614  0.2357
  108MOL   H18434638   7.580   5.790   2.836  0.0432  0.2270 -0.2572
  108MOL   H18534639   7.422   5.783   3.020  1.2790 -1.6581 -0.5921
  108MOL   H18634640   7.293   5.788   2.913  1.1544 -2.6464  1.7993
  108MOL   H18734641   7.419   5.920   2.904  0.7986  0.5101  2.0543
  108MOL   H18834642   7.361   5.884   2.687  1.4789  1.4197 -1.5207
  108MOL   H18934643   7.087   5.677   2.623  1.0840 -0.4086 -0.9773
  108MOL   H19034644   7.128   5.824   2.693 -0.0818 -0.0598 -1.9835
  108MOL   H19134645   7.169   5.673   2.780  0.1918 -0.3628  0.2212
  108MOL   H19234646   7.397   5.656   2.430 -0.0530  0.1029  0.0145
  108MOL   H19334647   7.222   5.624   2.443  0.4914  1.5092 -1.5201
  108MOL   C19434648   7.519   5.864   2.571 -0.1206  0.4357  0.3301
  108MOL   C19534649   7.652   5.784   2.543 -0.6122  0.2697  0.6275
  108MOL   C19634650   7.565   6.012   2.619  0.3649  0.2502 -0.2099
  108MOL   C19734651   7.449   6.099   2.663  0.0866  0.7937  0.5501
  108MOL   C19834652   7.349   6.132   2.560  0.5213  0.0587 -0.0061
  108MOL   C19934653   7.448   6.162   2.778  0.1831 -0.9521  0.6128
  108MOL   H20034654   7.469   5.877   2.476  2.8573  1.4618 -1.1597
  108MOL   H20134655   7.629   5.681   2.519  1.1728 -0.3906  1.6386
  108MOL   H20234656   7.719   5.773   2.629  0.0061 -0.4947  0.0462
  108MOL   H20334657   7.716   5.824   2.464 -0.4065  0.3989  0.8580
  108MOL   H20434658   7.624   5.987   2.707  2.6711  0.0179 -1.8048
  108MOL   H20534659   7.300   6.042   2.523  0.6529  1.0352 -2.6646
  108MOL   H20634660   7.382   6.179   2.468  1.6215 -0.9541 -0.1413
  108MOL   H20734661   7.278   6.200   2.606  1.0675  1.0441 -0.6143
  108MOL   H20834662   7.529   6.139   2.845  0.3308  0.0737  0.7937
  108MOL   H20934663   7.368   6.233   2.794 -0.4416 -1.1471 -1.3914
  108MOL   C21034664   7.647   6.092   2.518 -0.3368 -0.6911 -0.1723
  108MOL   C21134665   7.603   6.067   2.371  0.0341 -0.4508 -0.7326
  108MOL   C21234666   7.811   6.086   2.530  0.9197 -0.2721  0.0419
  108MOL   C21334667   7.858   6.102   2.676 -0.2596 -0.9868 -0.2668
  108MOL   C21434668   7.805   6.217   2.751  0.1469 -0.0696 -0.3727
  108MOL   C21534669   0.027   6.007   2.748 -0.5286  0.0536 -0.2897
  108MOL   H21634670   7.618   6.195   2.539  1.1454 -0.2810 -0.0789
  108MOL   H21734671   7.642   6.144   2.305  1.5308 -2.2491 -1.9975
  108MOL   H21834672   7.495   6.068   2.358  0.1406 -0.3580 -1.6325
  108MOL   H21934673   7.627   5.971   2.326  1.6109  0.3636 -1.6503
  108MOL   H22034674   7.833   5.981   2.508 -1.6228 -1.4675  2.7898
  108MOL   H22134675   7.793   6.193   2.856  0.8552 -2.5918 -0.8402
  108MOL   H22234676   7.707   6.243   2.712  0.1184 -1.6604 -1.4258
  108MOL   H22334677   7.868   6.305   2.737 -0.8035  0.4664 -1.3645
  108MOL   H22434678   0.062   5.917   2.701 -0.6976  0.3777 -1.0543
  108MOL   H22534679   0.032   6.023   2.854  2.9317 -2.8628  0.0827
  108MOL   C22634680   0.011   6.179   2.436  0.2944  0.0230  0.1010
  108MOL   C22734681   7.847   6.325   2.411 -0.0656 -0.0438 -0.2372
  108MOL   C22834682   0.053   6.099   2.306 -0.6972 -0.1729 -1.0626
  108MOL   C22934683   0.114   5.965   2.330 -0.0119 -0.0042 -0.5711
  108MOL   C23034684   0.075   5.858   2.225 -0.6718  0.0718  0.2922
  108MOL   C23134685   0.198   5.946   2.434 -0.3058  0.2143 -0.8260
  108MOL   H23234686   0.103   6.191   2.493  0.4489 -0.2433 -0.0908
  108MOL   H23334687   0.026   6.403   2.382  0.4980  0.0201  1.2355
  108MOL   H23434688   7.804   6.362   2.504 -0.6886  2.8499 -1.5987
  108MOL   H23534689   7.764   6.328   2.341 -0.8024 -0.7492  0.6075
  108MOL   H23634690   7.852   6.071   2.256 -0.5032 -1.5486 -0.6754
  108MOL   H23734691   0.130   5.887   2.136  0.9596  0.2224  1.3207
  108MOL   H23834692   7.861   5.848   2.206 -0.6743 -0.9421  0.7854
  108MOL   H23934693   0.103   5.756   2.251 -0.7224 -0.4614 -1.6920
  108MOL   H24034694   0.237   6.021   2.501  0.6713  0.9272 -2.1909
  108MOL   H24134695   0.238   5.848   2.456  0.6057  0.7153 -0.2416
  108MOL   C24234696   0.134   6.172   2.189  0.0425  0.2156 -0.5575
  108MOL   C24334697   0.255   6.237   2.254  0.3551  0.9739  0.2591
  108MOL   C24434698   0.060   6.267   2.091 -0.0402  0.0513  0.6378
  108MOL   C24534699   7.839   6.206   2.020 -0.2899  0.8611 -0.2412
  108MOL   C24634700   7.707   6.280   2.022  0.7531 -0.8567 -0.3015
  108MOL   C24734701   7.852   6.086   1.959 -0.9254  0.5851  0.5657
  108MOL   H24834702   0.178   6.093   2.128 -1.0940  0.0334 -1.1526
  108MOL   H24934703   0.238   6.334   2.302 -0.4734  1.0627 -0.2116
  108MOL   H25034704   0.346   6.250   2.196  1.7937 -0.5239  2.1336
  108MOL   H25134705   0.281   6.173   2.339  0.5131  1.4346  0.5615
  108MOL   H25234706   0.011   6.343   2.151 -2.2276 -0.5595 -0.3082
  108MOL   H25334707   7.724   6.387   2.006  0.7393 -0.5583  1.5568
  108MOL   H25434708   7.661   6.269   2.120 -2.0030  0.0579 -1.4478
  108MOL   H25534709   7.637   6.243   1.947 -0.5651 -0.0741  0.5153
  108MOL   H25634710   0.052   6.031   1.962 -2.4718 -2.1520 -0.7620
  108MOL   H25734711   7.772   6.046   1.899  0.6362 -0.5586 -0.7965
  108MOL   C25834712   0.134   6.357   1.992 -0.2100  0.6003 -0.2553
  108MOL   C25934713   0.232   6.278   1.898 -0.7337 -0.4733  0.2627
  108MOL   C26034714   0.215   6.482   2.046 -0.7379 -0.1544 -0.2263
  108MOL   C26134715   0.139   6.563   2.148  0.5526  0.0035  0.3965
  108MOL   C26234716   0.003   6.615   2.119 -0.0131  0.2894  0.3127
  108MOL   C26334717   0.202   6.606   2.259  0.0399 -0.6271  0.1489
  108MOL   H26434718   0.056   6.392   1.924 -1.1756 -2.7236 -0.9811
  108MOL   H26534719   0.186   6.184   1.867  0.3279 -0.9099 -0.0478
  108MOL   H26634720   0.319   6.246   1.956  0.1652 -0.1249 -0.8593
  108MOL   H26734721   0.250   6.326   1.802  0.7320  1.0276  1.2534
  108MOL   H26834722   0.307   6.447   2.095  0.0597  2.3851  0.1826
  108MOL   H26934723   7.834   6.577   2.200  2.4135  0.7744  2.4737
  108MOL   H27034724   7.856   6.572   2.027 -0.0097  3.9413 -1.5017
  108MOL   H27134725   7.888   6.722   2.103  2.9387  0.2093 -1.9546
  108MOL   H27234726   0.303   6.576   2.282  0.4533  0.0338 -0.8074
  108MOL   H27334727   0.158   6.675   2.330  0.0921  1.0612 -1.4441
  108MOL   C27434728   0.265   6.582   1.931 -0.1259  0.0523  0.2472
  108MOL   C27534729   0.171   6.604   1.811 -0.0668  0.5326 -0.2102
  108MOL   C27634730   0.421   6.558   1.884  0.7117  0.3578 -0.2039
  108MOL   C27734731   0.521   6.535   1.994  1.1879 -0.7612 -0.6287
  108MOL   C27834732   0.533   6.647   2.098 -1.0862 -0.5919  0.1317
  108MOL   C27934733   0.599   6.428   2.004  0.9333  0.2678  0.1198
  108MOL   H28034734   0.267   6.678   1.983  1.1560  0.6851 -0.9358
  108MOL   H28134735   0.070   6.625   1.846 -0.4184  0.9316 -1.4284
  108MOL   H28234736   0.182   6.530   1.732  1.6909  0.6807 -0.1158
  108MOL   H28334737   0.193   6.701   1.765 -1.4476  1.3876  0.8784
  108MOL   H28434738   0.407   6.459   1.841  1.9636  0.2688 -0.3987
  108MOL   H28534739   0.440   6.697   2.124 -0.9798 -1.1887  1.6882
  108MOL   H28634740   0.587   6.732   2.057 -2.2052  0.8414  1.5827
  108MOL   H28734741   0.582   6.612   2.189 -0.1395 -0.6622 -0.3960
  108MOL   H28834742   0.595   6.343   1.939  0.1335 -1.3681  2.2504
  108MOL   H28934743   0.675   6.420   2.081  1.1945 -2.7489 -0.4126
  108MOL   C29034744   0.492   6.654   1.773  0.3951  0.6965 -0.2440
  108MOL   C29134745   0.460   6.797   1.787 -0.4524  0.0993  0.5005
  108MOL   C29234746   0.463   6.600   1.629  0.3508  0.8407 -0.0947
  108MOL   C29334747   0.507   6.451   1.616 -0.3724  0.0074 -0.3553
  108MOL   C29434748   0.648   6.419   1.632 -0.0416 -0.9104  0.1289
  108MOL   C29534749   0.419   6.356   1.591  0.5993 -0.3469 -0.2026
  108MOL   H29634750   0.600   6.640   1.786  0.1477 -0.9366  0.1284
  108MOL   H29734751   0.471   6.840   1.887 -0.6142  1.7411 -0.1708
  108MOL   H29834752   0.359   6.827   1.758 -0.4708 -0.1934  0.2628
  108MOL   H29934753   0.532   6.849   1.724 -2.3787  1.8584 -0.3205
  108MOL   H30034754   0.356   6.587   1.615  0.1619  1.4336  0.8142
  108MOL   H30134755   0.704   6.435   1.540 -1.8266 -1.2365 -1.0411
  108MOL   H30234756   0.667   6.314   1.654  0.3499 -0.9203 -0.2601
  108MOL   H30334757   0.703   6.481   1.704 -2.0932 -0.2489  1.1923
  108MOL   H30434758   0.321   6.390   1.561  1.3159  0.6436 -1.4499
  108MOL   H30534759   0.455   6.254   1.600  3.1490  0.2790 -2.5745
  108MOL   C30634760   0.513   6.690   1.510  0.7421  0.0034 -1.0890
  108MOL   C30734761   0.471   6.635   1.379  0.2424 -0.1306  0.1903
  108MOL   C30834762   0.660   6.723   1.501  0.0169 -0.4297  0.3273
  108MOL   C30934763   0.703   6.845   1.422  0.3290  0.3817 -0.1926
  108MOL   C31034764   0.842   6.843   1.371 -0.2327 -0.6790 -0.2547
  108MOL   C31134765   0.629   6.956   1.405  0.3192 -0.4347  0.0912
  108MOL   H31234766   0.467   6.788   1.522 -1.3867 -1.2160  0.9923
  108MOL   H31334767   0.488   6.715   1.307 -0.0123 -0.3531 -0.1170
  108MOL   H31434768   0.362   6.629   1.374  0.1728  1.6396 -0.8485
  108MOL   H31534769   0.517   6.539   1.355  1.7481  0.7699 -0.5670
  108MOL   H31634770   0.706   6.746   1.598 -0.8550  0.6354  0.5065
  108MOL   H31734771   0.884   6.931   1.322 -0.2733  0.3149  1.4405
  108MOL   H31834772   0.835   6.775   1.286 -2.5435 -1.7420  0.7454
  108MOL   H31934773   0.919   6.807   1.440 -0.7111  0.5879  0.9666
  108MOL   H32034774   0.531   6.959   1.449 -0.6382 -0.3356 -1.9786
  108MOL   H32134775   0.657   7.039   1.341  1.0260 -0.5444  0.2492
  108MOL   H32234776   0.711   6.640   1.455 -2.5259 -1.9070  0.0689
  109MOL     C134777   1.170   5.573   1.573  0.9045 -0.1913 -0.2015
  109MOL     C234778   1.202   5.624   1.434 -0.3085 -0.2187  0.7422
  109MOL     C334779   1.298   5.528   1.662 -0.1210  0.0846  0.3982
  109MOL     C434780   1.379   5.418   1.600  0.6584 -0.2794  0.1981
  109MOL     C534781   1.529   5.423   1.625 -0.8548  0.2245  0.2801
  109MOL     C634782   1.334   5.318   1.520 -0.1285 -0.3722 -0.4033
  109MOL     H734783   1.105   5.646   1.620 -0.8867 -1.9252  0.1203
  109MOL     H834784   1.226   5.730   1.431  0.5858 -0.3704  2.0486
  109MOL     H934785   1.119   5.614   1.364  1.4927  2.7027 -1.9419
  109MOL    H1034786   1.291   5.580   1.388  0.8658  1.7398  1.0843
  109MOL    H1134787   1.365   5.613   1.646  2.5062 -1.7410  1.3172
  109MOL    H1234788   1.572   5.522   1.641 -0.2696  0.1053 -0.5699
  109MOL    H1334789   1.587   5.380   1.543  0.0725 -0.4286  1.2693
  109MOL    H1434790   1.545   5.378   1.723 -1.3074  0.9315  0.6895
  109MOL    H1534791   1.233   5.304   1.484 -0.4309 -1.1094  0.7201
  109MOL    H1634792   1.410   5.248   1.486  1.9221  0.8336  1.5219
  109MOL    H1734793   1.100   5.489   1.570 -0.9510  1.2956  0.7386
  109MOL    C1834794   1.274   5.494   1.810  0.7316 -0.5178 -0.0064
  109MOL    C1934795   1.134   5.448   1.843  0.4358 -0.1328 -0.3017
  109MOL    C2034796   1.341   5.587   1.919  0.1209 -0.6239 -0.1128
  109MOL    C2134797   1.394   5.502   2.036 -0.3593 -0.9284 -0.7269
  109MOL    C2234798   1.528   5.428   2.025  0.3486 -0.7434 -0.3321
  109MOL    C2334799   1.326   5.487   2.149 -0.5490 -0.2852 -0.8865
  109MOL    H2434800   1.319   5.396   1.824  1.5602  0.1154  2.0193
  109MOL    H2534801   1.116   5.413   1.944  1.7755 -0.1777 -0.0731
  109MOL    H2634802   1.114   5.364   1.776  0.3270  1.3565 -2.1801
  109MOL    H2734803   1.057   5.522   1.820 -0.8067 -1.1313  0.6047
  109MOL    H2834804   1.428   5.633   1.872 -0.3415  0.8745  0.4458
  109MOL    H2934805   1.510   5.325   1.992  0.4115 -0.6521 -0.6540
  109MOL    H3034806   1.566   5.401   2.124  1.5851  0.9697 -0.3324
  109MOL    H3134807   1.603   5.490   1.977 -0.1512 -1.2695 -1.8091
  109MOL    H3234808   1.231   5.536   2.162  0.2733  0.9267  0.7015
  109MOL    H3334809   1.372   5.427   2.225 -0.8089  1.3248  0.5637
  109MOL    C3434810   1.259   5.722   1.950  0.3044  0.0952  0.6385
  109MOL    C3534811   1.175   5.786   1.832 -0.2583 -0.4933  0.2489
  109MOL    C3634812   1.345   5.819   2.039 -0.2597 -0.1114  0.3873
  109MOL    C3734813   1.268   5.856   2.169  0.2239  0.2560  0.8130
  109MOL    C3834814   1.154   5.957   2.161 -0.0150  0.6390  0.2958
  109MOL    C3934815   1.297   5.802   2.290 -0.3757 -0.3452  0.5708
  109MOL    H4034816   1.185   5.683   2.020  0.2131 -0.0724  0.4509
  109MOL    H4134817   1.239   5.810   1.747 -1.8551  0.6838 -0.6416
  109MOL    H4234818   1.136   5.883   1.861  1.6569 -0.0672  1.5061
  109MOL    H4334819   1.092   5.721   1.802  0.9890 -1.6012 -0.9037
  109MOL    H4434820   1.419   5.753   2.084 -0.4269 -2.8096 -3.0263
  109MOL    H4534821   1.074   5.895   2.120 -0.2815  0.3451  1.2378
  109MOL    H4634822   1.176   6.027   2.081 -0.9406  0.8112  0.1861
  109MOL    H4734823   1.115   5.997   2.254 -0.7274 -0.6789  0.5786
  109MOL    H4834824   1.363   5.716   2.293 -0.0823 -0.1241  0.4629
  109MOL    H4934825   1.254   5.830   2.385 -1.3441 -0.1334  0.0813
  109MOL    C5034826   1.423   5.939   1.963  0.1594 -0.1586 -0.0842
  109MOL    C5134827   1.498   5.890   1.836 -0.1378 -0.1619 -0.1004
  109MOL    C5234828   1.520   6.027   2.046 -1.0133  0.3165 -0.6985
  109MOL    C5334829   1.622   5.954   2.134 -0.3545 -0.1137  0.7340
  109MOL    C5434830   1.747   5.914   2.053 -0.0860 -0.5872 -0.0280
  109MOL    C5534831   1.597   5.919   2.262  0.2934 -0.1006  0.2382
  109MOL    H5634832   1.343   6.002   1.923 -0.3154  0.7836  2.2569
  109MOL    H5734833   1.549   5.972   1.785 -0.7876  0.2423 -0.1020
  109MOL    H5834834   1.447   5.842   1.753  0.5573 -0.2390 -0.4899
  109MOL    H5934835   1.574   5.814   1.854 -0.2878 -0.1008  0.8020
  109MOL    H6034836   1.579   6.076   1.969 -1.5881  3.1638  0.6380
  109MOL    H6134837   1.832   5.882   2.114 -0.9502  0.0300  1.5240
  109MOL    H6234838   1.793   5.983   1.983  1.6392 -0.9992  0.6743
  109MOL    H6334839   1.720   5.821   2.004 -1.3986  0.8944 -2.1835
  109MOL    H6434840   1.502   5.947   2.305  0.7839  0.2667  1.1007
  109MOL    H6534841   1.666   5.857   2.318 -0.8700 -1.4540  0.1726
  109MOL    C6634842   1.451   6.155   2.121  0.1612  0.8419  0.9978
  109MOL    C6734843   1.381   6.249   2.021  0.7237  0.9060 -0.0738
  109MOL    C6834844   1.525   6.233   2.228 -0.7370 -0.3573  0.1234
  109MOL    C6934845   1.430   6.261   2.342  0.6945  0.2862  0.0562
  109MOL    C7034846   1.416   6.156   2.454  0.0415  0.2343 -0.6456
  109MOL    C7134847   1.359   6.374   2.354 -0.2253 -0.7395 -0.2785
  109MOL    H7234848   1.366   6.113   2.175  0.6401 -1.7296 -0.1925
  109MOL    H7334849   1.453   6.285   1.949 -1.4180  1.7237 -1.8769
  109MOL    H7434850   1.330   6.334   2.066 -0.7614  0.5154 -0.9624
  109MOL    H7534851   1.302   6.197   1.967 -0.0120 -0.7927  2.5356
  109MOL    H7634852   1.599   6.175   2.282  0.4086  1.5728  0.6963
  109MOL    H7734853   1.333   6.178   2.521 -0.0550  1.7721 -1.2579
  109MOL    H7834854   1.518   6.156   2.493 -0.2064 -0.7919  0.0405
  109MOL    H7934855   1.394   6.055   2.419  1.0506  0.0896 -0.8945
  109MOL    H8034856   1.364   6.458   2.287  0.9732 -0.2932  0.3585
  109MOL    H8134857   1.303   6.389   2.445 -1.9438 -0.8946 -1.2857
  109MOL    C8234858   1.619   6.346   2.196 -0.1611 -0.6390  1.1932
  109MOL    C8334859   1.708   6.319   2.076  0.2099  0.2301 -0.6581
  109MOL    C8434860   1.704   6.411   2.315 -0.0294  0.7083  0.6765
  109MOL    C8534861   1.741   6.556   2.276 -0.1748  0.4471  0.3325
  109MOL    C8634862   1.645   6.667   2.304  0.1024  0.4268 -0.5890
  109MOL    C8734863   1.860   6.579   2.216 -0.5918  0.1130 -0.7305
  109MOL    H8834864   1.546   6.420   2.161  1.0340 -0.1551 -0.3157
  109MOL    H8934865   1.661   6.300   1.979  1.9183 -1.4447 -1.1957
  109MOL    H9034866   1.751   6.221   2.096  1.2402  0.8928  0.3970
  109MOL    H9134867   1.780   6.397   2.054  2.8102 -2.0020 -0.3591
  109MOL    H9234868   1.630   6.431   2.393 -2.5204  0.5653 -1.5722
  109MOL    H9334869   1.540   6.651   2.278  0.3865 -0.1331 -1.3856
  109MOL    H9434870   1.681   6.760   2.260  0.5635  0.8698  0.6934
  109MOL    H9534871   1.641   6.683   2.412  1.1613  0.2452 -0.5184
  109MOL    H9634872   1.933   6.502   2.193  0.3997  1.2784 -1.5835
  109MOL    H9734873   1.889   6.678   2.185  0.0412  0.3410  0.5561
  109MOL    C9834874   1.820   6.341   2.408  0.3450  0.3266  0.1506
  109MOL    C9934875   1.798   6.192   2.452 -0.1963  0.1642  0.1945
  109MOL   C10034876   1.880   6.424   2.527  0.3484  0.3074 -0.0511
  109MOL   C10134877   2.032   6.400   2.529  0.3113  0.3395 -0.0747
  109MOL   C10234878   2.117   6.501   2.445 -1.2854 -0.1920 -0.0805
  109MOL   C10334879   2.086   6.299   2.594 -0.3012 -0.8043 -0.4919
  109MOL   H10434880   1.901   6.329   2.336  0.0792 -0.5667 -0.0045
  109MOL   H10534881   1.771   6.128   2.368 -1.7766  1.1790 -0.1008
  109MOL   H10634882   1.715   6.196   2.523 -1.1585  0.7097 -0.9412
  109MOL   H10734883   1.890   6.148   2.490 -0.4536 -0.4898  0.0765
  109MOL   H10834884   1.874   6.526   2.489  0.3321 -0.3482 -1.8265
  109MOL   H10934885   2.218   6.467   2.422 -0.8082 -0.8798  2.8440
  109MOL   H11034886   2.115   6.600   2.489  0.1187 -0.3569  0.3804
  109MOL   H11134887   2.070   6.526   2.350 -3.1155  2.0928  1.3545
  109MOL   H11234888   2.017   6.242   2.654  0.6806 -1.1426  0.3383
  109MOL   H11334889   2.193   6.288   2.603 -0.2562 -0.7462 -0.9395
  109MOL   C11434890   1.803   6.412   2.666  0.3518 -0.3199 -0.3071
  109MOL   C11534891   1.655   6.452   2.652 -0.3340 -0.0714 -0.5810
  109MOL   C11634892   1.865   6.494   2.782 -0.5441  0.5991  0.1238
  109MOL   C11734893   1.847   6.422   2.917 -0.1158 -0.8432 -0.0585
  109MOL   C11834894   1.956   6.311   2.953 -0.1324 -0.1408  0.4957
  109MOL   C11934895   1.745   6.443   3.009 -0.6545  0.1042  0.5107
  109MOL   H12034896   1.809   6.311   2.706  1.3687  0.9760  2.9719
  109MOL   H12134897   1.586   6.375   2.617  0.5237 -2.0786  1.9394
  109MOL   H12234898   1.631   6.541   2.594  0.8394  0.3771 -0.3878
  109MOL   H12334899   1.622   6.469   2.755  1.4786 -2.0690  0.3661
  109MOL   H12434900   1.969   6.505   2.752  0.5181 -1.0368  3.0766
  109MOL   H12534901   1.928   6.252   3.040  1.0858 -3.2599 -1.1230
  109MOL   H12634902   2.051   6.364   2.961  1.6007 -2.9853 -0.6128
  109MOL   H12734903   1.965   6.233   2.877  0.7748 -0.4800  0.9516
  109MOL   H12834904   1.676   6.525   2.994  0.9670  1.2321 -1.0782
  109MOL   H12934905   1.742   6.391   3.103  0.2319 -2.0213 -0.6057
  109MOL   C13034906   1.828   6.654   2.788 -0.7497 -0.0598 -0.0685
  109MOL   C13134907   1.858   6.734   2.657  0.3567 -0.5451  0.1405
  109MOL   C13234908   1.873   6.725   2.914  0.2025 -0.4658 -0.0644
  109MOL   C13334909   1.766   6.829   2.951  0.0285 -0.3453 -0.7194
  109MOL   C13434910   1.635   6.788   3.021 -0.5689 -0.4675 -0.4520
  109MOL   C13534911   1.774   6.960   2.918  0.4108 -0.4563 -0.0073
  109MOL   H13634912   1.720   6.671   2.795 -0.8407 -0.6255 -0.1084
  109MOL   H13734913   1.936   6.701   2.589  0.9375  1.6212 -0.3099
  109MOL   H13834914   1.863   6.842   2.676  0.1546 -0.1279 -1.9699
  109MOL   H13934915   1.774   6.729   2.588  2.3220 -0.9599 -2.2794
  109MOL   H14034916   1.866   6.662   3.002 -1.0658  2.4418  2.0263
  109MOL   H14134917   1.575   6.877   3.039  3.5066  2.0138  1.6454
  109MOL   H14234918   1.649   6.741   3.119 -2.5235 -3.7547 -1.6629
  109MOL   H14334919   1.575   6.732   2.950 -0.6747 -2.1821  0.9481
  109MOL   H14434920   1.861   6.999   2.866 -0.3023 -0.2456 -1.0566
  109MOL   H14534921   1.705   7.039   2.943  1.2459  0.2703  0.0525
  109MOL   C14634922   2.024   6.780   2.911  0.2591 -0.5334 -0.1904
  109MOL   C14734923   2.125   6.671   2.864 -0.1092 -0.9016 -0.1125
  109MOL   C14834924   2.073   6.861   3.033 -0.0452 -0.4764  0.6385
  109MOL   C14934925   2.191   6.955   2.990 -0.7754 -0.1254 -0.6838
  109MOL   C15034926   2.163   7.084   2.913  0.4512  0.1382  0.0748
  109MOL   C15134927   2.322   6.914   3.002 -0.9684  0.5014  0.6902
  109MOL   H15234928   2.033   6.845   2.824  1.0148 -0.1806  0.1484
  109MOL   H15334929   2.222   6.715   2.884 -0.2956  0.1233 -1.3620
  109MOL   H15434930   2.126   6.652   2.757  1.5645 -1.8157  0.0531
  109MOL   H15534931   2.111   6.580   2.922 -0.5115 -1.3713 -0.9372
  109MOL   H15634932   2.002   6.944   3.040  0.5374  0.0381  0.4929
  109MOL   H15734933   2.078   7.129   2.965 -0.1094  0.1292 -0.8320
  109MOL   H15834934   2.127   7.053   2.816  1.5784  0.7223 -0.5448
  109MOL   H15934935   2.251   7.149   2.909  1.0440 -0.4095  2.8999
  109MOL   H16034936   2.350   6.822   3.051  1.4742  0.2164 -1.1629
  109MOL   H16134937   2.403   6.974   2.964 -1.6052  1.2570  0.5211
  109MOL   C16234938   2.087   6.797   3.174  0.5410 -0.2563  0.0505
  109MOL   C16334939   2.005   6.670   3.214 -0.1506  0.3546 -0.6601
  109MOL   C16434940   2.092   6.904   3.290  0.8821  0.2436 -0.2040
  109MOL   C16534941   2.201   6.866   3.390  0.1357 -0.2196 -0.5442
  109MOL   C16634942   2.337   6.925   3.365  0.2511  0.2940  0.0713
  109MOL   C16734943   2.185   6.783   3.495  0.2709  0.2294 -0.1434
  109MOL   H16834944   2.186   6.754   3.185 -0.0994 -1.7644  0.0050
  109MOL   H16934945   2.032   6.581   3.158  1.3824  0.1927  0.2894
  109MOL   H17034946   1.899   6.694   3.220 -0.6362 -1.4140 -2.0507
  109MOL   H17134947   2.022   6.646   3.319 -1.3162 -0.6325 -0.6938
  109MOL   H17234948   2.119   7.001   3.247 -1.0517  0.9696  0.1582
  109MOL   H17334949   2.347   7.028   3.331 -1.3297  0.2834 -0.4568
  109MOL   H17434950   2.387   6.860   3.292  1.3113 -0.3756  1.3630
  109MOL   H17534951   2.405   6.919   3.450  0.8462 -0.1411 -0.4239
  109MOL   H17634952   2.092   6.733   3.516 -1.1314  2.5335 -0.7490
  109MOL   H17734953   2.273   6.770   3.556  0.1710 -1.0887 -0.2566
  109MOL   C17834954   1.956   6.930   3.364 -0.6123 -0.1226 -0.3887
  109MOL   C17934955   1.832   6.953   3.282 -0.1517  0.7966 -0.0618
  109MOL   C18034956   1.963   7.037   3.483 -0.5078 -0.7646  0.4976
  109MOL   C18134957   1.898   6.980   3.607 -0.6384 -0.0142  0.7168
  109MOL   C18234958   1.745   6.976   3.613 -1.0340  0.4122 -0.3188
  109MOL   C18334959   1.970   6.923   3.706  0.3187  0.0549 -0.1317
  109MOL   H18434960   1.942   6.830   3.405  1.2173  0.2049  1.0748
  109MOL   H18534961   1.751   6.994   3.341  0.8112 -0.3322  2.1258
  109MOL   H18634962   1.793   6.867   3.227  1.9887 -0.7872  0.8118
  109MOL   H18734963   1.847   7.026   3.202  2.5638 -2.8403 -3.0568
  109MOL   H18834964   2.065   7.048   3.520 -0.9175  1.8336  0.8777
  109MOL   H18934965   1.700   6.980   3.712  1.3886 -0.3547  0.8473
  109MOL   H19034966   1.712   6.887   3.560 -0.8792 -2.3377  4.0245
  109MOL   H19134967   1.706   7.067   3.566 -1.6946 -0.5503 -1.6660
  109MOL   H19234968   2.077   6.919   3.715  0.3627  1.3514 -0.0083
  109MOL   H19334969   1.928   6.874   3.793  3.3092 -2.3444  0.0080
  109MOL   C19434970   1.925   7.184   3.449 -0.8063  0.0542  0.1802
  109MOL   C19534971   2.013   7.244   3.333 -0.2557  0.6424  0.3623
  109MOL   C19634972   1.893   7.280   3.570 -0.0311  0.1638  0.2213
  109MOL   C19734973   1.799   7.388   3.510 -0.0401 -0.2302 -0.0508
  109MOL   C19834974   1.652   7.358   3.519 -0.4844 -0.0691 -0.3831
  109MOL   C19934975   1.839   7.511   3.470 -0.6818 -0.2098  0.5084
  109MOL   H20034976   1.830   7.177   3.395 -1.7945 -1.1650  2.0232
  109MOL   H20134977   2.120   7.232   3.348 -0.1444 -0.3306 -1.1016
  109MOL   H20234978   2.000   7.349   3.305 -1.7249  0.5688  0.7108
  109MOL   H20334979   1.996   7.192   3.238  2.8362  2.6776 -1.3751
  109MOL   H20434980   1.828   7.236   3.646  1.0523  0.1799  1.1688
  109MOL   H20534981   1.590   7.444   3.491  1.3189  0.2284 -3.6034
  109MOL   H20634982   1.627   7.329   3.621 -0.0785 -0.3524 -0.3642
  109MOL   H20734983   1.611   7.276   3.461  0.1353  0.8162 -2.0961
  109MOL   H20834984   1.942   7.543   3.461 -0.7151  0.4217  2.2466
  109MOL   H20934985   1.764   7.584   3.442 -2.0950 -1.5479  0.7416
  109MOL   C21034986   2.013   7.336   3.651  0.1708 -0.0738  0.2663
  109MOL   C21134987   2.132   7.244   3.681  0.3182 -0.0194 -0.1185
  109MOL   C21234988   1.966   7.418   3.782  0.5818  0.4443 -0.6258
  109MOL   C21334989   2.037   7.557   3.775  0.1124  0.0264 -0.2984
  109MOL   C21434990   2.184   7.554   3.800 -0.5695 -0.0762  0.0782
  109MOL   C21534991   1.966   7.667   3.757  0.6907 -0.5160 -0.1223
  109MOL   H21634992   2.058   7.403   3.576 -0.7676  0.4588  0.1647
  109MOL   H21734993   2.201   7.293   3.749  0.4953 -0.5370  0.0732
  109MOL   H21834994   2.187   7.227   3.588 -1.0451 -1.2508 -0.7095
  109MOL   H21934995   2.092   7.156   3.731 -2.1442 -0.2706 -2.3973
  109MOL   H22034996   1.863   7.446   3.760 -0.3796 -1.0406  1.8922
  109MOL   H22134997   2.197   7.495   3.890  0.7486  0.7519  0.4389
  109MOL   H22234998   2.214   7.658   3.811 -3.0851  0.9530 -2.2358
  109MOL   H22334999   2.236   7.509   3.715  0.0373 -2.0305  1.4546
  109MOL   H22435000   1.860   7.665   3.736  0.3704  2.3892  1.0205
  109MOL   H22535001   2.017   7.762   3.754 -1.0614  0.4713  0.7707
  109MOL   C22635002   1.974   7.347   3.927  0.2519  0.7634  0.2523
  109MOL   C22735003   1.910   7.205   3.947  0.5300  0.5619 -0.0058
  109MOL   C22835004   1.927   7.434   4.048  0.4280  0.4178  0.4198
  109MOL   C22935005   2.009   7.400   4.170 -0.7198  0.2284  0.5001
  109MOL   C23035006   2.108   7.510   4.214  0.5983 -0.3294  0.3471
  109MOL   C23135007   1.983   7.298   4.256  0.9687 -0.2423  0.4167
  109MOL   H23235008   2.078   7.319   3.946  0.0726  0.1198  0.2790
  109MOL   H23335009   1.952   7.154   4.034  1.9316 -0.9161 -1.5206
  109MOL   H23435010   1.935   7.138   3.865 -1.8724 -1.7869  1.0962
  109MOL   H23535011   1.801   7.206   3.952  0.5869  0.2832  1.4128
  109MOL   H23635012   1.948   7.537   4.021  0.4597 -0.4865 -3.3681
  109MOL   H23735013   2.188   7.528   4.142 -0.0438  2.6977  0.3088
  109MOL   H23835014   2.166   7.474   4.299 -0.4936 -0.2884  1.1220
  109MOL   H23935015   2.058   7.606   4.231  0.9778 -0.0657 -0.0142
  109MOL   H24035016   1.914   7.220   4.228  1.8554 -1.3165  1.1762
  109MOL   H24135017   2.041   7.302   4.347  1.9837 -0.1220 -0.2355
  109MOL   C24235018   1.769   7.431   4.081 -0.1937  0.0896 -0.1589
  109MOL   C24335019   1.678   7.452   3.957  0.5988 -0.0045 -0.0875
  109MOL   C24435020   1.728   7.534   4.197 -0.0964 -0.2112 -0.1379
  109MOL   C24535021   1.675   7.467   4.327 -0.7793 -0.0881 -0.1506
  109MOL   C24635022   1.742   7.522   4.454 -0.4684 -0.3570 -0.1258
  109MOL   C24735023   1.587   7.367   4.324 -0.2482  1.0210  0.1395
  109MOL   H24835024   1.758   7.329   4.119 -0.5869  0.5096  0.8731
  109MOL   H24935025   1.698   7.549   3.911  0.6982  0.9758  1.9461
  109MOL   H25035026   1.574   7.442   3.990  0.6560 -0.9649 -0.1872
  109MOL   H25135027   1.699   7.384   3.875 -2.5500  0.9560 -1.8063
  109MOL   H25235028   1.825   7.574   4.226  1.0328 -3.0268  0.0787
  109MOL   H25335029   1.730   7.628   4.471 -1.2957 -0.3878 -0.4987
  109MOL   H25435030   1.842   7.479   4.446  0.0103  1.0952 -2.6093
  109MOL   H25535031   1.690   7.480   4.540 -1.3577  0.5020 -0.2430
  109MOL   H25635032   1.550   7.343   4.225 -2.1674 -0.3135  1.1692
  109MOL   H25735033   1.550   7.314   4.409  3.6722  0.3372  1.5238
  109MOL   C25835034   1.651   7.669   4.171 -0.9165  0.2395  0.4465
  109MOL   C25935035   1.507   7.646   4.128 -0.3531 -0.1539 -0.4233
  109MOL   C26035036   1.729   7.789   4.108 -0.2411  0.0604 -0.3604
  109MOL   C26135037   1.867   7.820   4.179  0.1192  0.1674  0.1784
  109MOL   C26235038   1.982   7.851   4.090 -1.1248  0.2728  0.2955
  109MOL   C26335039   1.883   7.826   4.314  0.1414  0.0695 -0.4232
  109MOL   H26435040   1.645   7.712   4.271  0.6236 -1.1454  1.1659
  109MOL   H26535041   1.463   7.566   4.188 -1.9766  3.2021  3.1769
  109MOL   H26635042   1.490   7.629   4.022  0.4498  0.3257 -0.6304
  109MOL   H26735043   1.447   7.736   4.145  1.3744  1.0238 -0.4922
  109MOL   H26835044   1.765   7.758   4.010 -0.0530 -2.9893  0.6191
  109MOL   H26935045   2.072   7.807   4.132 -0.8882  2.1852  1.8414
  109MOL   H27035046   1.990   0.066   4.080 -1.1313  0.1257 -1.5826
  109MOL   H27135047   1.966   7.814   3.988  1.2460  1.1413 -0.4215
  109MOL   H27235048   1.804   7.796   4.382  0.0934 -1.1040 -0.9800
  109MOL   H27335049   1.981   7.852   4.353 -0.5808  0.6866  0.9957
  109MOL   C27435050   1.656   0.035   4.091  0.2852 -1.1768 -0.5630
  109MOL   C27535051   1.597   0.086   4.219 -0.2281 -0.1622 -0.3201
  109MOL   C27635052   1.573   0.048   3.961 -0.1513 -0.1180 -0.3446
  109MOL   C27735053   1.639   0.003   3.830 -0.0326  0.1999  0.5704
  109MOL   C27835054   1.552   7.820   3.736  0.3949  0.4871  0.4345
  109MOL   C27935055   1.761   0.040   3.790  0.2688  0.3581 -0.4450
  109MOL   H28035056   1.742   0.101   4.086 -0.0276 -0.5392  1.9467
  109MOL   H28135057   1.519   0.016   4.250 -2.9395  1.7471 -2.4951
  109MOL   H28235058   1.552   0.186   4.219  1.0190  0.4051 -0.4558
  109MOL   H28335059   1.671   0.090   4.299 -0.4311 -2.2202 -0.0109
  109MOL   H28435060   1.495   7.864   3.965  2.0223 -2.3897 -0.3601
  109MOL   H28535061   1.618   7.777   3.660  1.3526  0.6231  1.1818
  109MOL   H28635062   1.471   7.876   3.688 -0.3005 -0.8329  0.0496
  109MOL   H28735063   1.509   7.733   3.784  0.0562  0.5795  0.3026
  109MOL   H28835064   1.831   0.090   3.856  0.5257 -1.6688  0.8549
  109MOL   H28935065   1.788   0.021   3.687  1.4025  3.2051 -0.7392
  109MOL   C29035066   1.508   0.182   3.930  0.5433 -0.5879 -0.4012
  109MOL   C29135067   1.598   0.309   3.956 -0.2651  0.1840  1.1566
  109MOL   C29235068   1.368   0.215   3.997 -0.2401 -0.8143 -0.6027
  109MOL   C29335069   1.285   0.086   4.004  0.8568  0.1438 -0.5400
  109MOL   C29435070   1.225   0.047   4.145  0.2108  0.6481 -0.6104
  109MOL   C29535071   1.263   0.010   3.896  0.1965 -0.2687  0.0457
  109MOL   H29635072   1.497   0.187   3.821  3.1494  1.2236 -0.6252
  109MOL   H29735073   1.700   0.290   3.922 -0.1799 -2.4550  2.7028
  109MOL   H29835074   1.603   0.336   4.062  0.4325 -0.6711  1.3518
  109MOL   H29935075   1.554   0.392   3.902  2.2439  0.8931  0.1427
  109MOL   H30035076   1.396   0.230   4.101  0.6450  0.7716 -1.0479
  109MOL   H30135077   1.296   0.035   4.227 -0.7859 -0.2594  0.1522
  109MOL   H30235078   1.170   7.845   4.140 -0.5178  1.1104 -1.3893
  109MOL   H30335079   1.168   0.128   4.191  2.3284  0.8228  1.8550
  109MOL   H30435080   1.291   0.041   3.796 -0.9408 -0.2920 -0.2901
  109MOL   H30535081   1.205   7.811   3.907 -0.6779 -0.1342 -2.9635
  109MOL   C30635082   1.291   0.338   3.940 -0.0666 -0.0558 -0.6423
  109MOL   C30735083   1.164   0.366   4.033  0.2375  0.0257  0.2442
  109MOL   C30835084   1.255   0.326   3.790 -0.4638  0.5525  0.1920
  109MOL   C30935085   1.183   0.451   3.741 -0.9188  0.6640 -0.2183
  109MOL   C31035086   1.265   0.577   3.725 -0.4896 -0.6939 -0.0338
  109MOL   C31135087   1.058   0.440   3.705  0.2987 -0.2608  0.0315
  109MOL   H31235088   1.354   0.424   3.964  0.4442 -0.4044 -0.7235
  109MOL   H31335089   1.133   0.468   4.010 -0.6117 -0.2020  0.3872
  109MOL   H31435090   1.194   0.373   4.137  0.9382 -1.6080  0.1692
  109MOL   H31535091   1.083   0.297   4.010 -1.1809  1.6052  0.4401
  109MOL   H31635092   1.351   0.323   3.739 -1.5748  0.0596 -1.8981
  109MOL   H31735093   1.213   0.660   3.676 -0.4429 -1.0446 -0.6787
  109MOL   H31835094   1.346   0.562   3.654  0.2541  2.6962 -0.0195
  109MOL   H31935095   1.306   0.603   3.823 -1.2702 -0.6137  0.2708
  109MOL   H32035096   1.006   0.345   3.709 -0.1240 -0.1349 -2.0413
  109MOL   H32135097   0.999   0.516   3.656  2.3068  0.7518 -0.8721
  109MOL   H32235098   1.195   0.238   3.769 -0.7400  0.8481 -0.2548
  110MOL     C135099   1.292   7.460   2.775  0.4340 -0.3478  0.1863
  110MOL     C235100   1.389   7.541   2.691 -0.1162 -0.4907 -0.1268
  110MOL     C335101   1.184   7.377   2.694  0.4109  0.1638  1.0920
  110MOL     C435102   1.074   7.472   2.639  0.0524 -0.1652 -0.1438
  110MOL     C535103   0.981   7.546   2.736 -0.1964  0.7893  0.2120
  110MOL     C635104   1.057   7.502   2.509 -0.4538 -0.1991 -0.0600
  110MOL     H735105   1.354   7.385   2.825 -0.2688 -1.0387  0.0303
  110MOL     H835106   1.489   7.500   2.681  1.0600  2.2479  0.1070
  110MOL     H935107   1.400   7.642   2.731  2.4551 -0.9295  0.3311
  110MOL    H1035108   1.337   7.548   2.595  0.3991  1.8203 -0.2502
  110MOL    H1135109   1.238   7.336   2.609 -0.1735  0.5715  0.5206
  110MOL    H1235110   0.944   7.636   2.687 -0.8828 -0.2531 -1.2035
  110MOL    H1335111   1.031   7.557   2.833 -3.1790  3.5482  1.5320
  110MOL    H1435112   0.899   7.476   2.751 -0.5566  1.6832  2.7820
  110MOL    H1535113   1.118   7.462   2.429  0.0929 -1.3815  0.9341
  110MOL    H1635114   0.983   7.573   2.475 -0.7620  0.1784  1.3596
  110MOL    H1735115   1.255   7.530   2.850  0.2756  0.5555 -0.7286
  110MOL    C1835116   1.133   7.251   2.753 -0.0694  0.1205 -0.2004
  110MOL    C1935117   1.101   7.270   2.901 -0.2475  0.3187 -0.4452
  110MOL    C2035118   1.222   7.119   2.728 -0.2264  0.8508  0.1012
  110MOL    C2135119   1.372   7.127   2.773  0.2139 -0.0308  0.0075
  110MOL    C2235120   1.410   7.103   2.916  0.7103 -0.2619 -0.0603
  110MOL    C2335121   1.470   7.133   2.683  0.0660 -0.8245  0.0643
  110MOL    H2435122   1.033   7.226   2.718 -0.2293 -1.2885  1.1948
  110MOL    H2535123   1.011   7.330   2.894 -0.8039  0.0542  3.3963
  110MOL    H2635124   1.173   7.310   2.971 -0.8029  1.6723 -0.6395
  110MOL    H2735125   1.071   7.176   2.948  2.7102  0.6521  2.2605
  110MOL    H2835126   1.189   7.052   2.808 -0.2477  0.8963  0.1304
  110MOL    H2935127   1.513   7.136   2.933  0.9883  0.0932 -2.2807
  110MOL    H3035128   1.418   6.995   2.926 -1.7008 -0.6533 -1.9951
  110MOL    H3135129   1.331   7.135   2.984  0.3760 -1.6713  0.2279
  110MOL    H3235130   1.437   7.145   2.581 -1.9666  0.5200  0.8339
  110MOL    H3335131   1.575   7.129   2.708  0.5622 -1.7458 -2.0620
  110MOL    C3435132   1.198   7.039   2.592 -0.0620  0.5496  0.0901
  110MOL    C3535133   1.185   7.122   2.463 -0.3563 -0.2895 -0.2330
  110MOL    C3635134   1.091   6.927   2.604  0.4570 -0.2019  0.2093
  110MOL    C3735135   0.950   6.983   2.636  0.6789  0.6920  0.3532
  110MOL    C3835136   0.866   7.001   2.510  0.0999  0.1539 -0.2725
  110MOL    C3935137   0.898   7.009   2.758  1.0970  0.4379  0.3310
  110MOL    H4035138   1.293   6.993   2.568 -0.3494  1.4329 -3.0052
  110MOL    H4135139   1.178   7.053   2.378 -0.5307 -0.6698  0.0871
  110MOL    H4235140   1.271   7.185   2.441  0.1128 -0.9012 -0.1439
  110MOL    H4335141   1.100   7.190   2.459 -1.5063 -1.6815 -0.0403
  110MOL    H4435142   1.084   6.885   2.504 -1.0693  2.6441 -0.9203
  110MOL    H4535143   0.882   6.933   2.426 -0.2553 -0.2110 -0.0506
  110MOL    H4635144   0.896   7.092   2.459  2.2418 -0.9638 -1.0789
  110MOL    H4735145   0.761   7.001   2.538 -0.2359  2.6771 -1.3872
  110MOL    H4835146   0.961   7.005   2.845  0.7606  1.5432  0.6286
  110MOL    H4935147   0.796   7.045   2.763 -0.9139 -4.6528 -0.2813
  110MOL    C5035148   1.138   6.808   2.709 -0.3237 -0.6077 -0.7621
  110MOL    C5135149   1.292   6.769   2.700  0.3309  0.2672 -0.4006
  110MOL    C5235150   1.048   6.688   2.719 -0.2283  0.3144 -0.2707
  110MOL    C5335151   1.039   6.641   2.866  0.6429 -0.7411 -0.4087
  110MOL    C5435152   0.950   6.721   2.960 -0.0968  0.5180 -1.1578
  110MOL    C5535153   1.125   6.557   2.923  0.1749 -0.0207  0.0482
  110MOL    H5635154   1.127   6.851   2.809  1.0201 -2.6223  0.2773
  110MOL    H5735155   1.328   6.698   2.773  0.8669  0.2422 -0.6893
  110MOL    H5835156   1.367   6.846   2.720  2.8524 -2.6928  1.8200
  110MOL    H5935157   1.308   6.728   2.600 -0.0736 -0.8539 -0.0007
  110MOL    H6035158   0.944   6.718   2.706 -0.5338 -0.1087  1.1769
  110MOL    H6135159   0.954   6.673   3.058  0.0336 -0.3303 -1.5762
  110MOL    H6235160   0.853   6.724   2.910 -1.4092  1.0397  1.3339
  110MOL    H6335161   0.976   6.823   2.987 -0.0804  0.1869  0.1089
  110MOL    H6435162   1.209   6.507   2.877  1.2090  1.1597  0.6232
  110MOL    H6535163   1.109   6.532   3.026 -1.5555  0.9066  0.0133
  110MOL    C6635164   1.071   6.571   2.620 -0.6345 -0.6108  0.1726
  110MOL    C6735165   1.068   6.607   2.470  0.2199  0.0429 -0.5933
  110MOL    C6835166   0.981   6.444   2.643 -0.4300  0.2250  0.3615
  110MOL    C6935167   1.056   6.314   2.595 -0.0901  0.5257 -0.3476
  110MOL    C7035168   1.143   6.257   2.704  0.5695  0.0900 -0.5359
  110MOL    C7135169   1.040   6.241   2.483 -0.7285  0.7036  0.9534
  110MOL    H7235170   1.163   6.519   2.643 -0.1735 -0.7555 -1.8842
  110MOL    H7335171   1.076   6.520   2.406 -0.3787 -0.2956 -0.2209
  110MOL    H7435172   1.144   6.678   2.438  0.9366 -0.7855 -0.7315
  110MOL    H7535173   0.977   6.661   2.443 -0.9610  0.2862  3.5126
  110MOL    H7635174   0.983   6.444   2.752  3.5086 -0.4880  0.3618
  110MOL    H7735175   1.090   6.268   2.799  2.0459 -0.0974  0.3275
  110MOL    H7835176   1.239   6.308   2.714  1.5510 -2.1283  2.2520
  110MOL    H7935177   1.172   6.152   2.697  0.2399 -0.0207 -0.2829
  110MOL    H8035178   0.965   6.265   2.408 -1.4446 -0.5206  1.2679
  110MOL    H8135179   1.094   6.149   2.471 -0.7098  0.7661  0.5355
  110MOL    C8235180   0.833   6.440   2.604  0.0780  0.4877 -0.0887
  110MOL    C8335181   0.754   6.575   2.622 -0.2880 -0.3374  0.3042
  110MOL    C8435182   0.762   6.319   2.675 -0.5182  0.0933  0.6262
  110MOL    C8535183   0.691   6.230   2.574  0.0280 -0.5068 -0.0626
  110MOL    C8635184   0.573   6.299   2.505 -0.1830 -0.6208 -0.7553
  110MOL    C8735185   0.737   6.107   2.538  0.1536 -0.7233 -0.1925
  110MOL    H8835186   0.832   6.429   2.495  1.0100  0.0739 -0.0626
  110MOL    H8935187   0.736   6.605   2.725 -0.6491  1.3007 -0.2206
  110MOL    H9035188   0.655   6.558   2.581 -0.6323  0.0515  0.9749
  110MOL    H9135189   0.792   6.664   2.571 -3.5285  2.0122  1.8476
  110MOL    H9235190   0.834   6.252   2.721 -1.5775 -0.0485  2.1028
  110MOL    H9335191   0.600   6.373   2.431  2.7225 -1.5730 -0.7100
  110MOL    H9435192   0.500   6.352   2.567  0.9464 -0.1805  0.2187
  110MOL    H9535193   0.509   6.231   2.449 -0.1748 -0.8485 -0.4932
  110MOL    H9635194   0.825   6.071   2.589 -0.4497  0.0447  1.3903
  110MOL    H9735195   0.689   6.053   2.458 -0.6699 -0.0688 -0.1457
  110MOL    C9835196   0.674   6.346   2.807  0.2080 -0.2659 -0.2961
  110MOL    C9935197   0.760   6.411   2.919 -0.2420  0.0327 -0.1653
  110MOL   C10035198   0.585   6.214   2.854 -0.8005  0.0851  0.1265
  110MOL   C10135199   0.437   6.246   2.850  0.1994 -0.3434  0.7322
  110MOL   C10235200   0.396   6.353   2.942  0.5696  0.2413  0.2418
  110MOL   C10335201   0.354   6.166   2.779 -0.2944 -0.2344  0.3821
  110MOL   H10435202   0.612   6.429   2.776 -0.0405  0.8190  2.9595
  110MOL   H10535203   0.788   6.514   2.894 -1.0195  0.2319 -0.2202
  110MOL   H10635204   0.852   6.357   2.943 -0.1313  0.1987 -0.2074
  110MOL   H10735205   0.700   6.416   3.010 -0.2014 -2.0811 -0.0036
  110MOL   H10835206   0.594   6.131   2.784 -1.9306 -0.4886  0.6443
  110MOL   H10935207   0.454   6.441   2.915  0.6849  0.3879  0.9576
  110MOL   H11035208   0.437   6.333   3.041  0.1250  0.7823  0.5433
  110MOL   H11135209   0.291   6.383   2.939  0.6271  0.4113 -0.0958
  110MOL   H11235210   0.391   6.088   2.714 -0.5255 -0.2559  0.2744
  110MOL   H11335211   0.247   6.184   2.779 -0.2682  0.1910 -2.8971
  110MOL   C11435212   0.639   6.143   2.988 -0.0177 -0.7641 -0.2492
  110MOL   C11535213   0.778   6.071   2.952 -0.3182 -0.5474 -0.0777
  110MOL   C11635214   0.535   6.048   3.069 -0.6565  0.5450 -1.0397
  110MOL   C11735215   0.553   6.071   3.217 -0.2963 -0.2357  0.1318
  110MOL   C11835216   0.674   6.012   3.295  0.7405 -0.2887  0.0018
  110MOL   C11935217   0.465   6.152   3.280 -0.5948 -0.0071 -0.4005
  110MOL   H12035218   0.654   6.227   3.056 -0.7274 -0.3336 -0.6155
  110MOL   H12135219   0.804   5.995   3.025  1.0098 -0.2588 -0.2360
  110MOL   H12235220   0.860   6.143   2.952 -0.4207 -0.3931 -2.2489
  110MOL   H12335221   0.783   6.024   2.854  3.1232  2.5204 -1.5004
  110MOL   H12435222   0.434   6.075   3.041 -0.4793  1.0180 -1.2255
  110MOL   H12535223   0.691   5.907   3.272 -1.1099 -0.7237  0.5609
  110MOL   H12635224   0.657   6.022   3.402  0.1510  0.7988 -0.1804
  110MOL   H12735225   0.764   6.072   3.282 -0.4223  1.2471 -1.1342
  110MOL   H12835226   0.383   6.200   3.229 -0.6588  2.0412  1.5465
  110MOL   H12935227   0.480   6.183   3.383 -0.5264 -0.0116 -0.4091
  110MOL   C13035228   0.540   5.896   3.033 -0.9011 -0.5614  1.0245
  110MOL   C13135229   0.524   5.887   2.882 -1.0127 -0.6566 -0.0092
  110MOL   C13235230   0.453   5.793   3.116  0.9310 -0.8339 -0.1786
  110MOL   C13335231   0.490   5.650   3.081  1.1774 -0.3806  0.7375
  110MOL   C13435232   0.630   5.597   3.123  0.4472 -0.6602 -0.3019
  110MOL   C13535233   0.404   5.562   3.016 -0.4546  0.0295  0.5191
  110MOL   H13635234   0.644   5.865   3.049 -0.5410 -0.1268 -0.4445
  110MOL   H13735235   0.434   5.941   2.852  0.1121  2.0214  1.2939
  110MOL   H13835236   0.498   5.788   2.846 -1.1157 -0.7254  0.2526
  110MOL   H13935237   0.606   5.918   2.816 -1.2522  0.3366  0.1461
  110MOL   H14035238   0.489   5.813   3.217  0.2243  2.4123 -0.5241
  110MOL   H14135239   0.700   5.583   3.041  1.6790 -0.3830  0.7011
  110MOL   H14235240   0.630   5.503   3.178 -0.0654  0.8019  2.2509
  110MOL   H14335241   0.686   5.671   3.179 -1.6617  1.7282 -1.2442
  110MOL   H14435242   0.303   5.587   2.986 -0.5202 -0.2413  0.5161
  110MOL   H14535243   0.432   5.459   3.002 -1.5221 -0.3484  1.1252
  110MOL   C14635244   0.289   5.806   3.142 -0.7958 -0.9574 -0.3673
  110MOL   C14735245   0.216   5.857   3.018 -0.8095  0.6071  0.4003
  110MOL   C14835246   0.256   5.869   3.282 -0.4957 -0.8772  0.4464
  110MOL   C14935247   0.342   5.818   3.401 -0.0626 -0.1629 -0.3192
  110MOL   C15035248   0.351   5.671   3.427 -0.3795 -0.0425 -0.1194
  110MOL   C15135249   0.398   5.897   3.490  0.1341  0.2682 -0.4484
  110MOL   H15235250   0.263   5.702   3.161  1.8596 -1.8459 -1.3502
  110MOL   H15335251   0.109   5.840   3.012 -0.4825 -1.6721  0.4167
  110MOL   H15435252   0.254   5.794   2.937 -1.9993 -1.5347  1.4535
  110MOL   H15535253   0.250   5.957   2.993 -0.0301  0.7855  2.0689
  110MOL   H15635254   0.283   5.974   3.268  2.3673 -1.3498  1.9371
  110MOL   H15735255   0.384   5.615   3.340  0.9712 -1.9123  1.5358
  110MOL   H15835256   0.255   5.628   3.455  0.9549 -0.7609  3.6630
  110MOL   H15935257   0.427   5.654   3.503  0.4854  0.4248 -0.8813
  110MOL   H16035258   0.394   6.005   3.482 -0.4113  0.3716  0.9680
  110MOL   H16135259   0.459   5.864   3.573  0.5420 -0.4984 -1.0502
  110MOL   C16235260   0.104   5.875   3.322 -0.3267 -0.2472  0.1642
  110MOL   C16335261   0.036   5.737   3.303 -0.7842  0.3063 -0.5300
  110MOL   C16435262   0.029   5.997   3.249 -0.3255 -0.4474 -0.2732
  110MOL   C16535263   0.094   6.131   3.262 -0.7489 -0.3622  0.5197
  110MOL   C16635264   0.108   6.217   3.135  0.5670  0.1949 -1.0284
  110MOL   C16735265   0.148   6.181   3.375  0.7918 -0.3626 -0.0857
  110MOL   H16835266   0.102   5.906   3.426  1.0286  2.7158 -0.6147
  110MOL   H16935267   0.107   5.655   3.315 -0.1765  0.8415 -0.4793
  110MOL   H17035268   0.010   5.729   3.197 -2.9997 -0.7045  0.0609
  110MOL   H17135269   7.839   5.728   3.365  0.6731 -2.8538  1.2189
  110MOL   H17235270   0.028   5.985   3.141 -0.2928  0.4624 -0.3837
  110MOL   H17335271   0.011   6.260   3.109  0.1485 -0.5360 -0.7031
  110MOL   H17435272   0.146   6.160   3.050 -1.0165 -1.5601 -0.6093
  110MOL   H17535273   0.171   6.305   3.148 -0.3374  0.4434  2.2761
  110MOL   H17635274   0.134   6.119   3.462 -0.0643  0.6237  0.4949
  110MOL   H17735275   0.206   6.272   3.381  2.7887 -1.5770 -0.4820
  110MOL   C17835276   7.765   5.996   3.282  0.4881 -0.1977 -0.0654
  110MOL   C17935277   7.686   6.043   3.160 -0.1273  0.1854 -0.5489
  110MOL   C18035278   7.724   6.067   3.418  0.1238 -0.1919  0.0708
  110MOL   C18135279   7.759   5.995   3.548 -0.2682 -0.1629 -0.3809
  110MOL   C18235280   7.692   5.862   3.569 -0.6834  0.1797 -0.0767
  110MOL   C18335281   7.828   6.060   3.644  0.2180  0.3393 -0.7533
  110MOL   H18435282   7.718   5.898   3.285 -1.8300  0.9387  3.5396
  110MOL   H18535283   7.713   5.970   3.083  2.6768 -2.0938  2.4382
  110MOL   H18635284   7.706   6.146   3.130  1.0208  0.0124 -0.3962
  110MOL   H18735285   7.578   6.046   3.166 -0.1375  1.2771 -1.1171
  110MOL   H18835286   7.794   6.149   3.434  2.0489 -1.7791  0.0426
  110MOL   H18935287   7.593   5.877   3.611 -0.6062  0.8877 -0.1393
  110MOL   H19035288   7.755   5.798   3.630 -0.4507  2.1232  1.7566
  110MOL   H19135289   7.684   5.810   3.473 -2.3456  0.8808 -0.3393
  110MOL   H19235290   7.860   6.163   3.639 -1.8244  1.0903  1.0953
  110MOL   H19335291   7.838   6.017   3.742  1.5005  0.8112 -0.6623
  110MOL   C19435292   7.580   6.133   3.433 -0.6333  0.0331  0.1655
  110MOL   C19535293   7.474   6.026   3.411 -0.0698  0.7974  0.3442
  110MOL   C19635294   7.542   6.264   3.360 -0.5695  0.2706 -0.1624
  110MOL   C19735295   7.660   6.362   3.362 -0.3923 -0.5171  0.4815
  110MOL   C19835296   7.708   6.420   3.491  0.0774 -0.0573 -0.2115
  110MOL   C19935297   7.718   6.400   3.241  0.1998  0.1202  0.3258
  110MOL   H20035298   7.577   6.159   3.539 -0.7518  1.6178 -0.2020
  110MOL   H20135299   7.436   5.981   3.503 -0.5995  0.9282  0.1938
  110MOL   H20235300   7.523   5.942   3.362  1.3786  0.8356  1.6733
  110MOL   H20335301   7.375   6.060   3.380 -0.6740 -0.4115  0.8838
  110MOL   H20435302   7.537   6.237   3.254 -0.1414  0.0089 -0.1153
  110MOL   H20535303   7.795   6.480   3.465  2.1165 -2.5083  0.7109
  110MOL   H20635304   7.743   6.345   3.562  0.1598  0.1304 -0.0541
  110MOL   H20735305   7.627   6.481   3.531  2.9825  3.5233  0.4855
  110MOL   H20835306   7.685   6.372   3.142 -1.2089  0.0538  0.8020
  110MOL   H20935307   7.803   6.465   3.227  0.3795 -0.0823  0.4632
  110MOL   C21035308   7.404   6.335   3.403 -1.2307  0.2515 -0.2512
  110MOL   C21135309   7.366   6.310   3.553 -0.6292 -0.3413  0.3182
  110MOL   C21235310   7.283   6.322   3.308  0.3318  0.3918  0.5209
  110MOL   C21335311   7.321   6.299   3.155  0.0734 -0.0367  0.3894
  110MOL   C21435312   7.238   6.200   3.087  0.5296  0.4032  0.1541
  110MOL   C21535313   7.408   6.367   3.080  0.9152 -0.2892  0.8752
  110MOL   H21635314   7.432   6.440   3.392  2.7373 -0.6427  0.5585
  110MOL   H21735315   7.449   6.348   3.612 -0.7208  1.3645 -0.6404
  110MOL   H21835316   7.360   6.205   3.583  0.1762 -0.5001 -0.0468
  110MOL   H21935317   7.276   6.358   3.591 -0.5992 -1.5382  1.9767
  110MOL   H22035318   7.234   6.226   3.328 -0.1105 -0.0059 -2.3285
  110MOL   H22135319   7.259   6.175   2.983 -1.4565  0.8511 -0.3712
  110MOL   H22235320   7.138   6.242   3.093  0.4110  0.0573  0.6056
  110MOL   H22335321   7.233   6.109   3.148  0.9020 -0.2458 -0.7799
  110MOL   H22435322   7.471   6.449   3.109 -0.9047  1.4556  0.0150
  110MOL   H22535323   7.424   6.350   2.974 -0.0603 -1.6493  0.9233
  110MOL   C22635324   7.181   6.437   3.310  0.1195 -0.1989  0.4443
  110MOL   C22735325   7.245   6.574   3.306 -0.2126  0.2277 -0.4739
  110MOL   C22835326   7.060   6.429   3.422 -0.2914  0.0336  0.1431
  110MOL   C22935327   7.001   6.288   3.442  0.8528  0.8763  0.1323
  110MOL   C23035328   6.990   6.236   3.582 -0.2822  0.1272  0.2307
  110MOL   C23135329   6.963   6.210   3.333 -0.1074 -0.1366 -0.0436
  110MOL   H23235330   7.130   6.439   3.214  0.0544 -0.2839  0.4771
  110MOL   H23335331   7.319   6.585   3.227  0.4520 -0.5099  0.0437
  110MOL   H23435332   7.305   6.605   3.391 -0.4300  1.0922 -0.6266
  110MOL   H23535333   7.164   6.645   3.284 -0.1256  0.4707 -0.0223
  110MOL   H23635334   7.108   6.441   3.519 -2.3318 -1.2256  1.3471
  110MOL   H23735335   6.902   6.173   3.590 -0.5562  0.3932 -0.6652
  110MOL   H23835336   6.965   6.314   3.655 -0.9221  0.6553 -0.5470
  110MOL   H23935337   7.080   6.185   3.616  1.0985  1.2940 -1.5300
  110MOL   H24035338   6.969   6.248   3.232 -1.2643  0.0210 -0.0609
  110MOL   H24135339   6.926   6.110   3.351 -1.7474  0.7813  1.9542
  110MOL   C24235340   6.943   6.533   3.414  0.2850 -0.2356  0.1292
  110MOL   C24335341   6.887   6.546   3.274  0.0098  0.3422 -0.0483
  110MOL   C24435342   6.968   6.670   3.487  0.3807 -0.3871 -0.4947
  110MOL   C24535343   7.016   6.647   3.638  0.3231  0.2290 -0.1472
  110MOL   C24635344   6.927   6.591   3.743 -0.5023  0.1075  0.2495
  110MOL   C24735345   7.138   6.680   3.670  0.6411 -0.2262  0.6555
  110MOL   H24835346   6.859   6.490   3.469  0.6455 -2.4478 -0.9960
  110MOL   H24935347   6.962   6.603   3.219  0.9635 -0.1721  0.7166
  110MOL   H25035348   6.800   6.611   3.263  1.4577  2.1608 -1.0272
  110MOL   H25135349   6.861   6.452   3.225 -1.6277 -0.4643  2.2670
  110MOL   H25235350   7.058   6.714   3.444  1.4616 -0.3902  1.7114
  110MOL   H25335351   6.880   6.667   3.806 -2.5730 -1.8762  1.1803
  110MOL   H25435352   6.985   6.540   3.819  0.6958  1.0830  0.0185
  110MOL   H25535353   6.848   6.531   3.699 -0.1207  1.2360 -2.0496
  110MOL   H25635354   7.210   6.724   3.603  0.6643 -0.4324  0.5466
  110MOL   H25735355   7.175   6.670   3.771  1.1811 -0.0679  0.4752
  110MOL   C25835356   6.857   6.776   3.485  0.3535  0.5915  0.3411
  110MOL   C25935357   6.717   6.721   3.491  0.3370  0.1188 -0.1475
  110MOL   C26035358   6.866   6.877   3.361 -0.2280  0.1980  0.3675
  110MOL   C26135359   7.010   6.927   3.329 -0.2073 -0.8942  0.3490
  110MOL   C26235360   7.092   6.991   3.444  0.1346  0.3698  0.2619
  110MOL   C26335361   7.053   6.913   3.206 -0.4669 -0.3450 -0.3669
  110MOL   H26435362   6.869   6.837   3.575  1.9459  0.1003  0.4696
  110MOL   H26535363   6.653   6.799   3.533  0.6307 -1.5346  3.5728
  110MOL   H26635364   6.694   6.628   3.543  1.8389 -0.6292 -0.7999
  110MOL   H26735365   6.673   6.688   3.397 -2.8905 -0.7229  1.5776
  110MOL   H26835366   6.844   6.817   3.273 -1.1912  2.5625 -1.0287
  110MOL   H26935367   7.194   7.015   3.413  0.0954  0.3112  0.0901
  110MOL   H27035368   7.104   6.927   3.531 -1.3522  0.8582  0.8306
  110MOL   H27135369   7.047   7.080   3.486 -1.2016 -0.2957  0.2510
  110MOL   H27235370   6.995   6.869   3.126  1.8431  0.6023 -2.6493
  110MOL   H27335371   7.150   6.953   3.182 -1.0949  1.2136 -0.3948
  110MOL   C27435372   6.769   6.997   3.355 -0.3637 -0.1054  0.4261
  110MOL   C27535373   6.742   7.053   3.491 -0.1953 -0.7692 -0.3543
  110MOL   C27635374   6.632   6.976   3.276 -0.1946 -0.4921  0.0929
  110MOL   C27735375   6.661   6.912   3.137  0.0053  0.4143  0.0541
  110MOL   C27835376   6.729   7.006   3.036  0.6734 -0.1803 -0.1088
  110MOL   C27935377   6.652   6.780   3.107 -0.0606  0.6670  0.1907
  110MOL   H28035378   6.819   7.084   3.312  2.9380 -1.8125  0.6752
  110MOL   H28135379   6.736   7.161   3.499  0.2329 -0.7114 -0.7910
  110MOL   H28235380   6.822   7.029   3.562 -1.2508  0.7415  1.3992
  110MOL   H28335381   6.649   7.013   3.530  0.3350 -0.5045  1.2185
  110MOL   H28435382   6.587   6.885   3.315  1.4124 -1.8177 -1.0560
  110MOL   H28535383   6.672   7.097   3.016  1.1758 -0.0545 -0.9989
  110MOL   H28635384   6.758   6.962   2.940 -2.0209 -2.0753 -0.1074
  110MOL   H28735385   6.825   7.039   3.075  0.4614  0.9225 -0.5016
  110MOL   H28835386   6.618   6.702   3.174  1.6158 -1.7823 -1.6904
  110MOL   H28935387   6.668   6.756   3.003 -5.5087  0.0312 -0.6527
  110MOL   C29035388   6.527   7.091   3.264  0.4505 -0.0636 -0.3282
  110MOL   C29135389   6.594   7.234   3.257 -0.2522  0.2976 -0.1099
  110MOL   C29235390   6.406   7.096   3.364  0.1807 -0.5313 -0.5672
  110MOL   C29335391   6.350   6.960   3.393 -0.1650  0.7948 -0.1942
  110MOL   C29435392   6.276   6.883   3.282  0.1491  0.2699  0.0147
  110MOL   C29535393   6.362   6.895   3.508  0.7408  0.3109 -0.5512
  110MOL   H29635394   6.467   7.064   3.177 -1.4790 -0.4523  1.1063
  110MOL   H29735395   6.631   7.277   3.350 -0.2315 -0.3781  0.2009
  110MOL   H29835396   6.523   7.308   3.218  1.9243  2.0566 -0.8240
  110MOL   H29935397   6.664   7.236   3.174 -1.0643 -0.7896 -0.8345
  110MOL   H30035398   6.447   7.129   3.459  1.6041 -0.2325 -1.2712
  110MOL   H30135399   6.252   6.779   3.300 -0.0055  0.5142  1.2798
  110MOL   H30235400   6.323   6.886   3.184 -0.6992  1.9963 -0.3611
  110MOL   H30335401   6.178   6.928   3.265  0.0555  0.5749  1.3030
  110MOL   H30435402   6.408   6.946   3.592  1.8598  1.0032 -1.5629
  110MOL   H30535403   6.321   6.796   3.520  0.1902  0.4907 -0.9076
  110MOL   C30635404   6.303   7.211   3.327  0.1438  0.0033  0.8313
  110MOL   C30735405   6.185   7.221   3.423 -1.1592  0.5054 -0.3003
  110MOL   C30835406   6.250   7.212   3.181 -0.0066 -0.0720  0.3874
  110MOL   C30935407   6.163   7.332   3.150  0.2493 -1.1068 -0.1362
  110MOL   C31035408   6.224   7.473   3.144  0.4194  0.1758 -0.1034
  110MOL   C31135409   6.031   7.321   3.115  0.0522 -0.1582  0.0124
  110MOL   H31235410   6.344   7.308   3.358  0.6918  1.2435 -3.4046
  110MOL   H31335411   6.106   7.149   3.402 -1.6757  1.1638 -0.6035
  110MOL   H31435412   6.148   7.323   3.425  0.0289  0.9522 -1.0049
  110MOL   H31535413   6.216   7.194   3.524  0.8910 -1.2638 -1.3571
  110MOL   H31635414   6.335   7.213   3.112 -0.1423 -0.1809  0.2198
  110MOL   H31735415   6.304   7.476   3.071  1.7726  2.1357  1.4070
  110MOL   H31835416   6.255   7.484   3.248  0.3099  0.1918 -0.0720
  110MOL   H31935417   6.158   7.557   3.123 -2.3262 -1.4418  1.6397
  110MOL   H32035418   5.982   7.224   3.109 -0.8175  0.1244  2.0311
  110MOL   H32135419   5.976   7.406   3.078 -1.6587 -0.8886  0.7963
  110MOL   H32235420   6.198   7.120   3.156 -2.7156  0.9730  1.9488
  111MOL     C135421   5.980   0.333   4.071 -0.8380 -0.0120  0.4380
  111MOL     C235422   5.866   0.435   4.069 -0.3856  0.2515  0.2333
  111MOL     C335423   6.061   0.317   4.212  0.2942  0.7784  1.3068
  111MOL     C435424   6.118   0.449   4.272  0.0958 -0.1859  0.3645
  111MOL     C535425   6.162   0.442   4.417  0.4054  0.2794 -0.4515
  111MOL     C635426   6.141   0.560   4.205  0.5367  0.1210  0.5159
  111MOL     H735427   5.937   0.238   4.039  2.4111 -0.8918 -1.5546
  111MOL     H835428   5.897   0.536   4.094 -1.2014  1.3147 -2.8048
  111MOL     H935429   5.788   0.392   4.132  2.4478 -0.5574  3.3133
  111MOL    H1035430   5.818   0.441   3.971  0.7528  1.0044 -0.2916
  111MOL    H1135431   5.984   0.285   4.282 -0.9833  0.2995 -0.3062
  111MOL    H1235432   6.076   0.421   4.480  2.2137 -0.6412  1.7991
  111MOL    H1335433   6.191   0.539   4.457  0.4955  1.1356 -2.4964
  111MOL    H1435434   6.233   0.361   4.438  0.5398 -0.0685 -2.1583
  111MOL    H1535435   6.136   0.565   4.098  0.1850  1.0782  0.5747
  111MOL    H1635436   6.169   0.651   4.256 -0.6981  0.8191 -0.0338
  111MOL    H1735437   6.050   0.374   3.999  0.3081 -1.6431  0.6033
  111MOL    C1835438   6.169   0.197   4.210  0.5885 -0.3009  0.0184
  111MOL    C1935439   6.282   0.251   4.113 -0.1652 -0.1352 -0.1119
  111MOL    C2035440   6.104   0.055   4.160  0.3998 -0.3819  0.4902
  111MOL    C2135441   5.977   0.004   4.235  0.5806 -0.8841 -0.3858
  111MOL    C2235442   5.994   0.000   4.383  0.3164 -0.0645  1.2322
  111MOL    C2335443   5.854   7.885   4.169  0.7919  0.6555 -0.1966
  111MOL    H2435444   6.215   0.178   4.308  0.4775 -0.1656  0.0964
  111MOL    H2535445   6.260   0.262   4.007 -0.5999 -0.7232 -0.0843
  111MOL    H2635446   6.368   0.184   4.110 -0.0635 -0.0490  0.6699
  111MOL    H2735447   6.320   0.350   4.142  1.2047 -0.6649 -0.0527
  111MOL    H2835448   6.059   0.077   4.063 -1.2704 -0.0005  1.3412
  111MOL    H2935449   6.086   7.866   4.435  1.2783 -0.7873 -0.7891
  111MOL    H3035450   5.928   7.814   4.419  0.4357 -0.7233  0.0471
  111MOL    H3135451   5.971   0.097   4.427  1.6608  1.3019 -0.9987
  111MOL    H3235452   5.838   0.015   4.064 -1.8854 -2.4503 -0.5289
  111MOL    H3335453   5.770   7.855   4.229  0.2042  2.8313  0.1004
  111MOL    C3435454   6.205   7.831   4.136 -0.3667 -0.2653 -0.2846
  111MOL    C3535455   6.311   7.824   4.248 -0.6124  0.9912 -0.3583
  111MOL    C3635456   6.276   7.814   3.991  0.2462 -0.0144  0.3944
  111MOL    C3735457   6.192   7.889   3.883  0.0027  0.1496  0.1478
  111MOL    C3835458   6.054   7.831   3.840 -0.2092 -0.0503 -0.0578
  111MOL    C3935459   6.233   0.107   3.819 -0.1130 -0.5746  0.0713
  111MOL    H4035460   6.146   7.740   4.141  1.4691 -1.4016  1.0429
  111MOL    H4135461   6.271   7.777   4.338  0.0019  2.5284  0.7289
  111MOL    H4235462   6.362   0.026   4.267  1.6029 -0.5905  1.7881
  111MOL    H4335463   6.398   7.763   4.226  0.0019  1.9442 -0.6151
  111MOL    H4435464   6.366   7.875   3.994  1.1211 -1.2514 -0.2062
  111MOL    H4535465   6.063   7.758   3.760  1.1003  0.5448 -0.4735
  111MOL    H4635466   5.982   0.001   3.787 -0.2406 -0.8962 -1.0274
  111MOL    H4735467   6.005   7.781   3.923 -2.0252  3.2309  0.9470
  111MOL    H4835468   6.328   0.157   3.826 -0.2648 -0.2009 -0.5375
  111MOL    H4935469   6.158   0.144   3.751  1.6338 -1.0972 -2.1615
  111MOL    C5035470   6.327   7.666   3.946  0.9343  0.6813 -0.0758
  111MOL    C5135471   6.400   7.577   4.057  0.4144  0.3850  0.8113
  111MOL    C5235472   6.411   7.678   3.804 -0.4940  0.9678  0.1397
  111MOL    C5335473   6.353   7.565   3.706 -0.3359 -0.6059 -0.7479
  111MOL    C5435474   6.395   7.417   3.727 -0.8789 -0.4459 -0.3323
  111MOL    C5535475   6.268   7.590   3.604 -0.0613  0.5058 -0.2085
  111MOL    H5635476   6.233   7.621   3.914  0.1804  2.2719 -0.1223
  111MOL    H5735477   6.506   7.599   4.068 -0.1359  3.9554 -0.4721
  111MOL    H5835478   6.394   7.473   4.025  1.8894  0.0109  1.7032
  111MOL    H5935479   6.337   7.577   4.146 -2.1022  0.7594 -0.9187
  111MOL    H6035480   6.387   7.771   3.754 -3.8041 -1.3105 -2.7610
  111MOL    H6135481   6.416   7.370   3.630  2.6008 -1.8610  1.0246
  111MOL    H6235482   6.314   7.365   3.776 -1.4532 -0.3750 -1.1918
  111MOL    H6335483   6.485   7.393   3.783 -2.1874 -3.4292  0.5547
  111MOL    H6435484   6.221   7.685   3.586 -2.4414 -0.6440 -0.3710
  111MOL    H6535485   6.226   7.513   3.540 -3.6616 -0.1356  2.7637
  111MOL    C6635486   6.567   7.675   3.808 -0.1527 -0.3540  0.0741
  111MOL    C6735487   6.616   7.795   3.882 -0.1890 -0.1163  0.0835
  111MOL    C6835488   6.645   7.658   3.662 -0.1922  0.3601  0.1458
  111MOL    C6935489   6.783   7.587   3.682  0.2278 -0.5672 -1.2887
  111MOL    C7035490   6.781   7.438   3.665  0.5472 -0.4138  0.2477
  111MOL    C7135491   6.901   7.647   3.702  0.0760  0.3269 -0.5404
  111MOL    H7235492   6.595   7.582   3.857  1.0442  0.4943  1.0338
  111MOL    H7335493   6.723   7.816   3.882  0.0469 -1.2402  1.3693
  111MOL    H7435494   6.587   7.784   3.986 -1.2711 -0.5202 -0.2529
  111MOL    H7535495   6.568   7.884   3.842  0.7845  0.5242  0.3436
  111MOL    H7635496   6.589   7.586   3.602  1.4964  0.1444 -1.2062
  111MOL    H7735497   6.876   7.388   3.679  0.2046 -1.0945  0.1869
  111MOL    H7835498   6.744   7.425   3.564 -2.7946  0.3627  1.2959
  111MOL    H7935499   6.712   7.387   3.733  0.0887 -2.1126 -1.4439
  111MOL    H8035500   6.904   7.754   3.716 -0.7325  0.7344 -3.2231
  111MOL    H8135501   6.986   7.582   3.717 -0.0217  0.9274  3.1956
  111MOL    C8235502   6.661   7.782   3.561 -0.5720  0.0328 -0.5470
  111MOL    C8335503   6.534   7.864   3.543 -0.1734 -0.1525  0.5797
  111MOL    C8435504   6.734   7.749   3.422 -0.1654  0.3254  0.3436
  111MOL    C8535505   6.827   7.859   3.383 -0.2782 -0.2414  0.1666
  111MOL    C8635506   6.765   0.100   3.322  0.1648 -0.2110 -0.4767
  111MOL    C8735507   6.961   7.839   3.402  0.6190  0.6780  0.2372
  111MOL    H8835508   6.725   7.853   3.613 -1.4743  0.3835  0.0954
  111MOL    H8935509   6.558   0.051   3.472  1.7204 -2.3441 -1.3267
  111MOL    H9035510   6.490   0.031   3.623  0.5269  0.2395  0.6765
  111MOL    H9135511   6.452   7.800   3.510 -0.0352  1.1130 -2.4026
  111MOL    H9235512   6.799   7.663   3.439  0.7565  0.6961 -1.2354
  111MOL    H9335513   6.755   0.188   3.386  0.7585  0.3230 -1.0984
  111MOL    H9435514   6.669   0.074   3.278  0.3901 -2.5573  0.3531
  111MOL    H9535515   6.821   0.127   3.232  0.7507  1.6246  0.4106
  111MOL    H9635516   6.995   7.742   3.435 -1.7039 -0.6364 -1.1202
  111MOL    H9735517   7.034   0.025   3.388  0.2449  0.7456 -1.5364
  111MOL    C9835518   6.645   7.699   3.303 -0.2409  0.2117  0.2744
  111MOL    C9935519   6.559   7.586   3.339  0.4378 -0.0995  0.2934
  111MOL   C10035520   6.716   7.675   3.167  0.2361  0.0230  0.8129
  111MOL   C10135521   6.615   7.697   3.052 -0.6798 -0.1636  0.1036
  111MOL   C10235522   6.604   7.839   3.006  0.1186  0.2447 -0.8804
  111MOL   C10335523   6.540   7.605   3.001 -0.1024  0.2961 -0.2008
  111MOL   H10435524   6.579   7.783   3.280 -0.1600  0.2726  0.2615
  111MOL   H10535525   6.492   7.609   3.422  0.8706  0.7105  0.4206
  111MOL   H10635526   6.609   7.491   3.359  0.4030  0.0826  1.2571
  111MOL   H10735527   6.505   7.559   3.248  1.3882 -1.2272  0.0584
  111MOL   H10835528   6.783   7.761   3.158 -1.5398  1.5344  1.6951
  111MOL   H10935529   6.536   7.831   2.920  0.8380  2.5759 -1.7177
  111MOL   H11035530   6.695   7.879   2.963  0.5426  1.0055  0.7018
  111MOL   H11135531   6.533   0.009   3.061 -0.0862  0.7038 -1.6452
  111MOL   H11235532   6.542   7.499   3.021  0.8810  0.1053 -1.2923
  111MOL   H11335533   6.466   7.628   2.926 -0.7300  0.8932  0.5952
  111MOL   C11435534   6.801   7.541   3.144 -0.0746  0.7085 -0.7233
  111MOL   C11535535   6.884   7.487   3.259  0.4746 -0.0780 -0.3781
  111MOL   C11635536   6.884   7.526   3.015 -0.4577 -0.4728 -0.3765
  111MOL   C11735537   6.862   7.382   2.956  0.3930  0.9391  0.3592
  111MOL   C11835538   6.736   7.354   2.874 -0.3255  0.1074  0.3031
  111MOL   C11935539   6.945   7.282   2.990  1.0120 -0.3477 -0.0565
  111MOL   H12035540   6.725   7.463   3.138  1.0482 -0.3484 -1.3837
  111MOL   H12135541   6.959   7.549   3.308 -1.8534  0.9695  1.9787
  111MOL   H12235542   6.920   7.390   3.224 -0.3285  0.2207 -2.0739
  111MOL   H12335543   6.830   7.453   3.348  0.2696  0.3079 -0.3560
  111MOL   H12435544   6.818   7.587   2.952  0.9655  0.9218 -0.5542
  111MOL   H12535545   6.704   7.453   2.841  0.2511  0.3950  0.6016
  111MOL   H12635546   6.660   7.322   2.945  0.5786 -4.3004 -0.5584
  111MOL   H12735547   6.748   7.286   2.790  3.0398 -0.2143  0.9894
  111MOL   H12835548   7.035   7.296   3.049 -0.1130  0.0033  1.6150
  111MOL   H12935549   6.927   7.180   2.959  0.6220 -1.1764  2.7147
  111MOL   C13035550   7.031   7.588   3.008 -0.0905  0.6803  1.2983
  111MOL   C13135551   7.035   7.724   3.077 -0.2232  0.0030 -0.0898
  111MOL   C13235552   7.094   7.609   2.860  0.2833 -0.4058 -0.7845
  111MOL   C13335553   6.995   7.645   2.753  0.2056  0.8304  0.0516
  111MOL   C13435554   6.946   7.788   2.765  0.2770 -0.0169 -0.7867
  111MOL   C13535555   6.942   7.559   2.660  0.0794  0.3494 -0.7483
  111MOL   H13635556   7.093   7.525   3.072 -0.2451 -0.1943  0.6050
  111MOL   H13735557   7.139   7.756   3.085 -0.9379  2.4910 -0.3121
  111MOL   H13835558   7.008   7.711   3.182 -0.4767  2.2587  0.1613
  111MOL   H13935559   6.971   7.800   3.033 -0.6926 -0.6018 -0.4508
  111MOL   H14035560   7.157   7.697   2.874  0.2930 -0.6293  0.6842
  111MOL   H14135561   6.881   7.811   2.849 -0.6445  1.2265 -1.8158
  111MOL   H14235562   6.879   7.812   2.682 -0.6097 -0.1762 -0.1241
  111MOL   H14335563   7.031   7.857   2.770  1.1059 -1.1401  1.3576
  111MOL   H14435564   6.974   7.456   2.652 -0.4784  0.2711 -2.0821
  111MOL   H14535565   6.860   7.592   2.599 -0.3607 -0.8470 -0.8159
  111MOL   C14635566   7.197   7.505   2.808 -0.3790  0.2939  0.1854
  111MOL   C14735567   7.303   7.452   2.915  0.2145 -0.7022  0.0171
  111MOL   C14835568   7.270   7.531   2.670 -0.0348 -0.0912 -0.1819
  111MOL   C14935569   7.269   7.411   2.576 -0.2002  0.4138  0.7279
  111MOL   C15035570   7.386   7.307   2.589  0.2840  0.2814  0.3310
  111MOL   C15135571   7.175   7.390   2.487 -0.4745 -0.4923  0.7986
  111MOL   H15235572   7.136   7.415   2.804 -1.1017  0.8234 -1.0894
  111MOL   H15335573   7.392   7.400   2.878  0.3689  1.0060 -2.1285
  111MOL   H15435574   7.262   7.379   2.984  1.5150 -2.3446 -0.9051
  111MOL   H15535575   7.322   7.541   2.975 -0.0861 -0.3715 -0.3742
  111MOL   H15635576   7.205   7.594   2.609 -1.2248 -0.8175  0.3399
  111MOL   H15735577   7.450   7.320   2.676 -0.6434 -2.8509  1.5860
  111MOL   H15835578   7.453   7.306   2.503 -0.4289 -2.1785 -0.2539
  111MOL   H15935579   7.348   7.205   2.599 -0.3521  0.4895  0.1164
  111MOL   H16035580   7.090   7.454   2.467 -0.4836 -0.6203  0.4205
  111MOL   H16135581   7.187   7.298   2.431  0.3529  0.3959 -0.5234
  111MOL   C16235582   7.418   7.607   2.664  0.3955  0.1730 -0.4379
  111MOL   C16335583   7.419   7.733   2.753 -0.0534  0.1870 -0.1360
  111MOL   C16435584   7.477   7.636   2.523  0.4818 -0.5740  0.0539
  111MOL   C16535585   7.628   7.640   2.542 -0.0445  0.5255  0.1515
  111MOL   C16635586   7.696   7.503   2.536  0.0280 -0.7413  0.4469
  111MOL   C16735587   7.707   7.751   2.555  0.2803  0.7776 -0.3838
  111MOL   H16835588   7.477   7.531   2.715  0.0102 -1.1110 -1.8730
  111MOL   H16935589   7.384   7.717   2.855  1.4616 -1.6009  0.1138
  111MOL   H17035590   7.352   7.814   2.722 -0.0065  0.2401 -0.0979
  111MOL   H17135591   7.523   7.767   2.757  0.5704 -1.6643 -0.3355
  111MOL   H17235592   7.455   7.553   2.456 -0.6390  0.8112 -1.3457
  111MOL   H17335593   7.803   7.524   2.539 -0.1571  0.6255 -1.4887
  111MOL   H17435594   7.657   7.456   2.446  1.7060 -0.0598 -0.6781
  111MOL   H17535595   7.670   7.450   2.628  2.1405 -1.0735  0.8823
  111MOL   H17635596   7.678   7.855   2.558  0.3496  0.8238 -1.1633
  111MOL   H17735597   7.813   7.742   2.576  0.0889  0.2043  0.3942
  111MOL   C17835598   7.423   7.755   2.437  0.6299  0.0545 -0.0856
  111MOL   C17935599   7.275   7.804   2.445  0.5304  0.2115  0.6129
  111MOL   C18035600   7.483   7.768   2.294 -0.8396 -0.1826  0.1527
  111MOL   C18135601   7.513   0.025   2.259 -0.1811  0.0499  0.3079
  111MOL   C18235602   7.636   0.085   2.321 -0.3437  0.1013  0.8244
  111MOL   C18335603   7.433   0.096   2.177 -0.2649  0.3920 -0.1975
  111MOL   H18435604   7.468   7.837   2.493 -0.0006 -0.6269  1.4428
  111MOL   H18535605   7.258   7.871   2.360  0.4174 -1.9129 -1.0912
  111MOL   H18635606   7.251   7.852   2.540 -0.1195 -2.2040  1.6848
  111MOL   H18735607   7.202   7.725   2.434 -1.2253  2.1642 -2.6771
  111MOL   H18835608   7.583   7.726   2.291 -1.8144 -2.6193  0.3315
  111MOL   H18935609   7.725   0.023   2.333  0.6868  0.8876 -2.2006
  111MOL   H19035610   7.603   0.110   2.421 -1.4107  0.4436  0.4006
  111MOL   H19135611   7.681   0.171   2.270  0.4241  0.7556  2.5700
  111MOL   H19235612   7.340   0.057   2.138 -0.6749  1.5647 -0.4060
  111MOL   H19335613   7.451   0.195   2.137  1.3525 -0.2164 -1.0364
  111MOL   C19435614   7.432   7.683   2.174  0.2237  0.9111 -0.6172
  111MOL   C19535615   7.356   7.560   2.220 -0.0159 -0.3811 -0.2076
  111MOL   C19635616   7.536   7.631   2.064  0.0876  0.0940  0.0981
  111MOL   C19735617   7.645   7.742   2.039 -0.0310  0.0789  0.1057
  111MOL   C19835618   7.614   7.847   1.934  0.1270 -0.0372  0.4220
  111MOL   C19935619   7.767   7.726   2.099 -0.4215  0.5226 -0.1524
  111MOL   H20035620   7.348   7.735   2.125 -2.3096 -1.8833  0.6280
  111MOL   H20135621   7.291   7.569   2.307 -1.5540 -0.5711 -1.3121
  111MOL   H20235622   7.413   7.475   2.257 -2.1176 -2.0583 -0.6838
  111MOL   H20335623   7.291   7.517   2.143 -0.5060  0.9273 -0.5380
  111MOL   H20435624   7.576   7.539   2.105  1.2650  0.9290  0.8741
  111MOL   H20535625   7.520   0.006   1.951 -0.6508 -0.5159 -2.2541
  111MOL   H20635626   7.641   7.817   1.833  1.2701 -1.5052  1.1436
  111MOL   H20735627   7.683   0.034   1.965 -1.7835  0.5934  3.2253
  111MOL   H20835628   7.785   7.640   2.161 -1.0184  2.4797  2.7993
  111MOL   H20935629   7.849   7.794   2.078  0.2395 -0.3322 -0.3942
  111MOL   C21035630   7.457   7.581   1.933  0.3476  0.2723  0.1509
  111MOL   C21135631   7.332   7.663   1.899  0.0264  0.2166 -0.0362
  111MOL   C21235632   7.439   7.426   1.913  0.8674 -0.0829  0.4379
  111MOL   C21335633   7.546   7.334   1.967 -0.7113 -0.1666  0.4966
  111MOL   C21435634   7.682   7.318   1.895  0.3840  0.5638 -0.1033
  111MOL   C21535635   7.518   7.241   2.063  0.7135 -0.7356  0.1496
  111MOL   H21635636   7.534   7.596   1.858 -1.8771 -0.9571 -2.4936
  111MOL   H21735637   7.344   7.771   1.909  1.0828  0.1376 -0.3697
  111MOL   H21835638   7.243   7.626   1.949  1.4460  0.3624  2.6451
  111MOL   H21935639   7.308   7.658   1.793  0.2744 -1.6638 -0.0237
  111MOL   H22035640   7.354   7.405   1.977  0.1798  0.6612 -0.2238
  111MOL   H22135641   7.741   7.250   1.956 -0.2423 -0.6450 -0.8408
  111MOL   H22235642   7.735   7.413   1.884  0.3721  0.6647  0.6503
  111MOL   H22335643   7.672   7.272   1.797  1.2204 -1.9974  0.9663
  111MOL   H22435644   7.420   7.245   2.109  1.4170 -1.6315  1.7834
  111MOL   H22535645   7.592   7.164   2.081  0.6497 -1.8179 -3.8186
  111MOL   C22635646   7.388   7.388   1.770  0.8699 -0.4471  0.3559
  111MOL   C22735647   7.466   7.463   1.658 -0.1413 -0.1336 -0.3648
  111MOL   C22835648   7.234   7.383   1.740 -0.2821  0.0972  0.9849
  111MOL   C22935649   7.153   7.323   1.857 -0.9550 -0.3181 -0.6700
  111MOL   C23035650   7.171   7.171   1.882  0.3050  1.1096  0.5813
  111MOL   C23135651   7.072   7.391   1.950  0.0995 -0.4934  0.0319
  111MOL   H23235652   7.421   7.285   1.757  1.0097 -0.1439 -2.0034
  111MOL   H23335653   7.425   7.563   1.639  0.2645  0.1541  0.2590
  111MOL   H23435654   7.469   7.398   1.571 -1.3009 -0.7299  0.0366
  111MOL   H23535655   7.572   7.466   1.684  0.0498  1.0214 -1.2151
  111MOL   H23635656   7.191   7.483   1.736  1.2229  0.8314  2.4796
  111MOL   H23735657   7.275   7.141   1.890 -0.1620 -1.0560 -1.0729
  111MOL   H23835658   7.121   7.120   1.799  0.3895  1.0341  0.5779
  111MOL   H23935659   7.132   7.136   1.977 -1.9950 -1.6523 -1.3051
  111MOL   H24035660   7.058   7.498   1.954 -0.1146 -0.4869 -0.8430
  111MOL   H24135661   7.017   7.336   2.025 -0.6812 -1.9675 -1.5739
  111MOL   C24235662   7.187   7.314   1.598  0.0260  0.4802 -0.2188
  111MOL   C24335663   7.273   7.193   1.562 -0.4069 -0.3410 -0.2464
  111MOL   C24435664   7.141   7.412   1.478  1.1263 -0.6323 -0.2875
  111MOL   C24535665   7.079   7.547   1.516 -0.1986  0.3582  0.2549
  111MOL   C24635666   6.967   7.548   1.622  0.4420  0.0782  0.4687
  111MOL   C24735667   7.114   7.668   1.467  0.5303 -0.0395 -0.0019
  111MOL   H24835668   7.087   7.278   1.619  0.6132 -1.4678 -0.6237
  111MOL   H24935669   7.360   7.229   1.507 -1.0105  0.3476 -0.7610
  111MOL   H25035670   7.229   7.108   1.509  0.2615 -1.0358  0.2984
  111MOL   H25135671   7.323   7.141   1.644  1.7518 -1.7295 -2.3745
  111MOL   H25235672   7.235   7.444   1.433  1.0616 -0.1094 -0.0645
  111MOL   H25335673   6.962   7.461   1.687 -0.4344 -1.9115 -2.1239
  111MOL   H25435674   6.872   7.559   1.570  0.1172  0.3919  1.1313
  111MOL   H25535675   6.966   7.635   1.687 -0.7139  0.1124  0.4154
  111MOL   H25635676   7.191   7.668   1.391  0.7800 -2.1508  0.2224
  111MOL   H25735677   7.080   7.764   1.504 -2.2160 -1.8871  2.4170
  111MOL   C25835678   7.061   7.349   1.358 -0.4708 -0.2329 -0.0302
  111MOL   C25935679   6.953   7.263   1.409  0.0341 -0.1812 -0.3265
  111MOL   C26035680   7.162   7.274   1.258  0.0309 -0.0763 -0.5987
  111MOL   C26135681   7.260   7.376   1.188 -0.1760 -0.7953 -0.0544
  111MOL   C26235682   7.397   7.328   1.163  0.1771 -0.2471  0.7881
  111MOL   C26335683   7.224   7.507   1.163 -0.0770 -0.0894  0.1543
  111MOL   H26435684   7.009   7.429   1.307 -1.4271 -0.0890  1.1397
  111MOL   H26535685   6.891   7.240   1.323 -0.1787  1.7602 -0.7036
  111MOL   H26635686   6.891   7.319   1.479  0.0153 -2.0664  1.2234
  111MOL   H26735687   6.985   7.170   1.456  0.3041 -0.7044 -1.5344
  111MOL   H26835688   7.225   7.210   1.320 -0.6190  1.1353  1.3738
  111MOL   H26935689   7.395   7.273   1.068 -2.4425 -2.0626  1.8395
  111MOL   H27035690   7.432   7.255   1.236 -0.6071 -2.5837 -1.0817
  111MOL   H27135691   7.469   7.408   1.150 -0.9890  0.4614 -1.5824
  111MOL   H27235692   7.128   7.555   1.176 -0.3631 -1.1321  2.0613
  111MOL   H27335693   7.298   7.575   1.122 -1.4780  0.2456 -1.8568
  111MOL   C27435694   7.102   7.177   1.147 -0.1673 -0.6098 -0.1833
  111MOL   C27535695   7.006   7.254   1.053  0.2000  0.0813  0.1619
  111MOL   C27635696   7.054   7.031   1.191 -0.5782 -0.7344  0.2966
  111MOL   C27735697   7.145   6.961   1.297  0.5454 -0.7265  0.3657
  111MOL   C27835698   7.292   6.953   1.258 -0.0638  0.3994  0.4233
  111MOL   C27935699   7.103   6.901   1.414  0.0359 -0.1661 -0.3721
  111MOL   H28035700   7.182   7.158   1.076  1.2048  0.7960  0.9678
  111MOL   H28135701   6.907   7.246   1.097 -0.3454  1.6891 -0.7029
  111MOL   H28235702   7.009   7.216   0.951 -0.0117 -0.4693  0.3647
  111MOL   H28335703   7.028   7.361   1.054 -2.1296  0.5938 -0.7933
  111MOL   H28435704   6.964   7.052   1.248  1.6200  1.1232  3.2520
  111MOL   H28535705   7.337   7.041   1.213 -2.9944  2.7275  1.8458
  111MOL   H28635706   7.302   6.863   1.197  2.0899  0.7374  0.2593
  111MOL   H28735707   7.355   6.939   1.345  0.6009  2.1721  0.2348
  111MOL   H28835708   6.999   6.915   1.440 -0.4408 -1.8447 -1.3115
  111MOL   H28935709   7.167   6.842   1.478 -0.2627 -0.4515 -0.3375
  111MOL   C29035710   7.018   6.933   1.062  0.3455 -0.3481 -0.6380
  111MOL   C29135711   7.142   6.940   0.960  0.5015 -0.0419  0.1289
  111MOL   C29235712   6.884   6.951   0.994 -0.1041  0.9910 -0.0367
  111MOL   C29335713   6.767   6.966   1.092 -0.1191  0.2292  1.1508
  111MOL   C29435714   6.647   7.052   1.064 -0.2171 -0.4225  0.1225
  111MOL   C29535715   6.759   6.882   1.200 -0.4577 -0.6039 -0.6683
  111MOL   H29635716   7.021   6.834   1.109  1.5675 -0.7801 -1.6038
  111MOL   H29735717   7.154   6.841   0.914  1.3145 -0.5723  1.4645
  111MOL   H29835718   7.239   6.955   1.007  0.1766 -1.5911  1.3590
  111MOL   H29935719   7.119   7.007   0.878 -0.0408 -0.5292 -0.1268
  111MOL   H30035720   6.881   7.040   0.932  0.5186  2.1612  1.5715
  111MOL   H30135721   6.615   7.053   0.959 -1.2141  1.4198  0.4230
  111MOL   H30235722   6.671   7.157   1.080 -0.5583 -0.5245  1.3169
  111MOL   H30335723   6.560   7.028   1.126  0.0344 -1.3547  0.1099
  111MOL   H30435724   6.830   6.806   1.228 -1.1082 -1.5417 -1.5267
  111MOL   H30535725   6.672   6.883   1.265 -0.2069  1.4284 -0.3344
  111MOL   C30635726   6.852   6.840   0.886  0.0773 -0.3851  0.2115
  111MOL   C30735727   6.728   6.866   0.802 -0.0541 -0.3825 -0.6474
  111MOL   C30835728   6.849   6.693   0.937  0.3063 -0.3721 -0.3233
  111MOL   C30935729   6.863   6.594   0.827  0.8816 -1.0823 -0.4581
  111MOL   C31035730   7.000   6.586   0.772  0.7353  0.3998 -0.5609
  111MOL   C31135731   6.762   6.515   0.780 -0.2143  0.4614  0.5367
  111MOL   H31235732   6.942   6.850   0.825  0.3510  0.1464  0.6892
  111MOL   H31335733   6.727   6.813   0.707  1.5973  0.2935 -1.0662
  111MOL   H31435734   6.711   6.973   0.791 -0.1807 -0.1469  1.5937
  111MOL   H31535735   6.634   6.839   0.849 -0.6347  0.2215 -1.4575
  111MOL   H31635736   6.927   6.669   1.009 -0.4059 -0.9407  0.2595
  111MOL   H31735737   7.018   6.656   0.691 -2.1197  0.9280 -0.7911
  111MOL   H31835738   7.026   6.491   0.725 -0.5372 -0.0548 -0.3627
  111MOL   H31935739   7.068   6.606   0.855 -1.6252  0.7458  1.3703
  111MOL   H32035740   6.659   6.517   0.810 -0.8329  0.1467 -1.5134
  111MOL   H32135741   6.773   6.442   0.701  1.9375  1.5620 -0.2386
  111MOL   H32235742   6.753   6.670   0.984  1.6252 -2.1933  1.5554
  112MOL     C135743   4.781   7.458   0.530 -0.8325 -0.0328 -0.6374
  112MOL     C235744   4.900   7.516   0.445  0.4852 -0.1484 -0.6180
  112MOL     C335745   4.656   7.547   0.527 -0.2293 -0.6006 -0.3652
  112MOL     C435746   4.675   7.675   0.605 -0.6848  0.4471  0.3449
  112MOL     C535747   4.567   7.781   0.597 -0.8343  0.1470  0.8742
  112MOL     C635748   4.789   7.704   0.673 -0.0762 -0.7004  0.2941
  112MOL     H735749   4.757   7.372   0.468  0.9865  0.3249 -1.8750
  112MOL     H835750   4.997   7.488   0.486  2.5876  2.8418 -3.3067
  112MOL     H935751   4.899   7.625   0.434 -2.9844  0.0409  0.7280
  112MOL    H1035752   4.908   7.472   0.346 -1.4107  1.8995 -1.7237
  112MOL    H1135753   4.645   7.592   0.428 -1.7496  2.6966  1.2212
  112MOL    H1235754   4.603   7.880   0.626  1.1662  0.7056 -3.1055
  112MOL    H1335755   4.485   7.755   0.664  0.1812 -3.1071  0.9242
  112MOL    H1435756   4.527   7.799   0.497  0.5897  1.4360  0.5098
  112MOL    H1535757   4.876   7.642   0.685  1.0724  0.8043 -0.0241
  112MOL    H1635758   4.807   7.798   0.724  2.8670 -0.6917 -0.6523
  112MOL    H1735759   4.818   7.423   0.627  0.4509  0.8640 -0.7875
  112MOL    C1835760   4.524   7.475   0.573  0.3310  0.0044 -0.0506
  112MOL    C1935761   4.534   7.431   0.724  0.5103  0.1371  0.3144
  112MOL    C2035762   4.485   7.361   0.478 -0.0613 -0.6464  0.1507
  112MOL    C2135763   4.493   7.399   0.326  0.3490  0.6825 -0.0076
  112MOL    C2235764   4.381   7.486   0.270 -1.1505 -0.1705  0.6405
  112MOL    C2335765   4.590   7.348   0.237  0.2551  0.4760 -0.8168
  112MOL    H2435766   4.444   7.550   0.574 -1.7799 -2.1645 -1.0762
  112MOL    H2535767   4.568   7.327   0.728  1.9692  0.4835 -1.8298
  112MOL    H2635768   4.439   7.452   0.773  0.6815  1.0299  0.2633
  112MOL    H2735769   4.605   7.488   0.783  1.0233 -0.6604  0.4756
  112MOL    H2835770   4.568   7.291   0.487  0.5499 -0.0930 -1.0653
  112MOL    H2935771   4.398   7.586   0.311 -3.0753  0.2479  0.4919
  112MOL    H3035772   4.281   7.452   0.298 -1.4886 -1.8702 -2.3758
  112MOL    H3135773   4.383   7.488   0.161 -1.9094 -3.0928  0.5276
  112MOL    H3235774   4.667   7.279   0.270  1.7109  2.2006 -0.5210
  112MOL    H3335775   4.591   7.376   0.133  2.1055  0.2294 -0.8910
  112MOL    C3435776   4.349   7.284   0.517  0.4120 -0.2036  0.9119
  112MOL    C3535777   4.231   7.365   0.588  0.2752  0.0089  0.1684
  112MOL    C3635778   4.371   7.138   0.572 -0.1847 -0.3186 -0.2847
  112MOL    C3735779   4.450   7.041   0.486  0.8128  0.0046  0.5913
  112MOL    C3835780   4.547   6.949   0.548 -0.9089 -0.1195  0.0348
  112MOL    C3935781   4.441   7.043   0.352 -0.0793 -0.0174 -0.2308
  112MOL    H4035782   4.313   7.259   0.418  3.0446  2.3424 -0.7732
  112MOL    H4135783   4.132   7.323   0.572  0.2482 -0.4729  1.5418
  112MOL    H4235784   4.240   7.468   0.554  0.0382 -0.3025 -0.8581
  112MOL    H4335785   4.251   7.369   0.695  0.3959  0.4234  0.1324
  112MOL    H4435786   4.424   7.158   0.665  0.9442 -1.0970 -0.7574
  112MOL    H4535787   4.593   6.990   0.639  0.1233 -0.8008 -0.1672
  112MOL    H4635788   4.621   6.913   0.477 -0.2668 -0.5069  0.8792
  112MOL    H4735789   4.489   6.861   0.577 -1.5308  0.2384 -0.1161
  112MOL    H4835790   4.367   7.103   0.301 -0.7702  0.9125  1.7754
  112MOL    H4935791   4.507   6.975   0.301  0.1870  1.2832 -1.6380
  112MOL    C5035792   4.240   7.060   0.614 -1.7260  0.2688 -0.4908
  112MOL    C5135793   4.130   7.043   0.500  0.4480 -0.1399  0.1914
  112MOL    C5235794   4.177   7.094   0.752 -0.4603  0.1802 -0.3822
  112MOL    C5335795   4.278   7.142   0.863 -0.3207 -0.5145  0.1070
  112MOL    C5435796   4.392   7.052   0.903 -0.2804  0.2319  0.2941
  112MOL    C5535797   4.276   7.265   0.926  0.6550 -0.6934 -0.0411
  112MOL    H5635798   4.270   6.957   0.633  2.5007  1.5602  0.4495
  112MOL    H5735799   4.158   7.026   0.395 -0.5957 -0.1147 -0.0907
  112MOL    H5835800   4.069   7.133   0.510  1.0402  0.0067  2.6898
  112MOL    H5935801   4.076   6.953   0.528  0.3019  0.3310  1.4511
  112MOL    H6035802   4.116   7.184   0.742 -0.6216  0.3330  1.6169
  112MOL    H6135803   4.462   7.084   0.980  1.0713 -1.0991 -0.3534
  112MOL    H6235804   4.458   7.027   0.819  1.2082  1.9982  0.9033
  112MOL    H6335805   4.340   6.961   0.932 -1.8216  0.8123 -0.5680
  112MOL    H6435806   4.201   7.340   0.906  1.6050  0.6865  1.5002
  112MOL    H6535807   4.343   7.288   1.007 -0.7869 -0.6752  1.1651
  112MOL    C6635808   4.067   7.003   0.818  0.2690 -0.3985  0.2091
  112MOL    C6735809   4.103   6.853   0.796  0.9045  0.7299  0.0878
  112MOL    C6835810   3.921   7.028   0.770 -0.7524  0.3504 -0.2794
  112MOL    C6935811   3.877   7.170   0.801 -0.1236 -0.0227  0.1459
  112MOL    C7035812   3.806   7.259   0.696 -0.5642  0.2624 -0.2628
  112MOL    C7135813   3.878   7.213   0.930 -0.0070 -0.0944  0.1354
  112MOL    H7235814   4.076   7.034   0.922  1.1587  1.7105 -0.4609
  112MOL    H7335815   4.208   6.831   0.815  1.1091  0.6206 -1.1440
  112MOL    H7435816   4.092   6.826   0.691 -0.5188  2.8246 -0.3337
  112MOL    H7535817   4.050   6.767   0.837  2.4295  0.1553  0.8862
  112MOL    H7635818   3.929   7.021   0.662  0.7960 -0.6018 -0.1114
  112MOL    H7735819   3.871   7.265   0.608 -1.6329  3.3039 -0.9217
  112MOL    H7835820   3.786   7.362   0.725  1.0150  1.1967 -2.3363
  112MOL    H7935821   3.712   7.216   0.662 -0.0849 -0.2299 -1.0123
  112MOL    H8035822   3.922   7.157   1.011  0.9712 -2.1609 -1.7481
  112MOL    H8135823   3.842   7.311   0.959  0.2756 -0.1348  0.6294
  112MOL    C8235824   3.802   6.931   0.806 -0.0582  0.3145  0.0856
  112MOL    C8335825   3.811   6.896   0.956  0.5714  0.3329 -0.1178
  112MOL    C8435826   3.776   6.806   0.709  0.5358 -0.3882 -0.5311
  112MOL    C8535827   3.789   6.834   0.562 -0.3252  1.0288  0.1848
  112MOL    C8635828   3.683   6.932   0.507  0.3559 -0.3521  0.6166
  112MOL    C8735829   3.889   6.782   0.492  0.1275 -0.3075 -0.6370
  112MOL    H8835830   3.715   6.994   0.790 -0.8108 -0.1898  2.0383
  112MOL    H8935831   3.896   6.840   0.994  0.0451  0.8386  1.8320
  112MOL    H9035832   3.725   6.835   0.982 -0.1955  1.8507  0.9909
  112MOL    H9135833   3.782   6.984   1.012  1.4693 -0.3299  1.4138
  112MOL    H9235834   3.868   6.751   0.733  0.6376 -1.4697 -3.2517
  112MOL    H9335835   3.685   7.032   0.550 -1.9581  0.2976 -0.6869
  112MOL    H9435836   3.582   6.895   0.520 -0.4953  2.3498  2.0254
  112MOL    H9535837   3.700   6.942   0.399  2.4020  0.3597  0.9748
  112MOL    H9635838   3.960   6.707   0.526 -1.3242 -1.9247 -1.0705
  112MOL    H9735839   3.909   6.826   0.396  1.3972 -0.6700 -0.5398
  112MOL    C9835840   3.658   6.709   0.746 -0.1216  0.2191  0.2473
  112MOL    C9935841   3.532   6.798   0.790 -0.0594 -0.4534 -0.2148
  112MOL   C10035842   3.700   6.582   0.830 -0.1778  0.2047  0.0775
  112MOL   C10135843   3.805   6.502   0.747  0.4301  0.3891  0.4519
  112MOL   C10235844   3.924   6.453   0.823  0.2930 -0.6524 -0.1589
  112MOL   C10335845   3.797   6.479   0.616 -0.0983 -0.6411 -0.5236
  112MOL   H10435846   3.615   6.677   0.651 -3.1059 -2.0525  2.2493
  112MOL   H10535847   3.536   6.827   0.895 -2.2843 -0.4296 -0.1178
  112MOL   H10635848   3.435   6.756   0.766 -1.1544  0.0569  3.1788
  112MOL   H10735849   3.534   6.891   0.732 -0.5613  0.1512  0.7407
  112MOL   H10835850   3.746   6.616   0.923  0.5687 -1.8514  0.4798
  112MOL   H10935851   3.983   6.536   0.862 -1.2708 -0.7779  2.5805
  112MOL   H11035852   3.997   6.408   0.756  0.2966 -0.1740 -0.4815
  112MOL   H11135853   3.888   6.381   0.896 -2.0340 -0.4298 -1.0353
  112MOL   H11235854   3.706   6.516   0.571  0.4453  3.7875  1.7530
  112MOL   H11335855   3.870   6.420   0.564  1.1317  3.3434 -3.5519
  112MOL   C11435856   3.585   6.489   0.869  0.8013 -0.3876  0.2977
  112MOL   C11535857   3.491   6.452   0.747  0.0858  0.4231 -0.1135
  112MOL   C11635858   3.505   6.517   1.008  0.4445 -0.1732  0.8826
  112MOL   C11735859   3.588   6.541   1.131  0.2600 -0.2643 -0.8914
  112MOL   C11835860   3.674   6.421   1.168  0.6833  0.1069 -0.2388
  112MOL   C11935861   3.589   6.651   1.209 -0.0710 -0.5016 -0.6662
  112MOL   H12035862   3.642   6.399   0.891  0.2826 -1.0452 -0.9788
  112MOL   H12135863   3.540   6.432   0.652  0.8769 -0.5561  0.4975
  112MOL   H12235864   3.422   6.534   0.726  0.7978  1.1344  0.3208
  112MOL   H12335865   3.432   6.362   0.765  2.5184 -1.3178 -0.7431
  112MOL   H12435866   3.459   6.615   0.993  0.3181 -0.7198 -2.7754
  112MOL   H12535867   3.742   6.442   1.252 -0.3010 -0.3891  0.6937
  112MOL   H12635868   3.742   6.388   1.089  2.3650  2.2742  0.2349
  112MOL   H12735869   3.615   6.334   1.195  0.0074  0.7936  0.5498
  112MOL   H12835870   3.530   6.736   1.179  2.0438  0.3299 -2.6453
  112MOL   H12935871   3.642   6.641   1.303 -1.6803  3.7049  0.8056
  112MOL   C13035872   3.389   6.415   1.046 -0.1086 -0.0686 -0.4714
  112MOL   C13135873   3.424   6.272   1.013  0.2193  0.8420  0.0362
  112MOL   C13235874   3.246   6.448   0.983 -0.0153 -0.3413  0.2433
  112MOL   C13335875   3.216   6.596   0.987 -0.0705  0.9272  1.0847
  112MOL   C13435876   3.223   6.680   1.119 -0.4144 -0.2482 -0.6574
  112MOL   C13535877   3.183   6.666   0.870 -0.1878  0.5573 -0.2683
  112MOL   H13635878   3.376   6.415   1.154 -0.2270  0.4336 -0.4841
  112MOL   H13735879   3.382   6.244   0.917  0.3783  1.0187 -0.0834
  112MOL   H13835880   3.388   6.208   1.094  1.2074 -0.5606 -0.6132
  112MOL   H13935881   3.530   6.244   1.019 -0.0524 -0.5885 -1.3498
  112MOL   H14035882   3.253   6.442   0.875 -0.2224  0.3435  0.1912
  112MOL   H14135883   3.323   6.702   1.158 -0.6813 -0.3417  0.0977
  112MOL   H14235884   3.173   6.619   1.194  0.6127  1.7284  1.7071
  112MOL   H14335885   3.166   6.773   1.116  0.5626  0.3090 -2.2105
  112MOL   H14435886   3.179   6.615   0.775  2.8077 -0.3247  0.0399
  112MOL   H14535887   3.152   6.769   0.871 -0.3016  0.5437 -1.3645
  112MOL   C14635888   3.115   6.368   1.031 -0.5541 -0.0167  0.4752
  112MOL   C14735889   3.108   6.344   1.179  0.3890  0.0240  0.2073
  112MOL   C14835890   3.102   6.236   0.947  0.0059 -0.2933  0.4245
  112MOL   C14935891   3.105   6.260   0.788  0.4421  0.0491  0.2251
  112MOL   C15035892   3.172   6.155   0.705 -0.2615  0.3028 -0.2655
  112MOL   C15135893   3.058   6.371   0.728 -0.7101 -0.4808  0.0437
  112MOL   H15235894   3.027   6.425   1.000  1.0592  2.2254 -0.0461
  112MOL   H15335895   3.164   6.426   1.226 -0.4478  0.8683 -0.2469
  112MOL   H15435896   3.181   6.270   1.211 -2.0288 -1.9356  1.3785
  112MOL   H15535897   3.004   6.346   1.212 -0.2610 -3.3080 -1.4737
  112MOL   H15635898   3.190   6.174   0.966  0.7631  0.2296 -1.2621
  112MOL   H15735899   3.273   6.185   0.675  0.9548 -0.5729  2.7994
  112MOL   H15835900   3.110   6.138   0.617 -1.0857  0.3177  0.3158
  112MOL   H15935901   3.164   6.065   0.766  0.5637  0.1609 -0.3543
  112MOL   H16035902   3.011   6.451   0.783  0.3893 -0.1642  0.5396
  112MOL   H16135903   3.072   6.390   0.623  0.7281 -1.3078  0.0760
  112MOL   C16235904   2.973   6.147   0.973 -0.0570  1.0187 -0.2832
  112MOL   C16335905   2.843   6.230   0.958  0.3185  0.2422  0.4100
  112MOL   C16435906   2.960   6.058   1.092 -0.0021 -0.2373  0.5852
  112MOL   C16535907   3.094   5.997   1.145  0.4158 -0.0231 -1.2839
  112MOL   C16635908   3.155   5.890   1.055  0.0588 -1.1648 -0.6763
  112MOL   C16735909   3.150   6.020   1.266  0.6313 -0.9565  0.5400
  112MOL   H16835910   2.977   6.075   0.891 -0.3216  1.4671 -0.6883
  112MOL   H16935911   2.809   6.275   1.052 -2.6209  1.3021 -1.0995
  112MOL   H17035912   2.757   6.167   0.936  0.5427 -0.8741  2.5352
  112MOL   H17135913   2.838   6.314   0.889 -1.3606  0.8646  1.2609
  112MOL   H17235914   2.939   6.132   1.169 -3.1051 -0.4886  0.0534
  112MOL   H17335915   3.081   5.813   1.035 -0.8051  0.3356 -3.5278
  112MOL   H17435916   3.236   5.843   1.110  1.3713  0.6887 -0.9531
  112MOL   H17535917   3.192   5.937   0.964  0.5016  0.0309  0.0983
  112MOL   H17635918   3.107   6.097   1.329 -0.6039 -0.5230 -0.7883
  112MOL   H17735919   3.237   5.971   1.307  2.4142  2.7806  1.4081
  112MOL   C17835920   2.846   5.949   1.102  0.0249 -0.1447  1.3580
  112MOL   C17935921   2.821   5.870   0.971  0.4628 -0.0227 -0.5078
  112MOL   C18035922   2.699   5.983   1.158  1.2301  0.4086  0.5476
  112MOL   C18135923   2.716   6.068   1.284 -0.6582  0.3463 -0.1290
  112MOL   C18235924   2.626   6.191   1.293  0.1780 -0.1490  0.0655
  112MOL   C18335925   2.796   6.033   1.391  0.0220 -0.4039  0.1975
  112MOL   H18435926   2.893   5.877   1.169 -0.9586 -1.0162  1.1259
  112MOL   H18535927   2.782   5.773   1.001  0.3866  0.2460  0.2532
  112MOL   H18635928   2.915   5.844   0.922 -0.1492 -0.8004 -1.2835
  112MOL   H18735929   2.760   5.928   0.901  0.4152 -0.7412 -1.0624
  112MOL   H18835930   2.658   6.059   1.092 -1.6960 -0.6029  1.1293
  112MOL   H18935931   2.593   6.234   1.198 -0.1465  1.0514  0.7136
  112MOL   H19035932   2.681   6.271   1.342  0.4965  0.3157 -1.0343
  112MOL   H19135933   2.538   6.178   1.356 -0.5629  1.1633 -0.6783
  112MOL   H19235934   2.860   5.946   1.382 -0.2689 -0.5465 -0.5212
  112MOL   H19335935   2.810   6.094   1.479  0.6480 -1.2834  0.7177
  112MOL   C19435936   2.598   5.865   1.191 -0.7684  0.1521  0.0596
  112MOL   C19535937   2.662   5.748   1.256 -0.3900  0.3271 -0.3316
  112MOL   C19635938   2.497   5.826   1.069  0.9185 -0.9226 -0.4311
  112MOL   C19735939   2.410   5.947   1.030  0.6606 -0.4787  0.2307
  112MOL   C19835940   2.392   5.967   0.884 -0.8145 -0.2566 -0.1863
  112MOL   C19935941   2.352   6.034   1.112 -0.6552  0.8278  0.0050
  112MOL   H20035942   2.542   5.902   1.277 -1.0093 -2.1588  0.9367
  112MOL   H20135943   2.717   5.685   1.186 -3.3547 -1.6745 -0.9339
  112MOL   H20235944   2.592   5.684   1.308  0.1521 -1.0252 -1.2212
  112MOL   H20335945   2.737   5.783   1.327  1.5787 -2.0483 -1.1709
  112MOL   H20435946   2.565   5.825   0.984 -0.4464 -0.3190 -1.5472
  112MOL   H20535947   2.344   6.064   0.871  0.5914  0.6965  1.5486
  112MOL   H20635948   2.335   5.885   0.841 -0.8247 -1.0088  1.2169
  112MOL   H20735949   2.487   5.972   0.831 -0.3574 -0.4412  0.5985
  112MOL   H20835950   2.348   6.023   1.220 -1.0617 -0.1995 -0.1082
  112MOL   H20935951   2.288   6.114   1.078 -0.2536  0.2320 -2.2312
  112MOL   C21035952   2.402   5.706   1.080 -0.4432  0.1691 -0.6161
  112MOL   C21135953   2.313   5.720   1.206 -0.1076  0.0824  0.0486
  112MOL   C21235954   2.460   5.566   1.063 -0.4892 -0.1087  0.3335
  112MOL   C21335955   2.565   5.561   0.951  0.3967 -0.6618  0.5332
  112MOL   C21435956   2.526   5.608   0.812  0.3365  0.5770  0.5685
  112MOL   C21535957   2.677   5.495   0.971 -0.1715 -0.3618 -0.0574
  112MOL   H21635958   2.331   5.717   0.998 -1.0157 -1.7285 -0.3978
  112MOL   H21735959   2.278   5.822   1.220  2.2717  1.0467 -0.7607
  112MOL   H21835960   2.360   5.709   1.304 -1.1493  2.9709  0.9164
  112MOL   H21935961   2.224   5.657   1.195 -0.0110 -0.0535  0.0513
  112MOL   H22035962   2.518   5.558   1.155  0.5350 -2.7648 -0.4838
  112MOL   H22135963   2.520   5.717   0.805  1.1658  0.6387  0.7142
  112MOL   H22235964   2.430   5.565   0.784  0.8600 -0.0863 -0.2217
  112MOL   H22335965   2.606   5.581   0.743  0.4989 -0.4128  1.1373
  112MOL   H22435966   2.693   5.447   1.067 -0.7886  0.0383  0.2515
  112MOL   H22535967   2.754   5.480   0.897  0.1611  0.6085  0.0712
  112MOL   C22635968   2.358   5.445   1.070  0.2809 -0.0396 -0.4086
  112MOL   C22735969   2.227   5.460   0.980  0.5908  0.8813 -0.3279
  112MOL   C22835970   2.333   5.377   1.210 -0.0971 -0.3453  0.0904
  112MOL   C22935971   2.463   5.357   1.288 -0.6704 -0.2916  0.3712
  112MOL   C23035972   2.469   5.431   1.422  0.5274  0.0967 -0.2366
  112MOL   C23135973   2.560   5.281   1.236 -0.2136  0.1091  0.4117
  112MOL   H23235974   2.412   5.373   1.008 -1.1719 -0.3573 -1.3129
  112MOL   H23335975   2.155   5.513   1.043 -0.2905 -1.6358  0.8394
  112MOL   H23435976   2.192   5.360   0.954 -0.8662  1.0259  1.0299
  112MOL   H23535977   2.250   5.515   0.889  1.4197  0.9006 -0.1124
  112MOL   H23635978   2.288   5.461   1.263 -0.1730  0.0597 -0.6160
  112MOL   H23735979   2.461   5.538   1.408  0.4051  0.3065  1.3364
  112MOL   H23835980   2.561   5.410   1.478  1.2091  0.1074 -1.3374
  112MOL   H23935981   2.390   5.392   1.486 -0.8794  1.2662 -1.2546
  112MOL   H24035982   2.551   5.236   1.138  0.1996  0.8744  0.0198
  112MOL   H24135983   2.650   5.266   1.294 -0.9677 -0.8364  1.3613
  112MOL   C24235984   2.247   5.247   1.217 -0.4049 -0.6664 -0.3281
  112MOL   C24335985   2.295   5.145   1.114  0.4277 -0.7551 -0.0742
  112MOL   C24435986   2.084   5.252   1.218 -0.2258 -0.5745 -0.0511
  112MOL   C24535987   2.030   5.374   1.294  0.4207 -0.2752  0.7334
  112MOL   C24635988   2.055   5.381   1.432  0.2162  0.4700 -0.5041
  112MOL   C24735989   1.965   5.475   1.226 -0.5644  0.1023  0.3049
  112MOL   H24835990   2.269   5.213   1.318 -0.0594  1.4856  0.3332
  112MOL   H24935991   2.211   5.087   1.075 -0.7877  0.1659  1.0985
  112MOL   H25035992   2.372   5.082   1.160  3.8907  1.5244 -2.5498
  112MOL   H25135993   2.335   5.183   1.021 -0.3320  0.3233  0.0350
  112MOL   H25235994   2.055   5.267   1.114 -0.1209  0.1268  0.0196
  112MOL   H25335995   2.137   5.315   1.460 -0.3583  0.2239  0.6103
  112MOL   H25435996   1.965   5.365   1.491  1.6286  1.6987  2.0955
  112MOL   H25535997   2.102   5.478   1.449  0.3802  0.4865 -1.0459
  112MOL   H25635998   1.950   5.474   1.119 -0.1119  0.7807  0.2286
  112MOL   H25735999   1.931   5.567   1.271 -0.7383  0.8100 -1.2133
  112MOL   C25836000   2.010   5.123   1.269 -0.9646 -0.3973  0.3541
  112MOL   C25936001   2.068   4.985   1.240 -0.6042 -0.0498 -0.2145
  112MOL   C26036002   1.854   5.124   1.249 -0.0590  0.8382 -0.5969
  112MOL   C26136003   1.794   5.055   1.373  0.3387 -0.6487  0.0317
  112MOL   C26236004   1.741   5.141   1.493  0.3682 -0.0806 -0.2095
  112MOL   C26336005   1.779   4.924   1.389  0.4353 -0.0201 -0.3464
  112MOL   H26436006   2.023   5.127   1.377  0.7727  0.2230  0.1382
  112MOL   H26536007   2.168   4.970   1.281 -1.1235  0.0948  1.1148
  112MOL   H26636008   2.059   4.956   1.135  0.5189 -2.5661  0.3351
  112MOL   H26736009   2.022   4.906   1.298  2.2899  0.3587  2.8154
  112MOL   H26836010   1.818   5.227   1.253  0.1865  0.9108 -0.2149
  112MOL   H26936011   1.698   5.073   1.567 -0.3250  1.0455  0.4295
  112MOL   H27036012   1.684   5.227   1.460  0.3512  0.0214  0.0817
  112MOL   H27136013   1.823   5.191   1.544  1.3009 -0.1700 -1.5951
  112MOL   H27236014   1.792   4.859   1.303  2.0611 -2.1488  1.4417
  112MOL   H27336015   1.746   4.880   1.481 -1.5223 -1.4599 -1.6964
  112MOL   C27436016   1.796   5.079   1.110 -0.4929  0.0155  1.1240
  112MOL   C27536017   1.863   5.151   0.991  0.9921 -0.1117 -0.2866
  112MOL   C27636018   1.638   5.074   1.100  0.4982 -0.6358 -0.4767
  112MOL   C27736019   1.593   4.945   1.026  0.3353 -0.0932 -0.0834
  112MOL   C27836020   1.629   4.938   0.883  0.6074 -0.2178  0.3946
  112MOL   C27936021   1.545   4.832   1.088 -0.1737 -0.0447 -0.3571
  112MOL   H28036022   1.827   4.975   1.101 -0.5465  0.0685  0.3148
  112MOL   H28136023   1.809   5.149   0.897  1.2263  0.3679 -0.4329
  112MOL   H28236024   1.966   5.118   0.986  0.5509 -1.4149 -0.8452
  112MOL   H28336025   1.869   5.257   1.016  2.7354 -0.0679 -0.8898
  112MOL   H28436026   1.599   5.062   1.201  0.2720  0.1979 -0.4643
  112MOL   H28536027   1.565   4.868   0.831 -0.6323  0.6971  0.6553
  112MOL   H28636028   1.733   4.907   0.872  0.9531 -0.0179  2.6533
  112MOL   H28736029   1.622   5.038   0.840  0.5918 -0.8139 -0.9888
  112MOL   H28836030   1.524   4.827   1.194  1.4601 -0.8742 -0.0520
  112MOL   H28936031   1.519   4.745   1.030 -0.2543 -0.6866  0.6236
  112MOL   C29036032   1.577   5.209   1.041  0.0847 -0.5787  0.1283
  112MOL   C29136033   1.595   5.331   1.138 -0.3898 -0.6336 -0.1356
  112MOL   C29236034   1.422   5.207   1.007  1.0384  0.5168  0.3566
  112MOL   C29336035   1.394   5.313   0.898  0.1107  0.4855  0.3920
  112MOL   C29436036   1.430   5.260   0.758 -0.3637 -0.3119  0.2667
  112MOL   C29536037   1.326   5.426   0.918  0.5293 -0.5823 -0.5312
  112MOL   H29636038   1.632   5.222   0.947 -0.4310 -0.4364 -0.1540
  112MOL   H29736039   1.700   5.355   1.155 -1.3801  3.3866  0.8121
  112MOL   H29836040   1.552   5.311   1.236  1.8060 -0.3407  0.9106
  112MOL   H29936041   1.543   5.420   1.103  0.9420  0.8971  1.6699
  112MOL   H30036042   1.394   5.111   0.963 -1.5809  0.2276  2.5854
  112MOL   H30136043   1.371   5.171   0.738 -4.0190  1.6931  1.6059
  112MOL   H30236044   1.533   5.235   0.734 -0.7353  0.2301 -2.0669
  112MOL   H30336045   1.404   5.336   0.684  2.2184  1.3127  0.9573
  112MOL   H30436046   1.292   5.460   1.015 -0.1498  0.0556 -0.9924
  112MOL   H30536047   1.295   5.486   0.835  0.4157 -0.8922 -0.7136
  112MOL   C30636048   1.324   5.206   1.131  0.0270 -0.8938  0.3078
  112MOL   C30736049   1.353   5.103   1.240 -0.4136 -0.1764 -0.1788
  112MOL   C30836050   1.185   5.174   1.077 -0.0413 -0.0961 -0.1219
  112MOL   C30936051   1.065   5.177   1.168 -0.2058 -0.1948 -0.4067
  112MOL   C31036052   0.999   5.311   1.185  0.0075 -0.1413  0.3016
  112MOL   C31136053   1.023   5.064   1.224 -0.4103  0.4536  0.5644
  112MOL   H31236054   1.320   5.302   1.182 -0.3303 -0.2969 -0.8387
  112MOL   H31336055   1.375   5.006   1.195  0.0285 -0.0680 -0.1934
  112MOL   H31436056   1.280   5.094   1.321 -0.8757  0.4066 -0.5295
  112MOL   H31536057   1.444   5.138   1.288 -1.3616  2.4643 -0.2677
  112MOL   H31636058   1.156   5.253   1.009 -1.7660 -1.4732 -1.0200
  112MOL   H31736059   0.899   5.298   1.227  0.2120 -1.8846  0.3198
  112MOL   H31836060   0.990   5.365   1.091  2.7936 -0.9532 -0.4792
  112MOL   H31936061   1.049   5.374   1.258 -2.7428  0.7680  1.5017
  112MOL   H32036062   1.074   4.969   1.209 -0.1779  0.9862 -2.3199
  112MOL   H32136063   0.932   5.068   1.281 -1.5659  1.9660 -1.3345
  112MOL   H32236064   1.185   5.084   1.016  2.2563 -2.1562  2.7114
  113MOL     C136065   2.933   3.938   7.046  0.0928 -0.8248  0.0819
  113MOL     C236066   3.053   3.908   7.123  0.4308  1.0248  0.5883
  113MOL     C336067   2.814   3.850   7.083 -0.5700  1.1644 -0.0154
  113MOL     C436068   2.850   3.700   7.084 -0.6230  0.0316  0.1127
  113MOL     C536069   2.902   3.639   6.950 -0.9137 -0.3650  0.0496
  113MOL     C636070   2.855   3.627   7.200 -0.0872  0.1546 -0.2786
  113MOL     H736071   2.911   4.045   7.051  1.7240 -0.3277 -2.4888
  113MOL     H836072   3.107   3.818   7.093 -1.0043 -0.0059  1.0807
  113MOL     H936073   3.048   3.908   7.231  1.0682  1.0063  0.6182
  113MOL    H1036074   3.129   3.983   7.099  2.1778 -0.4631  1.3052
  113MOL    H1136075   2.792   3.878   7.186  0.2728 -0.3173  0.5865
  113MOL    H1236076   2.830   3.636   6.868 -1.0238 -1.0801  0.1714
  113MOL    H1336077   2.944   3.539   6.958  0.1231 -0.0317 -1.0415
  113MOL    H1436078   2.982   3.693   6.899 -1.9622  1.9407  0.7601
  113MOL    H1536079   2.822   3.663   7.296  1.1841  0.0134  0.2221
  113MOL    H1636080   2.905   3.532   7.199 -0.3795  0.0040 -0.7109
  113MOL    H1736081   2.953   3.922   6.940  1.2007  0.8914  0.0041
  113MOL    C1836082   2.679   3.878   7.003 -0.0690  0.2694 -0.2877
  113MOL    C1936083   2.643   4.028   7.006  0.9934  0.3675  0.3801
  113MOL    C2036084   2.557   3.776   7.032  0.2857  0.0826 -0.8705
  113MOL    C2136085   2.491   3.741   6.898 -0.3532 -0.1658  0.7845
  113MOL    C2236086   2.512   3.597   6.844  0.6360  0.5846  0.6392
  113MOL    C2336087   2.422   3.834   6.836  0.4503 -0.5283  0.1541
  113MOL    H2436088   2.716   3.865   6.902  3.0484 -0.1209  0.8603
  113MOL    H2536089   2.536   4.038   6.989  0.6825  0.5423  2.3025
  113MOL    H2636090   2.704   4.086   6.937  0.9613 -0.4438 -0.3434
  113MOL    H2736091   2.660   4.058   7.109  2.4121  0.5306  0.1054
  113MOL    H2836092   2.599   3.683   7.068 -1.4259  0.4171  2.2376
  113MOL    H2936093   2.614   3.578   6.810 -0.0884 -1.1481 -0.5912
  113MOL    H3036094   2.444   3.581   6.760 -0.2442  1.9479  1.0698
  113MOL    H3136095   2.481   3.521   6.916  0.8300 -0.6635 -0.5806
  113MOL    H3236096   2.393   3.930   6.875 -0.7972 -0.9126  0.1974
  113MOL    H3336097   2.393   3.805   6.736  2.1750 -1.0087 -0.2163
  113MOL    C3436098   2.452   3.822   7.145 -0.8161 -0.0392  0.2655
  113MOL    C3536099   2.505   3.832   7.291  0.0218 -0.2981 -0.6005
  113MOL    C3636100   2.311   3.745   7.139 -0.2625  0.6517  0.5249
  113MOL    C3736101   2.195   3.840   7.172 -0.5491  0.3422  0.3726
  113MOL    C3836102   2.164   3.873   7.320 -0.0244  0.5556 -0.4859
  113MOL    C3936103   2.127   3.902   7.074  0.0423 -0.0600 -0.1093
  113MOL    H4036104   2.428   3.926   7.123  1.2130  0.3381 -0.3223
  113MOL    H4136105   2.510   3.730   7.331 -0.1307 -0.2143 -0.3659
  113MOL    H4236106   2.443   3.903   7.345 -3.1445 -2.4975 -1.1719
  113MOL    H4336107   2.611   3.858   7.293  0.3571 -1.6025  3.5997
  113MOL    H4436108   2.279   3.709   7.041  1.1185  0.9674 -0.0468
  113MOL    H4536109   2.065   3.860   7.362  1.4530  0.7755  3.2477
  113MOL    H4636110   2.184   3.980   7.324  3.2193  0.0804 -2.2413
  113MOL    H4736111   2.235   3.837   7.395  0.0302 -1.5674 -1.5421
  113MOL    H4836112   2.152   3.889   6.970  2.3924  2.8775  0.0132
  113MOL    H4936113   2.049   3.968   7.109 -0.2965 -0.7820  0.5144
  113MOL    C5036114   2.292   3.611   7.211  0.0986  0.3001  0.0565
  113MOL    C5136115   2.400   3.495   7.185  0.3133 -0.4797 -0.4943
  113MOL    C5236116   2.146   3.547   7.215 -0.1710 -0.3298 -0.2214
  113MOL    C5336117   2.125   3.477   7.351 -0.1797  0.6114 -0.0138
  113MOL    C5436118   2.079   3.564   7.468 -0.3561  0.0415  0.1753
  113MOL    C5536119   2.161   3.351   7.381 -0.0820 -0.2495  0.1114
  113MOL    H5636120   2.325   3.633   7.313  3.3338 -1.1148 -0.6146
  113MOL    H5736121   2.385   3.417   7.260  2.7150 -0.8786 -0.3954
  113MOL    H5836122   2.497   3.543   7.199  0.4097 -1.3243  1.9871
  113MOL    H5936123   2.392   3.448   7.087 -2.0858 -0.7571 -0.2119
  113MOL    H6036124   2.069   3.623   7.228 -0.5429 -0.6538 -0.5208
  113MOL    H6136125   2.146   3.646   7.495  0.9824 -0.9069 -0.2207
  113MOL    H6236126   2.053   3.501   7.553  0.6371  0.7837  1.0539
  113MOL    H6336127   1.985   3.617   7.455 -1.4388 -1.7466  0.6489
  113MOL    H6436128   2.194   3.278   7.308  3.0902  0.3601  0.8661
  113MOL    H6536129   2.161   3.309   7.480  0.2206 -1.7976 -0.5256
  113MOL    C6636130   2.094   3.459   7.097 -0.6096 -0.4212  0.6963
  113MOL    C6736131   2.124   3.527   6.957 -0.6496  0.2304  0.3086
  113MOL    C6836132   1.950   3.416   7.104 -0.2125 -0.3559 -1.0278
  113MOL    C6936133   1.931   3.280   7.036  0.4683 -0.3011 -0.7976
  113MOL    C7036134   1.942   3.154   7.118 -0.1640  0.1373 -0.3158
  113MOL    C7136135   1.906   3.269   6.905  0.2309 -0.0513 -0.4376
  113MOL    H7236136   2.156   3.369   7.102  1.1277  0.4640 -3.2487
  113MOL    H7336137   2.230   3.537   6.931 -0.5642  1.3358  1.0665
  113MOL    H7436138   2.082   3.627   6.953 -0.8826  0.1138 -0.1703
  113MOL    H7536139   2.077   3.484   6.869 -1.9914  1.1156  0.5878
  113MOL    H7636140   1.913   3.396   7.205  0.3390  0.9857 -0.5437
  113MOL    H7736141   2.042   3.146   7.162  0.3236  2.0141 -1.0266
  113MOL    H7836142   1.928   3.060   7.065  5.0199 -0.6677 -0.4937
  113MOL    H7936143   1.861   3.165   7.190 -0.1691  0.2967 -0.3460
  113MOL    H8036144   1.904   3.356   6.841  0.3740  0.4130  0.1848
  113MOL    H8136145   1.896   3.173   6.858  2.0889 -0.9634  0.9813
  113MOL    C8236146   1.841   3.524   7.053 -0.2321  0.1374 -0.6202
  113MOL    C8336147   1.850   3.657   7.133  0.4778  0.3369  0.5491
  113MOL    C8436148   1.695   3.475   7.040  0.0647 -0.1972  0.8275
  113MOL    C8536149   1.625   3.538   6.917 -0.3259 -0.2366 -0.9055
  113MOL    C8636150   1.598   3.685   6.918  0.0739 -0.1323  1.0016
  113MOL    C8736151   1.589   3.464   6.808 -0.1751  0.6164 -0.7927
  113MOL    H8836152   1.866   3.554   6.951 -1.6267  0.6198 -0.8239
  113MOL    H8936153   1.861   3.644   7.241  2.2978 -3.9533 -0.0654
  113MOL    H9036154   1.765   3.721   7.109  0.8826  0.2159 -1.2611
  113MOL    H9136155   1.940   3.712   7.105  1.4075 -2.3656 -1.9364
  113MOL    H9236156   1.695   3.371   7.007 -0.2432 -0.7420  2.4974
  113MOL    H9336157   1.690   3.738   6.892 -0.9430  0.8535 -0.7357
  113MOL    H9436158   1.558   3.727   7.011  1.9543  0.0996  1.7218
  113MOL    H9536159   1.533   3.715   6.836  1.3437  1.2067  0.4589
  113MOL    H9636160   1.617   3.360   6.800 -1.5626  0.4576 -4.9239
  113MOL    H9736161   1.533   3.512   6.729  0.0899 -0.2062 -1.4878
  113MOL    C9836162   1.602   3.484   7.171 -0.0437  0.1910 -0.2776
  113MOL    C9936163   1.674   3.418   7.289  0.2155 -0.1379  0.2280
  113MOL   C10036164   1.461   3.423   7.167  0.2366 -0.7254 -0.3154
  113MOL   C10136165   1.467   3.273   7.131  0.2227  0.2889 -0.0515
  113MOL   C10236166   1.471   3.174   7.247  0.2059 -0.1851 -0.7637
  113MOL   C10336167   1.450   3.222   7.009 -0.7294  0.0008 -0.3938
  113MOL   H10436168   1.593   3.588   7.201  0.9604 -0.6032  3.0121
  113MOL   H10536169   1.612   3.398   7.376 -0.2364  1.0826  0.1998
  113MOL   H10636170   1.761   3.469   7.329 -0.4075  1.5031 -0.4701
  113MOL   H10736171   1.714   3.321   7.258  0.3518 -0.2598  0.7927
  113MOL   H10836172   1.429   3.424   7.271 -0.6404 -0.5824 -0.5913
  113MOL   H10936173   1.406   3.091   7.218  0.8487 -1.1971  0.6350
  113MOL   H11036174   1.426   3.216   7.337  0.4366 -0.9446 -0.2874
  113MOL   H11136175   1.570   3.130   7.257 -0.1831 -1.0507 -0.6862
  113MOL   H11236176   1.438   3.273   6.914  3.4609 -2.1652 -2.2092
  113MOL   H11336177   1.447   3.117   6.987  2.8289 -0.1727 -0.3516
  113MOL   C11436178   1.338   3.497   7.090  0.0249  0.6314 -0.5244
  113MOL   C11536179   1.322   3.636   7.159  0.3208 -0.1460  0.1663
  113MOL   C11636180   1.199   3.421   7.062 -0.1849 -0.2014 -0.4279
  113MOL   C11736181   1.141   3.465   6.925 -0.1571 -0.3448  0.3065
  113MOL   C11836182   1.119   3.610   6.892  0.0142 -0.7906 -0.9000
  113MOL   C11936183   1.121   3.372   6.834  0.1733  1.1339 -0.0556
  113MOL   H12036184   1.380   3.509   6.990  2.1857  0.8621  0.3835
  113MOL   H12136185   1.223   3.677   7.145  0.2987 -1.1024 -2.7098
  113MOL   H12236186   1.391   3.696   7.099 -0.7931 -0.5317 -1.5037
  113MOL   H12336187   1.352   3.630   7.264  0.8967 -0.4705 -0.0120
  113MOL   H12436188   1.229   3.316   7.055 -1.3642 -0.6770  1.4908
  113MOL   H12536189   1.061   3.612   6.800 -0.5940  2.8859 -0.5352
  113MOL   H12636190   1.194   3.689   6.888 -0.7981 -0.0126 -1.2124
  113MOL   H12736191   1.046   3.642   6.967 -0.0188  4.2331 -2.8569
  113MOL   H12836192   1.136   3.267   6.853  2.2554  1.6440  1.2767
  113MOL   H12936193   1.082   3.405   6.739  0.8955  0.3171 -0.6388
  113MOL   C13036194   1.091   3.427   7.175 -0.0822  0.0412  0.4388
  113MOL   C13136195   1.158   3.401   7.317 -0.1448  0.1810 -0.2136
  113MOL   C13236196   0.961   3.341   7.161 -0.8707 -0.1585 -0.0665
  113MOL   C13336197   0.979   3.194   7.125  0.0355  0.1524  0.3476
  113MOL   C13436198   1.051   3.109   7.231  0.0179  0.0117 -0.1938
  113MOL   C13536199   0.952   3.140   7.007 -0.4246 -0.1243  0.5121
  113MOL   H13636200   1.045   3.525   7.186 -0.1639  0.1599 -0.8406
  113MOL   H13736201   1.218   3.310   7.312 -1.2983 -0.7079  1.4101
  113MOL   H13836202   1.083   3.391   7.396 -2.0473  0.9273 -1.8617
  113MOL   H13936203   1.224   3.480   7.351 -0.9662  0.9553 -0.4154
  113MOL   H14036204   0.932   3.326   7.265  1.6985 -2.1048  0.4233
  113MOL   H14136205   0.997   3.016   7.247 -0.7563  0.8871  2.6771
  113MOL   H14236206   1.056   3.149   7.333 -1.4129 -0.3230  0.0111
  113MOL   H14336207   1.156   3.096   7.204 -0.2995 -1.1438 -0.8570
  113MOL   H14436208   0.907   3.209   6.936  1.3248  2.3700  1.7289
  113MOL   H14536209   0.967   3.035   6.989 -0.2712 -0.3311  1.7864
  113MOL   C14636210   0.834   3.398   7.095  0.1412 -0.8280  0.7717
  113MOL   C14736211   0.803   3.552   7.130  0.4443  0.5363  0.0586
  113MOL   C14836212   0.704   3.313   7.115  0.2854  0.9043 -0.7148
  113MOL   C14936213   0.626   3.315   6.990 -0.3121  0.0399 -0.3881
  113MOL   C15036214   0.580   3.452   6.933 -0.0222 -0.1295 -0.2737
  113MOL   C15136215   0.598   3.202   6.925  0.3509  0.6950 -0.4849
  113MOL   H15236216   0.865   3.396   6.990  0.7070 -0.9178  0.9402
  113MOL   H15336217   0.844   3.619   7.054  0.0475  0.4317 -0.2426
  113MOL   H15436218   0.844   3.584   7.226  2.5319 -0.1077 -0.5981
  113MOL   H15536219   0.699   3.582   7.123  0.1011 -0.5163  0.6166
  113MOL   H15636220   0.735   3.208   7.124  1.8564  1.3483 -0.8494
  113MOL   H15736221   0.518   3.510   7.002  0.0868  1.2387 -1.3053
  113MOL   H15836222   0.525   3.446   6.839 -2.2616  1.2575  0.8851
  113MOL   H15936223   0.660   3.511   6.890 -1.4258 -0.2997 -3.2069
  113MOL   H16036224   0.639   3.114   6.972  0.7235  0.8681 -0.4849
  113MOL   H16136225   0.539   3.176   6.839  1.0128  2.4080 -1.4985
  113MOL   C16236226   0.614   3.331   7.240  0.6604  0.3131  0.3935
  113MOL   C16336227   0.688   3.354   7.367 -0.0700 -0.1600  0.4316
  113MOL   C16436228   0.502   3.221   7.253  0.4891  0.3094 -0.0234
  113MOL   C16536229   0.365   3.280   7.290 -0.4890  0.0847 -0.0294
  113MOL   C16636230   0.361   3.347   7.429  0.0031 -0.3995  0.2299
  113MOL   C16736231   0.270   3.290   7.200  0.3497 -0.3400  0.0550
  113MOL   H16836232   0.553   3.421   7.230  0.3112  0.2171  1.5963
  113MOL   H16936233   0.763   3.277   7.387 -0.5609 -1.1979 -1.5686
  113MOL   H17036234   0.622   3.379   7.450 -0.1985  0.5545  0.1118
  113MOL   H17136235   0.753   3.441   7.366 -1.9853  1.3094  0.4615
  113MOL   H17236236   0.482   3.194   7.149 -0.7900  3.1088 -0.5470
  113MOL   H17336237   0.428   3.433   7.424  1.0786 -1.2702 -0.9085
  113MOL   H17436238   0.390   3.277   7.507  0.9304  2.5429  2.6187
  113MOL   H17536239   0.255   3.365   7.446 -0.5774 -3.1469 -0.2030
  113MOL   H17636240   0.283   3.257   7.098  5.1615  0.5974  0.2783
  113MOL   H17736241   0.177   3.341   7.223 -0.5423 -2.8869  2.3321
  113MOL   C17836242   0.551   3.092   7.330  0.2420  0.0115  0.0047
  113MOL   C17936243   0.662   3.017   7.262  0.5826 -0.4313  0.1330
  113MOL   C18036244   0.429   2.994   7.372 -0.0403  0.5608  0.7099
  113MOL   C18136245   0.455   2.926   7.513  0.4014 -0.3917  0.5922
  113MOL   C18236246   0.385   2.982   7.637  0.6832 -0.3052  0.8172
  113MOL   C18336247   0.538   2.821   7.525 -0.2057 -0.1526  0.3207
  113MOL   H18436248   0.597   3.128   7.422  1.8333 -0.0502 -0.7635
  113MOL   H18536249   0.756   3.062   7.295 -0.0098  0.4645  0.6110
  113MOL   H18636250   0.644   3.019   7.154 -2.3833 -0.3848  0.6020
  113MOL   H18736251   0.682   2.914   7.292 -2.2154 -2.3526 -4.0578
  113MOL   H18836252   0.336   3.048   7.389 -0.7550 -0.3857 -0.1769
  113MOL   H18936253   0.331   3.076   7.622  0.3380 -0.7473 -0.9062
  113MOL   H19036254   0.459   3.022   7.706  0.0528  0.8753  0.8227
  113MOL   H19136255   0.319   2.904   7.675 -2.1398  1.4829 -0.2260
  113MOL   H19236256   0.587   2.775   7.441 -0.3075 -0.1087  0.2378
  113MOL   H19336257   0.557   2.769   7.618  0.8065 -2.6207 -1.2347
  113MOL   C19436258   0.381   2.896   7.257  0.0987  0.0972  0.0760
  113MOL   C19536259   0.348   2.952   7.119 -0.3104 -0.2268  0.7055
  113MOL   C19636260   0.271   2.789   7.299  0.2142  0.2716 -0.1902
  113MOL   C19736261   0.308   2.649   7.250  0.3836  0.0357  0.0021
  113MOL   C19836262   0.410   2.569   7.325  0.2321 -0.5047  0.0540
  113MOL   C19936263   0.271   2.610   7.126 -0.1519 -0.2250  0.4387
  113MOL   H20036264   0.472   2.843   7.230 -0.5238 -0.4168 -1.0256
  113MOL   H20136265   0.441   2.978   7.067 -0.3180 -1.5759 -0.0146
  113MOL   H20236266   0.289   3.043   7.119 -0.9923 -0.6153 -2.5390
  113MOL   H20336267   0.286   2.882   7.062 -0.5020 -0.7321  1.5229
  113MOL   H20436268   0.274   2.769   7.406 -2.7513 -1.4614 -0.3782
  113MOL   H20536269   0.404   2.462   7.305 -0.3612 -0.5576  0.4921
  113MOL   H20636270   0.401   2.586   7.433 -0.2240 -3.2839  0.4802
  113MOL   H20736271   0.515   2.592   7.308 -0.2613  1.6530 -0.2282
  113MOL   H20836272   0.202   2.668   7.067  0.3653  0.4687  0.5129
  113MOL   H20936273   0.311   2.523   7.075  0.1818 -1.2657  2.4151
  113MOL   C21036274   0.122   2.820   7.285  0.6712  0.3626 -0.1649
  113MOL   C21136275   0.091   2.954   7.357  0.0067  0.1398 -0.2658
  113MOL   C21236276   0.016   2.705   7.325  0.3430  0.6704  0.1867
  113MOL   C21336277   7.784   2.716   7.230  0.3462 -0.6465  0.2838
  113MOL   C21436278   7.766   2.607   7.131 -0.3738  0.3730  0.5437
  113MOL   C21536279   7.693   2.820   7.234  0.0331 -0.7058 -0.3516
  113MOL   H21636280   0.115   2.837   7.177 -0.6715  0.9416  0.0067
  113MOL   H21736281   7.885   2.997   7.340 -0.1588 -0.2079 -0.1921
  113MOL   H21836282   0.154   3.034   7.318  1.7692 -0.9233  0.3297
  113MOL   H21936283   0.091   2.951   7.466 -1.8593  1.1316 -0.2115
  113MOL   H22036284   0.057   2.607   7.301 -0.1471  0.6048 -0.3962
  113MOL   H22136285   7.673   2.623   7.076 -0.3550  0.6306  0.5851
  113MOL   H22236286   7.776   2.506   7.170  1.7585  0.6422  0.7478
  113MOL   H22336287   7.845   2.627   7.059 -0.3911 -0.6815  0.2340
  113MOL   H22436288   7.697   2.901   7.304  0.2762 -0.4198 -0.6954
  113MOL   H22536289   7.614   2.819   7.161 -0.9202  1.3967  0.6216
  113MOL   C22636290   7.861   2.685   7.477 -0.3954 -0.0840  0.3005
  113MOL   C22736291   0.077   2.688   7.588 -0.4152  0.5052  0.8558
  113MOL   C22836292   7.760   2.563   7.503  0.0041 -1.7190  0.4657
  113MOL   C22936293   7.665   2.607   7.620  0.2131  0.2590 -0.3215
  113MOL   C23036294   7.545   2.694   7.581 -0.6287 -0.3023  0.4110
  113MOL   C23136295   7.683   2.567   7.750 -0.5540  0.5956  0.1793
  113MOL   H23236296   7.796   2.770   7.495 -0.8092 -0.7392  1.9665
  113MOL   H23336297   0.136   2.780   7.578 -0.0742  0.1172 -1.0108
  113MOL   H23436298   0.154   2.612   7.588  2.0121  2.8834  0.7849
  113MOL   H23536299   0.029   2.701   7.685 -1.4031  0.4199  0.3871
  113MOL   H23636300   7.692   2.562   7.419  0.9008  2.8429 -0.4487
  113MOL   H23736301   7.574   2.759   7.498 -1.1046 -0.9483 -0.2590
  113MOL   H23836302   7.521   2.759   7.665 -4.1817  1.7923 -2.0762
  113MOL   H23936303   7.456   2.636   7.559 -0.9348  0.5029 -0.5083
  113MOL   H24036304   7.766   2.510   7.788 -0.8811 -2.3288 -3.2130
  113MOL   H24136305   7.608   2.603   7.819 -0.6555 -1.6812  1.2978
  113MOL   C24236306   7.812   2.418   7.520  0.4599 -0.1297  0.5642
  113MOL   C24336307   0.026   2.374   7.421  1.5702  0.3248  0.8883
  113MOL   C24436308   7.708   2.301   7.547 -0.4287 -0.0903 -0.2438
  113MOL   C24536309   7.754   2.208   7.663 -0.0587 -0.3364 -0.3155
  113MOL   C24636310   7.855   2.104   7.635 -0.1473 -0.5548 -0.4561
  113MOL   C24736311   7.692   2.217   7.784 -0.2443 -0.2400  0.5701
  113MOL   H24836312   7.864   2.429   7.615 -0.1334  3.0311  0.5910
  113MOL   H24936313   0.056   2.273   7.447  4.6704  1.5344  2.2338
  113MOL   H25036314   0.118   2.433   7.432  1.5708  0.9657 -2.0923
  113MOL   H25136315   7.889   2.380   7.316  0.5296 -2.8793  0.9452
  113MOL   H25236316   7.623   2.356   7.588  0.2701  1.0004 -0.2535
  113MOL   H25336317   7.828   2.019   7.573  1.7470 -0.2467 -1.7381
  113MOL   H25436318   7.868   2.051   7.730 -0.8350 -2.5000 -1.4271
  113MOL   H25536319   0.061   2.139   7.604 -0.1298  1.8960  2.1516
  113MOL   H25636320   7.614   2.289   7.805  0.8704  0.4401  2.4746
  113MOL   H25736321   7.709   2.144   7.862  0.3695 -0.6508  0.0623
  113MOL   C25836322   7.646   2.220   7.425 -0.7973 -0.5068 -0.1659
  113MOL   C25936323   7.605   2.302   7.301 -0.3571 -0.0046 -0.2720
  113MOL   C26036324   7.527   2.116   7.462 -0.1573  0.5161  0.0666
  113MOL   C26136325   7.543   1.987   7.394  1.0271 -0.2765 -0.3539
  113MOL   C26236326   7.513   1.973   7.250 -0.1886  0.2480  0.4146
  113MOL   C26336327   7.602   1.883   7.454  0.2381 -0.3908 -0.1285
  113MOL   H26436328   7.735   2.164   7.397  0.0086 -0.3580  1.9997
  113MOL   H26536329   7.684   2.361   7.254 -0.1247 -0.4461 -0.4291
  113MOL   H26636330   7.542   2.389   7.323 -1.6357 -1.1889  0.8898
  113MOL   H26736331   7.553   2.237   7.231 -3.7857  1.5274  0.7191
  113MOL   H26836332   7.549   2.084   7.564 -2.4923 -0.2313  0.3698
  113MOL   H26936333   7.418   2.020   7.222 -0.5913 -0.8331 -0.0236
  113MOL   H27036334   7.504   1.866   7.231 -0.4415  0.1736  0.9379
  113MOL   H27136335   7.594   2.012   7.189  2.1622  1.7017  4.2488
  113MOL   H27236336   7.625   1.881   7.559 -0.6135 -0.8560  0.0532
  113MOL   H27336337   7.617   1.792   7.398 -1.9483 -1.5851  1.1741
  113MOL   C27436338   7.383   2.164   7.476  0.3526  0.2385  0.6439
  113MOL   C27536339   7.353   2.300   7.540 -0.3910 -0.8935  0.2956
  113MOL   C27636340   7.273   2.055   7.525  0.8919  0.4678 -0.0225
  113MOL   C27736341   7.164   2.054   7.417 -0.3162 -0.1327  0.2908
  113MOL   C27836342   7.064   2.169   7.418 -0.3659  0.5804  0.8122
  113MOL   C27936343   7.154   1.963   7.321  0.3317  0.0317 -0.4157
  113MOL   H28036344   7.346   2.179   7.375  1.6362 -0.2489  0.1021
  113MOL   H28136345   7.402   2.303   7.637  1.1903 -1.4535 -0.4699
  113MOL   H28236346   7.247   2.317   7.556 -0.3923 -0.9490  0.3459
  113MOL   H28336347   7.380   2.381   7.472 -1.7685 -0.6086  0.0663
  113MOL   H28436348   7.319   1.957   7.510 -0.0427 -0.0631  0.5268
  113MOL   H28536349   7.038   2.186   7.522 -0.4904 -0.3574  0.9361
  113MOL   H28636350   6.987   2.147   7.345 -0.5270  2.7924  0.3002
  113MOL   H28736351   7.117   2.254   7.374  0.2639  0.0709  0.5673
  113MOL   H28836352   7.226   1.883   7.309 -1.1370 -1.4434  0.3631
  113MOL   H28936353   7.071   1.964   7.252 -1.5217  0.6007  1.7903
  113MOL   C29036354   7.233   2.054   7.682 -0.2512  0.0636 -0.3235
  113MOL   C29136355   7.362   2.037   7.765 -0.0876 -0.0879 -0.0196
  113MOL   C29236356   7.125   1.948   7.718 -0.3041  0.2265  0.7958
  113MOL   C29336357   7.009   2.008   7.801 -0.3248  0.5303  0.3085
  113MOL   C29436358   6.876   2.011   7.731  0.7215  0.5002 -0.5084
  113MOL   C29536359   7.026   2.069   0.029  0.4691  0.5684 -0.1190
  113MOL   H29636360   7.197   2.155   7.703  2.4038  1.2421 -1.2408
  113MOL   H29736361   7.392   1.933   7.765 -1.4303 -0.4967  1.4986
  113MOL   H29836362   7.351   2.055   7.872  0.1303  1.7602 -0.2811
  113MOL   H29936363   7.451   2.095   7.738 -0.5033  0.7419  0.3623
  113MOL   H30036364   7.079   1.938   7.619  1.5091  1.5472 -0.2077
  113MOL   H30136365   6.859   1.928   7.661 -0.0596 -0.5480  0.9022
  113MOL   H30236366   6.876   2.102   7.670  2.8436  1.2665  0.6103
  113MOL   H30336367   6.789   2.020   7.797  0.3328  0.7269 -1.0441
  113MOL   H30436368   7.127   2.073   0.068  0.2172 -0.4954  0.6527
  113MOL   H30536369   6.937   2.115   0.069 -0.5285  1.2656 -3.0523
  113MOL   C30636370   7.166   1.806   7.761  0.0059  0.2201 -1.0104
  113MOL   C30736371   7.107   1.701   7.664  0.0950 -0.6489 -0.1538
  113MOL   C30836372   7.124   1.753   0.011 -0.4179 -0.0241  0.0107
  113MOL   C30936373   7.205   1.796   0.127 -0.1018 -0.5753 -0.4243
  113MOL   C31036374   7.346   1.751   0.126 -0.5338 -0.0427 -0.2910
  113MOL   C31136375   7.152   1.868   0.229 -0.0308 -0.0233  0.4067
  113MOL   H31236376   7.273   1.788   7.759  0.3023  1.1971  2.4834
  113MOL   H31336377   7.117   1.721   7.558 -1.9608  0.7670 -0.1149
  113MOL   H31436378   7.000   1.688   7.682 -0.0766  2.4698  1.3968
  113MOL   H31536379   7.158   1.606   7.680 -0.0885 -0.6126  0.6969
  113MOL   H31636380   7.018   1.775   0.021 -0.1613  0.3945  1.9318
  113MOL   H31736381   7.353   1.642   0.134 -1.8444 -0.0160  1.6728
  113MOL   H31836382   7.405   1.788   0.210 -0.6791  1.2911 -0.7772
  113MOL   H31936383   7.393   1.769   0.030 -1.6817 -0.0471 -0.8706
  113MOL   H32036384   7.049   1.902   0.235  0.5452  1.7917  0.5807
  113MOL   H32136385   7.218   1.905   0.307  0.4941 -1.5154  0.6727
  113MOL   H32236386   7.139   1.645   0.018  2.3396  0.3210 -0.0701
  114MOL     C136387   2.471   3.037   5.803 -0.4570 -0.8237  1.0969
  114MOL     C236388   2.367   3.043   5.693 -1.1855  0.0941  0.0167
  114MOL     C336389   2.450   2.935   5.921 -0.3313 -0.6120  0.1058
  114MOL     C436390   2.557   2.941   6.028 -0.5668  0.2680 -0.4860
  114MOL     C536391   2.519   2.899   6.166  0.0590 -0.8582  0.5945
  114MOL     C636392   2.687   2.967   6.007 -0.2916 -0.8885  0.3389
  114MOL     H736393   2.561   3.022   5.743 -1.3607  2.2179 -1.1379
  114MOL     H836394   2.368   2.946   5.643 -1.8993  0.2178 -0.2458
  114MOL     H936395   2.381   3.124   5.621  0.4679 -0.8076 -0.7060
  114MOL    H1036396   2.261   3.035   5.716 -1.1199  0.7544  0.5776
  114MOL    H1136397   2.360   2.970   5.973  0.8175  0.8561  1.1578
  114MOL    H1236398   2.576   2.937   6.251  1.1832 -1.0210 -0.0663
  114MOL    H1336399   2.504   2.792   6.177 -0.4635 -0.6690  1.7382
  114MOL    H1436400   2.420   2.941   6.183 -1.0377 -2.4867 -1.4617
  114MOL    H1536401   2.722   2.999   5.911 -2.1451 -2.0281 -0.7439
  114MOL    H1636402   2.746   2.950   6.096 -0.8091  1.4628  1.1702
  114MOL    H1736403   2.492   3.136   5.843  3.4474 -0.9164 -0.4217
  114MOL    C1836404   2.413   2.790   5.881  0.2299 -0.2782 -0.3338
  114MOL    C1936405   2.517   2.734   5.782  0.3230  0.5435  0.1601
  114MOL    C2036406   2.264   2.762   5.843 -0.5315  0.0594  0.6010
  114MOL    C2136407   2.157   2.823   5.934 -0.3671  0.6753 -0.5344
  114MOL    C2236408   2.150   2.773   6.075 -1.0020  0.7349 -0.3652
  114MOL    C2336409   2.064   2.909   5.889 -0.0353 -0.0095 -0.1813
  114MOL    H2436410   2.425   2.739   5.976  2.7131  0.7952 -0.0192
  114MOL    H2536411   2.619   2.752   5.818  0.3097  0.2030  0.3661
  114MOL    H2636412   2.530   2.782   5.685 -0.4436 -1.4746 -0.9695
  114MOL    H2736413   2.508   2.626   5.772 -3.0109  0.4924  2.9015
  114MOL    H2836414   2.244   2.814   5.750 -1.5444 -1.3969 -0.0247
  114MOL    H2936415   2.071   2.700   6.092 -2.2137  2.0143 -0.3794
  114MOL    H3036416   2.136   2.853   6.148  1.5361  0.4214  0.5067
  114MOL    H3136417   2.246   2.738   6.114 -1.8326 -1.5636 -0.3266
  114MOL    H3236418   2.049   2.937   5.786 -2.5506  0.1035  0.1978
  114MOL    H3336419   1.996   2.951   5.961  0.0337 -1.7894  0.9527
  114MOL    C3436420   2.230   2.619   5.801  0.3282  0.1934  1.4732
  114MOL    C3536421   2.265   2.515   5.902  0.2409  0.4698 -0.4403
  114MOL    C3636422   2.257   2.591   5.645  0.6362 -0.0254 -0.1493
  114MOL    C3736423   2.137   2.648   5.558 -0.2885  0.2419 -0.4719
  114MOL    C3836424   1.997   2.590   5.587  0.0511  0.0665  1.0009
  114MOL    C3936425   2.148   2.754   5.471 -0.0921 -0.2324 -0.2119
  114MOL    H4036426   2.122   2.607   5.802  0.2918  0.5888  2.1693
  114MOL    H4136427   2.208   2.533   5.993  1.9186  1.9702  0.3382
  114MOL    H4236428   2.368   2.514   5.937  0.6909  0.3307 -1.7558
  114MOL    H4336429   2.235   2.414   5.873  1.1296 -0.4004  1.6119
  114MOL    H4436430   2.348   2.646   5.620  0.3701  0.5770  0.1995
  114MOL    H4536431   1.998   2.482   5.577  1.0138 -0.0099  1.8414
  114MOL    H4636432   1.940   2.630   5.503  3.0878 -2.6143 -2.5042
  114MOL    H4736433   1.947   2.635   5.673 -3.3804  1.6934 -1.6907
  114MOL    H4836434   2.241   2.806   5.453 -0.1411  0.3362  1.1172
  114MOL    H4936435   2.070   2.800   5.411 -0.3715  1.7140  1.5701
  114MOL    C5036436   2.285   2.437   5.596 -0.4056  0.3053  0.1511
  114MOL    C5136437   2.415   2.378   5.655 -0.4892  0.8407  0.2735
  114MOL    C5236438   2.283   2.409   5.441 -0.3737 -0.3350  0.1494
  114MOL    C5336439   2.236   2.270   5.411 -0.1826  0.4147 -0.4851
  114MOL    C5436440   2.087   2.260   5.379  0.0608  0.1970 -0.4765
  114MOL    C5536441   2.318   2.160   5.402  0.7266  0.2975  0.7793
  114MOL    H5636442   2.210   2.374   5.643  0.9425  0.0675  2.0600
  114MOL    H5736443   2.419   2.272   5.630 -3.0838  0.8871 -0.4620
  114MOL    H5836444   2.413   2.384   5.764 -0.9578 -0.8164  0.3765
  114MOL    H5936445   2.506   2.428   5.621  1.7861 -2.5788  1.0170
  114MOL    H6036446   2.204   2.473   5.401 -0.9980 -1.9013 -1.1627
  114MOL    H6136447   2.026   2.328   5.439 -1.7966 -2.1440  0.4160
  114MOL    H6236448   2.060   2.157   5.402 -0.2203 -0.0158 -1.7304
  114MOL    H6336449   2.076   2.281   5.273  0.9417 -0.0242 -0.6128
  114MOL    H6436450   2.422   2.172   5.427  0.6587  3.1273 -0.0690
  114MOL    H6536451   2.291   2.058   5.383 -1.3393  1.1723 -1.2239
  114MOL    C6636452   2.413   2.459   5.354 -0.4185  0.0692  0.2980
  114MOL    C6736453   2.473   2.606   5.383  0.2439 -0.0008 -0.1740
  114MOL    C6836454   2.418   2.419   5.200 -0.0423  0.6141  0.5744
  114MOL    C6936455   2.554   2.360   5.166 -0.1706 -1.1899 -0.0496
  114MOL    C7036456   2.666   2.456   5.169 -0.3163  0.6286 -0.3391
  114MOL    C7136457   2.574   2.227   5.143  0.1696  0.8108  0.0193
  114MOL    H7236458   2.487   2.402   5.410  0.6947  0.3056 -0.9006
  114MOL    H7336459   2.561   2.633   5.324  0.4235  0.8776  0.4801
  114MOL    H7436460   2.505   2.620   5.486  0.5601 -1.6151 -0.0456
  114MOL    H7536461   2.404   2.687   5.360 -2.0762 -2.0393 -0.5728
  114MOL    H7636462   2.349   2.338   5.176  0.9628 -0.3700  0.9917
  114MOL    H7736463   2.755   2.418   5.118  0.8674  1.3510  1.1574
  114MOL    H7836464   2.694   2.463   5.274  0.0951  1.6196 -0.5067
  114MOL    H7936465   2.652   2.557   5.130 -1.1590  0.6851  0.1128
  114MOL    H8036466   2.489   2.160   5.140  1.5874 -1.1817  2.3499
  114MOL    H8136467   2.668   2.179   5.120 -0.6781 -0.2952 -1.2224
  114MOL    C8236468   2.375   2.534   5.101 -0.5623 -0.2989 -0.5190
  114MOL    C8336469   2.224   2.584   5.118 -0.6343  0.1496  0.0617
  114MOL    C8436470   2.415   2.524   4.942  0.0971 -0.3532 -0.1007
  114MOL    C8536471   2.472   2.658   4.889  0.1014 -0.7298  0.5124
  114MOL    C8636472   2.380   2.780   4.887  0.0464 -0.1579  0.2533
  114MOL    C8736473   2.598   2.676   4.840 -0.8203 -0.6267  0.3313
  114MOL    H8836474   2.435   2.621   5.129  0.4635 -1.6641  1.6159
  114MOL    H8936475   2.188   2.647   5.036 -1.5142  1.2887  1.3195
  114MOL    H9036476   2.208   2.638   5.211  3.5129 -0.8223  1.4724
  114MOL    H9136477   2.158   2.497   5.120 -0.5259  0.0752  0.3589
  114MOL    H9236478   2.504   2.462   4.935  1.2459  1.3947 -1.6408
  114MOL    H9336479   2.361   2.814   4.989  0.0980 -0.6757  0.4376
  114MOL    H9436480   2.289   2.762   4.830  0.6955  1.1062 -1.2089
  114MOL    H9536481   2.415   2.863   4.826  0.5704 -0.3311  0.3142
  114MOL    H9636482   2.680   2.605   4.837  0.0308  0.3948 -2.0575
  114MOL    H9736483   2.630   2.771   4.800  2.2093 -2.4879 -1.9301
  114MOL    C9836484   2.321   2.443   4.845 -0.5967  0.5656 -0.1668
  114MOL    C9936485   2.278   2.298   4.900  0.0274 -0.1252 -0.1572
  114MOL   C10036486   2.363   2.422   4.692 -0.5478  0.5505  0.2302
  114MOL   C10136487   2.514   2.381   4.682  1.0204 -0.4670 -0.7415
  114MOL   C10236488   2.555   2.247   4.727  0.6055  0.2863 -0.4811
  114MOL   C10336489   2.609   2.462   4.636  0.5155  0.5287  0.5981
  114MOL   H10436490   2.221   2.487   4.849 -0.8334 -0.0950  1.9670
  114MOL   H10536491   2.352   2.242   4.957 -0.4766  0.6530  1.2847
  114MOL   H10636492   2.223   2.232   4.833 -1.4055 -0.2741  1.1389
  114MOL   H10736493   2.203   2.308   4.979  0.6100 -0.9377  0.4989
  114MOL   H10836494   2.316   2.332   4.652  0.8109  1.1390 -2.8177
  114MOL   H10936495   2.555   2.232   4.835 -3.7658 -0.1068 -0.4118
  114MOL   H11036496   2.654   2.227   4.688  1.3485 -0.5350  1.7666
  114MOL   H11136497   2.490   2.166   4.691  2.5530 -1.1735 -0.8023
  114MOL   H11236498   2.597   2.561   4.594 -1.6895 -0.7902 -2.0150
  114MOL   H11336499   2.714   2.434   4.637  0.8613  1.8069  0.3007
  114MOL   C11436500   2.312   2.539   4.597  0.1700 -0.4376  0.3120
  114MOL   C11536501   2.163   2.578   4.609  0.0578  0.4181 -0.4724
  114MOL   C11636502   2.366   2.529   4.449  0.0406  0.6491 -0.3817
  114MOL   C11736503   2.436   2.661   4.407 -0.0562  0.1012  0.2742
  114MOL   C11836504   2.342   2.774   4.404 -0.1169  0.4351  0.2243
  114MOL   C11936505   2.564   2.669   4.366  0.3750  0.1422  0.0276
  114MOL   H12036506   2.359   2.628   4.639 -0.4145  0.6081 -1.2124
  114MOL   H12136507   2.142   2.659   4.540  0.1139  0.4790 -0.4180
  114MOL   H12236508   2.143   2.630   4.703  1.1066  1.4460 -0.7936
  114MOL   H12336509   2.090   2.498   4.600  1.0847 -0.6608  0.4399
  114MOL   H12436510   2.452   2.462   4.456 -0.6315 -0.2698 -0.9419
  114MOL   H12536511   2.249   2.737   4.362  0.9568  0.4765 -2.2733
  114MOL   H12636512   2.386   2.856   4.346 -2.2831  1.2287 -0.3393
  114MOL   H12736513   2.315   2.816   4.501  1.6155  1.9490  0.0948
  114MOL   H12836514   2.612   2.572   4.373  0.8575  0.2555 -1.5481
  114MOL   H12936515   2.605   2.760   4.326 -1.2754  0.7880 -0.2481
  114MOL   C13036516   2.272   2.462   4.342 -0.8597 -0.2804  0.7696
  114MOL   C13136517   2.230   2.319   4.392  0.2100 -0.5757  0.1216
  114MOL   C13236518   2.335   2.476   4.191  0.2365  0.3544  0.0126
  114MOL   C13336519   2.261   2.592   4.120 -0.0892 -0.0792 -0.0944
  114MOL   C13436520   2.354   2.683   4.038 -0.0222 -0.1448  0.3221
  114MOL   C13536521   2.124   2.594   4.109 -0.4831 -0.7077 -0.3597
  114MOL   H13636522   2.182   2.522   4.357  0.4737  1.4653  2.0767
  114MOL   H13736523   2.175   2.253   4.324 -0.6568  0.3397 -0.0815
  114MOL   H13836524   2.178   2.326   4.488  3.3546  0.8407  1.7663
  114MOL   H13936525   2.319   2.263   4.419 -0.5435 -1.2267  1.2909
  114MOL   H14036526   2.437   2.508   4.212  0.1355  2.3107 -2.2487
  114MOL   H14136527   2.408   2.632   3.958 -0.7959  0.6542 -0.7302
  114MOL   H14236528   2.433   2.730   4.097 -0.6437  0.3018  0.8096
  114MOL   H14336529   2.299   2.769   3.999 -1.3702 -1.4853 -0.7980
  114MOL   H14436530   2.065   2.520   4.161  0.7878 -2.0599 -0.8141
  114MOL   H14536531   2.066   2.669   4.057  0.7141  1.0150  0.7544
  114MOL   C14636532   2.352   2.342   4.106 -0.4969 -0.0713 -0.1604
  114MOL   C14736533   2.214   2.285   4.060  0.3204  0.1564  0.7631
  114MOL   C14836534   2.455   2.239   4.157  0.2767  0.0806  0.3174
  114MOL   C14936535   2.589   2.305   4.192 -0.1366 -0.0697 -0.0704
  114MOL   C15036536   2.661   2.388   4.086  0.0471 -0.5563 -0.6041
  114MOL   C15136537   2.651   2.287   4.314  0.4839 -0.3470  0.2919
  114MOL   H15236538   2.401   2.385   4.019  1.5509 -2.5539 -0.2563
  114MOL   H15336539   2.143   2.303   4.141 -1.4474  0.6656 -0.8581
  114MOL   H15436540   2.205   2.177   4.046 -0.5641  0.5164 -1.6671
  114MOL   H15536541   2.173   2.346   3.979 -0.0899 -2.1005 -0.7626
  114MOL   H15636542   2.414   2.199   4.250  2.3590 -1.7777  0.4789
  114MOL   H15736543   2.765   2.390   4.117  0.5255 -1.2168 -2.1126
  114MOL   H15836544   2.615   2.486   4.074 -0.3578 -0.7816 -0.8952
  114MOL   H15936545   2.650   2.344   3.987  0.7244  1.6243 -1.6630
  114MOL   H16036546   2.613   2.228   4.396 -1.8989 -0.8436 -1.1428
  114MOL   H16136547   2.744   2.331   4.349  0.9354 -1.3637  0.3822
  114MOL   C16236548   2.477   2.107   4.076  0.0405  0.3319  1.1467
  114MOL   C16336549   2.453   2.127   3.924  0.6370  0.7509 -0.1195
  114MOL   C16436550   2.409   1.971   4.128  0.2314  0.1356 -0.1872
  114MOL   C16536551   2.440   1.940   4.277 -0.2308 -0.2793  0.6689
  114MOL   C16636552   2.582   1.895   4.308  0.6746 -0.0588 -0.2008
  114MOL   C16736553   2.345   1.967   4.369  0.4207 -0.7115 -0.3292
  114MOL   H16836554   2.582   2.078   4.080 -0.5588 -1.9582  1.0830
  114MOL   H16936555   2.504   2.062   3.853 -1.3511  0.9248 -1.7856
  114MOL   H17036556   2.475   2.229   3.892 -2.3644  0.9377 -1.8522
  114MOL   H17136557   2.348   2.117   3.896  0.6131  1.4206 -0.3014
  114MOL   H17236558   2.303   1.992   4.134  0.4212  1.3956 -1.0651
  114MOL   H17336559   2.645   1.977   4.272  0.0949  0.3416 -0.3141
  114MOL   H17436560   2.612   1.801   4.263  1.9128  0.1789  0.1276
  114MOL   H17536561   2.593   1.898   4.417  1.7233  2.1378 -0.3481
  114MOL   H17636562   2.251   2.008   4.333  0.0666 -1.5015 -0.3120
  114MOL   H17736563   2.366   1.952   4.474  4.1797  0.4268 -0.8515
  114MOL   C17836564   2.434   1.843   4.036 -0.7589 -0.6487  0.0999
  114MOL   C17936565   2.581   1.824   3.983 -0.4940  0.0327 -0.6037
  114MOL   C18036566   2.314   1.805   3.933  0.0785 -0.3941  0.3037
  114MOL   C18136567   2.178   1.820   3.996 -0.0879 -0.6780  0.2027
  114MOL   C18236568   2.155   1.758   4.135 -0.0309  0.8636  0.5840
  114MOL   C18336569   2.080   1.893   3.943 -0.0182  0.3828  0.5970
  114MOL   H18436570   2.423   1.768   4.115  0.8132 -0.7384  0.2433
  114MOL   H18536571   2.598   1.898   3.905  1.3288 -0.1418 -0.3899
  114MOL   H18636572   2.597   1.725   3.940  0.6456 -0.4416  0.9147
  114MOL   H18736573   2.669   1.833   4.045 -0.8072  0.6996 -0.2534
  114MOL   H18836574   2.301   1.882   3.857  2.5339 -0.2804 -0.0583
  114MOL   H18936575   2.152   1.832   4.215 -1.1476  2.0869 -0.5451
  114MOL   H19036576   2.217   1.677   4.173 -1.0448  0.2005  0.8590
  114MOL   H19136577   2.056   1.712   4.141 -0.6442  2.0778  0.0756
  114MOL   H19236578   2.087   1.940   3.846  0.5751 -2.6319 -0.8857
  114MOL   H19336579   1.985   1.893   3.995 -0.9948 -0.5940 -1.1392
  114MOL   C19436580   2.320   1.676   3.847  0.4659 -0.6225  0.2533
  114MOL   C19536581   2.350   1.548   3.932  0.2248 -0.3097 -0.4552
  114MOL   C19636582   2.403   1.685   3.712 -0.7372 -0.3385  0.4304
  114MOL   C19736583   2.352   1.802   3.627 -0.1967  0.8233  0.7412
  114MOL   C19836584   2.204   1.809   3.606  0.4574 -0.3281  0.1547
  114MOL   C19936585   2.433   1.904   3.589  0.4545  0.4088 -0.4374
  114MOL   H20036586   2.219   1.660   3.810  0.9067  1.5708 -2.0214
  114MOL   H20136587   2.450   1.528   3.971 -0.2511 -0.0015  0.9579
  114MOL   H20236588   2.320   1.458   3.879 -1.6384  1.4119 -2.4475
  114MOL   H20336589   2.301   1.552   4.029  0.7748  1.2007 -0.2203
  114MOL   H20436590   2.495   1.730   3.746 -0.5097  0.1667 -0.8339
  114MOL   H20536591   2.168   1.740   3.529 -0.4522  0.0794  0.2060
  114MOL   H20636592   2.186   1.911   3.572 -1.7491 -0.9329 -0.5857
  114MOL   H20736593   2.139   1.796   3.692 -0.3066  1.3505 -0.1495
  114MOL   H20836594   2.541   1.904   3.595  0.3905  1.3590  0.9256
  114MOL   H20936595   2.399   1.990   3.533 -1.0089  0.6555  0.7946
  114MOL   C21036596   2.435   1.554   3.630 -0.3994  0.0427  0.8992
  114MOL   C21136597   2.311   1.468   3.601 -0.5641 -0.7212  0.8553
  114MOL   C21236598   2.561   1.471   3.677 -0.2437 -0.2055 -0.8516
  114MOL   C21336599   2.683   1.554   3.705 -0.2268  0.2579 -0.6039
  114MOL   C21436600   2.753   1.527   3.829 -0.0298  0.4881  0.0890
  114MOL   C21536601   2.718   1.660   3.629  0.8983  0.4433  0.5767
  114MOL   H21636602   2.465   1.596   3.535  0.0572 -0.5676  0.7681
  114MOL   H21736603   2.322   1.391   3.524  1.5331 -0.1503  0.5587
  114MOL   H21836604   2.248   1.541   3.549  0.8797 -1.5841 -2.2405
  114MOL   H21936605   2.250   1.430   3.683 -0.1110 -1.3820  0.8913
  114MOL   H22036606   2.532   1.433   3.775  1.5195  1.0454  0.1959
  114MOL   H22136607   2.680   1.511   3.908  0.3277  1.5344  0.6358
  114MOL   H22236608   2.816   1.609   3.862  1.6871 -1.1389  0.9822
  114MOL   H22336609   2.807   1.435   3.808 -2.3525 -1.2366  1.4430
  114MOL   H22436610   2.670   1.693   3.538  0.3352  0.5329  0.9000
  114MOL   H22536611   2.804   1.716   3.661  2.4019 -0.5441 -1.6633
  114MOL   C22636612   2.612   1.358   3.577 -0.3991  0.2508  0.0288
  114MOL   C22736613   2.610   1.412   3.430  0.0738 -0.3783  0.0783
  114MOL   C22836614   2.546   1.217   3.593 -0.9171 -0.1582  0.5160
  114MOL   C22936615   2.547   1.166   3.741 -0.1369  0.0371  0.3347
  114MOL   C23036616   2.424   1.086   3.779  0.3523 -0.7379  0.1514
  114MOL   C23136617   2.640   1.181   3.833 -0.7048 -0.1156  0.2420
  114MOL   H23236618   2.718   1.352   3.599  0.0948 -0.5207 -2.4118
  114MOL   H23336619   2.653   1.513   3.431  0.0134 -0.3415 -0.8582
  114MOL   H23436620   2.518   1.428   3.375  0.7333 -1.1633 -1.2853
  114MOL   H23536621   2.685   1.366   3.365 -0.6625 -0.2852 -0.8433
  114MOL   H23636622   2.442   1.246   3.578 -1.1345  0.4730  3.1218
  114MOL   H23736623   2.435   0.996   3.719  2.2851  0.7411 -1.8324
  114MOL   H23836624   2.334   1.137   3.746  0.7709  0.8816  1.4466
  114MOL   H23936625   2.420   1.059   3.884 -0.7158  0.2941  0.3858
  114MOL   H24036626   2.727   1.241   3.814  0.0529 -0.5409  2.2329
  114MOL   H24136627   2.642   1.140   3.933  0.2936 -0.1308  0.2158
  114MOL   C24236628   2.602   1.102   3.501  0.6731  0.1673 -0.7563
  114MOL   C24336629   2.760   1.102   3.504  0.2862  0.4260 -0.0188
  114MOL   C24436630   2.538   1.085   3.358  0.3035  0.6043 -0.1203
  114MOL   C24536631   2.384   1.092   3.369 -0.3626  0.7211  0.2968
  114MOL   C24636632   2.307   0.971   3.424 -0.3810  0.2934 -0.0145
  114MOL   C24736633   2.316   1.187   3.301 -0.3228  0.0734 -0.0119
  114MOL   H24836634   2.574   1.008   3.548 -0.7967 -0.0233 -1.9628
  114MOL   H24936635   2.802   1.105   3.605  1.8157 -0.2259 -0.6300
  114MOL   H25036636   2.801   1.183   3.444 -3.4405  0.8671 -2.1403
  114MOL   H25136637   2.801   1.011   3.461  1.5708  0.8873  0.2216
  114MOL   H25236638   2.579   1.177   3.315  0.3237  0.5349 -0.2514
  114MOL   H25336639   2.316   0.884   3.358  1.5357  0.1417  0.4044
  114MOL   H25436640   2.205   1.007   3.438 -0.3418  0.5460 -0.3558
  114MOL   H25536641   2.358   0.944   3.516  0.2167 -3.0301 -1.2464
  114MOL   H25636642   2.374   1.271   3.266  0.0083 -0.2006 -0.1242
  114MOL   H25736643   2.209   1.189   3.285 -0.1522 -0.0169 -1.1667
  114MOL   C25836644   2.586   0.968   3.262 -0.5143  0.0896  0.0157
  114MOL   C25936645   2.592   0.832   3.338 -0.3552  0.6222  0.2714
  114MOL   C26036646   2.698   1.011   3.169  0.1464  0.6071  0.2360
  114MOL   C26136647   2.674   1.149   3.105 -0.2615 -0.5161  0.2257
  114MOL   C26236648   2.799   1.233   3.105  1.0398 -0.2840 -0.3024
  114MOL   C26336649   2.553   1.196   3.064  0.2867  0.0537  0.1090
  114MOL   H26436650   2.507   0.952   3.188  0.7080 -0.5047 -1.1704
  114MOL   H26536651   2.564   0.741   3.285 -2.1039  1.4803 -0.3298
  114MOL   H26636652   2.529   0.836   3.426  0.3587  0.8672  0.7738
  114MOL   H26736653   2.689   0.815   3.385 -1.3431 -0.9463  1.7809
  114MOL   H26836654   2.785   1.023   3.232  0.5689  3.7934 -0.8870
  114MOL   H26936655   2.878   1.186   3.047  0.5104 -0.2517 -1.0630
  114MOL   H27036656   2.836   1.255   3.204  1.2370  0.9318 -0.6340
  114MOL   H27136657   2.783   1.328   3.054 -0.1956 -1.2705 -1.8162
  114MOL   H27236658   2.469   1.128   3.075 -0.7608  1.4828  1.2038
  114MOL   H27336659   2.532   1.295   3.027 -1.7672 -0.6576 -0.6920
  114MOL   C27436660   2.736   0.900   3.055  1.5027  0.2325  0.0635
  114MOL   C27536661   2.606   0.848   2.989  0.1778 -0.1077  0.2900
  114MOL   C27636662   2.844   0.791   3.102  0.0982 -0.4109  0.0711
  114MOL   C27736663   2.979   0.850   3.163  0.0668  0.1281 -0.1422
  114MOL   C27836664   3.024   0.778   3.287  0.5654  0.1796  0.1037
  114MOL   C27936665   3.048   0.954   3.119  0.2406 -0.2726  0.6834
  114MOL   H28036666   2.773   0.960   2.971  1.9438  0.8202  0.6793
  114MOL   H28136667   2.556   0.784   3.062  0.2798 -1.0488 -0.4693
  114MOL   H28236668   2.627   0.798   2.895 -0.6308  0.5788 -0.2651
  114MOL   H28336669   2.543   0.935   2.970  1.6008  0.7024 -0.8248
  114MOL   H28436670   2.805   0.740   3.190  1.8906 -0.9398  0.5899
  114MOL   H28536671   3.126   0.809   3.310  0.3384  0.4297  0.7911
  114MOL   H28636672   3.037   0.672   3.267 -0.4491  0.2000 -0.7335
  114MOL   H28736673   2.962   0.802   3.374  3.3365  1.1230  1.8805
  114MOL   H28836674   3.017   0.997   3.025 -0.0265 -1.6916  0.1088
  114MOL   H28936675   3.133   1.000   3.167  1.1669 -1.3127  0.0667
  114MOL   C29036676   2.877   0.667   2.999 -0.5066 -0.5893 -0.1133
  114MOL   C29136677   2.940   0.717   2.866  0.4078  0.6048  0.0461
  114MOL   C29236678   2.763   0.559   2.974 -0.4615  0.7654 -0.2413
  114MOL   C29336679   2.690   0.516   3.095  0.0080 -0.1473 -0.6251
  114MOL   C29436680   2.771   0.451   3.218 -0.1831 -0.6660  0.4961
  114MOL   C29536681   2.559   0.533   3.107 -0.0574  0.1617 -0.0255
  114MOL   H29636682   2.955   0.611   3.050 -1.2015 -0.9191  0.5949
  114MOL   H29736683   2.996   0.643   2.808 -1.6463  0.3841 -1.7525
  114MOL   H29836684   3.024   0.783   2.886  0.6236  0.8410 -1.5149
  114MOL   H29936685   2.872   0.780   2.809  1.8217  1.2586 -0.9440
  114MOL   H30036686   2.694   0.599   2.900 -1.5231  1.6819  1.2148
  114MOL   H30136687   2.762   0.343   3.216 -1.8567 -0.5212 -1.7230
  114MOL   H30236688   2.721   0.476   3.312  0.7717  0.1481  0.8034
  114MOL   H30336689   2.874   0.484   3.234 -1.1462  1.7828  1.9287
  114MOL   H30436690   2.503   0.575   3.025  0.7005 -1.8987 -1.6105
  114MOL   H30536691   2.507   0.514   3.200  0.9928 -0.2400  0.4892
  114MOL   C30636692   2.799   0.425   2.904 -0.1409  0.5024  0.1228
  114MOL   C30736693   2.688   0.321   2.884  0.0335  0.1870  0.0579
  114MOL   C30836694   2.931   0.363   2.963 -0.0934 -0.0042 -0.0362
  114MOL   C30936695   2.980   0.248   2.877  0.5940  0.6310  0.1605
  114MOL   C31036696   3.019   0.290   2.740  0.7771  0.6746  0.3332
  114MOL   C31136697   2.983   0.120   2.917  0.5724  0.7134 -0.1529
  114MOL   H31236698   2.815   0.457   2.801  0.8800  0.1263  0.1675
  114MOL   H31336699   2.713   0.227   2.835 -1.3610 -0.3905  0.4235
  114MOL   H31436700   2.601   0.353   2.826 -1.7113 -3.0470  0.7582
  114MOL   H31536701   2.637   0.283   2.973 -0.7559  2.5539  0.6630
  114MOL   H31636702   3.010   0.436   2.979  0.4167 -0.3811 -0.7869
  114MOL   H31736703   2.931   0.296   2.676  0.6306  0.8261  0.5491
  114MOL   H31836704   3.087   0.220   2.690 -0.8511 -0.3408 -0.4866
  114MOL   H31936705   3.073   0.385   2.747 -1.4190  1.9014  0.7958
  114MOL   H32036706   2.960   0.085   3.017  4.0729 -1.5518 -0.0818
  114MOL   H32136707   3.018   0.043   2.850 -0.9276 -0.4651  0.3994
  114MOL   H32236708   2.902   0.326   3.061  1.2493  1.1458  0.8170
  115MOL     C136709   5.992   1.941   4.384 -0.4000  0.4894  0.0014
  115MOL     C236710   6.114   2.040   4.410 -0.1907 -0.0429  0.1509
  115MOL     C336711   6.005   1.847   4.257 -0.6496  0.1624 -0.1359
  115MOL     C436712   5.873   1.781   4.226 -0.0910  0.6273 -0.3202
  115MOL     C536713   5.823   1.664   4.315 -0.6871  0.4618  0.2606
  115MOL     C636714   5.804   1.817   4.118  0.2307  0.0544  0.2476
  115MOL     H736715   5.968   1.872   4.465  0.6655 -1.2110 -1.1144
  115MOL     H836716   6.214   1.997   4.403  0.2103  1.1369 -1.3720
  115MOL     H936717   6.118   2.096   4.504 -0.0927  0.9057 -0.4214
  115MOL    H1036718   6.105   2.114   4.331 -0.3169 -0.0354  0.1721
  115MOL    H1136719   6.029   1.919   4.179  1.7737 -0.2111  0.2108
  115MOL    H1236720   5.714   1.657   4.309 -0.6392 -0.7436  0.7294
  115MOL    H1336721   5.844   1.676   4.421  0.2326  1.6689 -0.0462
  115MOL    H1436722   5.869   1.570   4.283  0.3319  0.5105  1.5558
  115MOL    H1536723   5.834   1.895   4.050 -3.1904  1.2387 -0.0003
  115MOL    H1636724   5.717   1.757   4.096 -0.9402  1.4216  1.0050
  115MOL    H1736725   5.904   2.005   4.374 -0.7577 -0.1751 -1.1984
  115MOL    C1836726   6.128   1.756   4.247 -0.5105 -0.0143  0.1152
  115MOL    C1936727   6.174   1.696   4.387 -0.7264 -0.0632 -0.5206
  115MOL    C2036728   6.255   1.797   4.167 -0.2971  0.3133  0.0377
  115MOL    C2136729   6.225   1.892   4.045 -0.1606 -0.1042 -0.2460
  115MOL    C2236730   6.141   1.849   3.933 -0.0087  0.6174  0.2359
  115MOL    C2336731   6.272   2.013   4.036  0.1080 -0.7703  0.0194
  115MOL    H2436732   6.088   1.670   4.193 -1.1019  0.7650 -0.7078
  115MOL    H2536733   6.255   1.749   4.437  0.2868 -2.7230  0.7487
  115MOL    H2636734   6.215   1.596   4.380 -0.0613  0.1769 -0.0605
  115MOL    H2736735   6.093   1.684   4.459  0.9944 -2.7724  1.0012
  115MOL    H2836736   6.300   1.859   4.244 -0.7980 -1.3832  1.7257
  115MOL    H2936737   6.188   1.767   3.878 -1.1950  0.3805 -0.4391
  115MOL    H3036738   6.124   1.928   3.859 -0.7659  1.0379  0.8504
  115MOL    H3136739   6.046   1.802   3.960  0.0062  1.1229  1.1811
  115MOL    H3236740   6.325   2.060   4.117  1.6943 -4.3128  1.1447
  115MOL    H3336741   6.257   2.074   3.949 -2.5273 -2.8741 -1.0638
  115MOL    C3436742   6.359   1.684   4.126  0.3078  0.8427 -0.0838
  115MOL    C3536743   6.284   1.554   4.084 -0.6883  0.3540 -0.5134
  115MOL    C3636744   6.475   1.664   4.230  0.6012 -0.1462  0.6618
  115MOL    C3736745   6.537   1.800   4.272  0.0102  0.5363  0.4542
  115MOL    C3836746   6.548   1.819   4.419  0.4074 -0.3170 -0.5855
  115MOL    C3936747   6.586   1.891   4.185 -0.1194  0.1287 -0.4450
  115MOL    H4036748   6.421   1.722   4.045 -0.4249 -0.2579 -1.1752
  115MOL    H4136749   6.251   1.501   4.174  0.0460 -0.2509 -0.6034
  115MOL    H4236750   6.353   1.485   4.037  0.0517 -2.1164  3.9304
  115MOL    H4336751   6.204   1.572   4.012 -0.6275  0.4913 -0.5469
  115MOL    H4436752   6.428   1.627   4.321  0.1984  1.4106  1.1050
  115MOL    H4536753   6.593   1.913   4.453 -0.1984  0.1833 -1.1468
  115MOL    H4636754   6.607   1.738   4.462 -0.1903 -0.4881 -0.0947
  115MOL    H4736755   6.450   1.811   4.464  0.7612  1.6261  0.5797
  115MOL    H4836756   6.578   1.887   4.077 -2.5774  0.5917 -0.3092
  115MOL    H4936757   6.634   1.981   4.223 -0.8196  0.9118 -1.3883
  115MOL    C5036758   6.595   1.567   4.198  0.3692 -0.5135 -0.6153
  115MOL    C5136759   6.633   1.570   4.047 -0.5594 -0.0725 -0.8630
  115MOL    C5236760   6.567   1.425   4.263  0.6150 -0.3541  0.2817
  115MOL    C5336761   6.571   1.426   4.421  0.5565  0.2743 -0.6756
  115MOL    C5436762   6.703   1.456   4.481 -0.0233 -0.5768  0.5230
  115MOL    C5536763   6.462   1.413   4.495 -0.4981  0.1234  0.0238
  115MOL    H5636764   6.686   1.607   4.241  0.1869 -1.1766  0.3907
  115MOL    H5736765   6.664   1.671   4.018  3.9416 -1.1930 -0.2459
  115MOL    H5836766   6.559   1.532   3.977 -1.8501 -0.2926  0.5998
  115MOL    H5936767   6.718   1.505   4.030  0.3740  0.6517  0.8930
  115MOL    H6036768   6.462   1.403   4.244  0.6230 -2.2972  2.3696
  115MOL    H6136769   6.720   1.562   4.494 -0.4375 -0.7650  2.7856
  115MOL    H6236770   6.790   1.420   4.426  0.5821  0.2892  0.9064
  115MOL    H6336771   6.715   1.408   4.579 -1.0951  1.1093  1.4959
  115MOL    H6436772   6.367   1.394   4.448  0.8117 -1.1977 -2.2294
  115MOL    H6536773   6.468   1.425   4.602  2.4661  1.5313 -0.2381
  115MOL    C6636774   6.644   1.300   4.204  0.1122  0.8706  0.0698
  115MOL    C6736775   6.600   1.268   4.063  0.2356  0.6950 -0.5611
  115MOL    C6836776   6.659   1.167   4.292 -0.2735 -0.3492  0.3245
  115MOL    C6936777   6.808   1.127   4.282 -0.3201 -0.3013  0.3008
  115MOL    C7036778   6.853   1.082   4.147  0.1949 -0.2598 -0.0861
  115MOL    C7136779   6.893   1.140   4.382 -0.0319 -0.4750 -0.3584
  115MOL    H7236780   6.745   1.339   4.201  0.5508  0.0196  2.5507
  115MOL    H7336781   6.613   1.163   4.035 -1.9470  0.7189 -1.7599
  115MOL    H7436782   6.661   1.316   3.987 -0.4099  1.8010 -0.3886
  115MOL    H7536783   6.494   1.291   4.052 -0.1137 -0.7790 -0.5066
  115MOL    H7636784   6.654   1.189   4.399  1.8285  2.4263 -0.0849
  115MOL    H7736785   6.890   1.178   4.110 -1.4090  0.6934  0.7023
  115MOL    H7836786   6.779   1.043   4.076  0.0958  0.3483 -0.3228
  115MOL    H7936787   6.933   1.009   4.154  0.6356  0.1755 -0.5307
  115MOL    H8036788   6.862   1.175   4.479 -0.0978 -0.2510 -0.4594
  115MOL    H8136789   6.997   1.110   4.372  1.4339  4.1154  0.1697
  115MOL    C8236790   6.548   1.059   4.281 -0.8383 -0.8998  0.1759
  115MOL    C8336791   6.403   1.116   4.278 -0.3398  0.2005  0.0910
  115MOL    C8436792   6.555   0.934   4.373 -0.4841 -0.4955 -0.3302
  115MOL    C8536793   6.521   0.979   4.513  0.2549 -0.1520 -0.4228
  115MOL    C8636794   6.379   0.950   4.561 -0.2826 -0.2527 -0.0248
  115MOL    C8736795   6.615   1.026   4.603  0.2584 -0.3304  0.0614
  115MOL    H8836796   6.555   1.019   4.179  0.0309 -0.4641  0.0589
  115MOL    H8936797   6.383   1.170   4.371 -1.2338 -0.3277  0.2055
  115MOL    H9036798   6.329   1.041   4.252  0.6083 -0.4183 -0.8938
  115MOL    H9136799   6.401   1.189   4.197 -2.0769 -0.2261 -0.2661
  115MOL    H9236800   6.475   0.870   4.336  0.1429 -0.6941 -1.3827
  115MOL    H9336801   6.347   0.987   4.659 -0.2889 -0.2475 -0.0289
  115MOL    H9436802   6.374   0.841   4.562  0.3428 -0.2947 -1.1823
  115MOL    H9536803   6.305   0.993   4.494 -1.7453  2.9262  3.4646
  115MOL    H9636804   6.719   1.038   4.578  0.2318 -1.1609 -0.4363
  115MOL    H9736805   6.583   1.045   4.705 -2.8173  1.0319 -1.0810
  115MOL    C9836806   6.678   0.845   4.368  0.2095 -0.4685 -0.4541
  115MOL    C9936807   6.719   0.790   4.230  0.6219 -0.2308  0.2670
  115MOL   C10036808   6.682   0.733   4.480  0.0432 -0.6629  0.0766
  115MOL   C10136809   6.819   0.724   4.539  0.0201  0.3201 -0.8114
  115MOL   C10236810   6.937   0.691   4.450  0.7260 -0.4704 -0.2754
  115MOL   C10336811   6.827   0.766   4.667 -0.8573  0.4772 -0.6626
  115MOL   H10436812   6.752   0.914   4.409 -0.5918 -0.6859  1.4310
  115MOL   H10536813   6.635   0.724   4.207  0.1552  0.6547 -0.6312
  115MOL   H10636814   6.810   0.731   4.238  0.0053 -1.7568 -3.0516
  115MOL   H10736815   6.734   0.862   4.149  2.3287 -0.6808  0.1599
  115MOL   H10836816   6.618   0.760   4.564 -0.4692  0.5361 -0.6746
  115MOL   H10936817   7.018   0.655   4.514 -0.3972 -1.5603  0.5586
  115MOL   H11036818   6.970   0.783   4.402  0.2133 -0.4321 -0.5535
  115MOL   H11136819   6.916   0.622   4.368 -0.0582 -0.7352  0.1358
  115MOL   H11236820   6.742   0.804   4.721  0.7353 -0.9050  3.0273
  115MOL   H11336821   6.923   0.768   4.717 -1.6569  1.5684  0.8500
  115MOL   C11436822   6.620   0.592   4.440 -0.4336 -0.4369 -0.4269
  115MOL   C11536823   6.470   0.598   4.394 -0.3797 -0.0512 -0.2621
  115MOL   C11636824   6.660   0.472   4.538  0.1250  0.0123 -0.3163
  115MOL   C11736825   6.693   0.348   4.445  0.2697  0.2166  0.2542
  115MOL   C11836826   6.577   0.284   4.361 -0.4697  0.0675  0.7411
  115MOL   C11936827   6.817   0.299   4.430 -0.1603 -0.4214  0.1407
  115MOL   H12036828   6.679   0.573   4.350  0.2983 -2.4006  0.4310
  115MOL   H12136829   6.446   0.662   4.309 -0.9353  0.6561  0.4231
  115MOL   H12236830   6.395   0.632   4.466  1.6135  0.7550  1.4934
  115MOL   H12336831   6.441   0.498   4.360  0.3218 -0.3935  0.1373
  115MOL   H12436832   6.757   0.495   4.584  0.0849  1.9718 -1.1665
  115MOL   H12536833   6.607   0.179   4.355 -1.1009 -0.1721  1.5958
  115MOL   H12636834   6.574   0.324   4.260  0.0851 -0.0813  0.6622
  115MOL   H12736835   6.479   0.298   4.407 -0.4256  1.6651  0.3742
  115MOL   H12836836   6.901   0.341   4.483 -1.9477 -0.6963  3.3471
  115MOL   H12936837   6.833   0.215   4.364 -0.4836 -0.1518 -0.2765
  115MOL   C13036838   6.554   0.435   4.652 -0.3951  0.2221 -0.3494
  115MOL   C13136839   6.559   0.526   4.776  0.1687  0.1647 -0.0691
  115MOL   C13236840   6.540   0.279   4.692  0.5799  0.0646  0.0030
  115MOL   C13336841   6.396   0.235   4.688  0.3569  0.4869 -0.5815
  115MOL   C13436842   6.317   0.294   4.802  0.0292  0.1290 -0.5030
  115MOL   C13536843   6.341   0.161   4.595  0.7598 -0.3051  0.3843
  115MOL   H13636844   6.459   0.456   4.602 -1.0557 -2.3108 -0.2246
  115MOL   H13736845   6.526   0.629   4.763  1.6975  0.8027  0.9412
  115MOL   H13836846   6.663   0.542   4.805 -0.1961 -1.9787  2.6780
  115MOL   H13936847   6.504   0.486   4.862 -0.2742 -1.8232 -1.2409
  115MOL   H14036848   6.582   0.225   4.606  0.4096 -1.5990  0.9379
  115MOL   H14136849   6.302   0.399   4.780  0.5762  0.3825  0.3003
  115MOL   H14236850   6.360   0.281   4.901  0.5836  1.0567 -0.6217
  115MOL   H14336851   6.219   0.246   4.810  0.5177 -0.8760 -0.5182
  115MOL   H14436852   6.393   0.119   4.510 -0.1959 -0.7140 -0.0062
  115MOL   H14536853   6.235   0.139   4.600  0.8696 -0.3643  3.3323
  115MOL   C14636854   6.617   0.217   4.811  1.1458 -0.6084 -0.5785
  115MOL   C14736855   6.773   0.258   4.808  0.4038 -0.3632  0.4385
  115MOL   C14836856   6.592   0.066   4.835 -0.9403 -0.5294  0.8295
  115MOL   C14936857   6.583   0.037   4.984 -0.3053  0.0313 -0.3861
  115MOL   C15036858   6.699   0.083   5.070 -0.5051 -0.8663 -0.5561
  115MOL   C15136859   6.466   0.005   5.038  0.0078 -0.0931 -0.2510
  115MOL   H15236860   6.574   0.271   4.895 -0.4609 -2.1703 -0.3861
  115MOL   H15336861   6.828   0.186   4.869  0.7239 -0.6225 -0.1491
  115MOL   H15436862   6.795   0.355   4.852  3.6068 -0.5444 -0.5960
  115MOL   H15536863   6.834   0.253   4.718  0.9862  1.3761  0.7175
  115MOL   H15636864   6.495   0.045   4.791 -0.3834 -0.4873 -0.4629
  115MOL   H15736865   6.682   0.055   5.174  0.1864 -1.9434 -0.7308
  115MOL   H15836866   6.713   0.191   5.069 -0.6236 -0.8543 -1.0467
  115MOL   H15936867   6.795   0.041   5.039 -0.7980 -3.0049  1.3230
  115MOL   H16036868   6.377   7.879   4.980  0.9522  0.9500 -2.0957
  115MOL   H16136869   6.471   7.888   5.145 -2.0446  1.6455  0.0280
  115MOL   C16236870   6.684   7.856   4.757  0.7943 -0.3342 -0.3311
  115MOL   C16336871   6.719   7.891   4.610  0.1828 -0.4586  0.7506
  115MOL   C16436872   6.658   7.705   4.778  0.1078  0.3341  0.0150
  115MOL   C16536873   6.786   7.629   4.795 -0.3651 -1.3092  0.6911
  115MOL   C16636874   6.817   7.592   4.938  0.0027  0.2343  0.4810
  115MOL   C16736875   6.862   7.586   4.694 -0.2994 -0.2693  0.3960
  115MOL   H16836876   6.778   7.876   4.808  0.8398  1.1908 -0.9933
  115MOL   H16936877   6.797   7.830   4.565  0.7749 -0.5642  1.8982
  115MOL   H17036878   6.781   0.087   4.599  0.6058 -0.8409  0.1084
  115MOL   H17136879   6.631   0.009   4.546  0.1938  0.9047  0.9448
  115MOL   H17236880   6.609   7.711   4.875 -0.2972 -1.2691 -0.0860
  115MOL   H17336881   6.901   7.523   4.948 -0.3998 -0.3641 -0.2032
  115MOL   H17436882   6.735   7.537   4.985  2.2552 -1.4556  2.5398
  115MOL   H17536883   6.850   7.679   4.994 -0.5941  1.7891 -1.5158
  115MOL   H17636884   6.838   7.617   4.593  0.1417  1.1294  0.7135
  115MOL   H17736885   6.953   7.534   4.718 -1.5875 -3.2077 -0.8418
  115MOL   C17836886   6.558   7.637   4.672 -0.0032 -0.8703  0.6470
  115MOL   C17936887   6.428   7.708   4.632  0.0191  0.0397 -0.2653
  115MOL   C18036888   6.524   7.484   4.702  0.6089 -0.0582 -0.3378
  115MOL   C18136889   6.539   7.402   4.575  0.7853 -0.3429 -0.5791
  115MOL   C18236890   6.660   7.315   4.563 -0.6108 -0.1860  0.4488
  115MOL   C18336891   6.445   7.396   4.476 -0.9699 -0.5800 -0.3843
  115MOL   H18436892   6.620   7.630   4.582  1.8163 -1.0517  1.8757
  115MOL   H18536893   6.362   7.737   4.714 -0.6179 -2.4807  0.1613
  115MOL   H18636894   6.366   7.646   4.566 -3.3803 -0.1833  2.9688
  115MOL   H18736895   6.452   7.797   4.573  1.5177  0.7262  1.3152
  115MOL   H18836896   6.600   7.436   4.763  0.2574 -0.6035 -0.3224
  115MOL   H18936897   6.754   7.369   4.579 -0.5637 -0.3829  0.8380
  115MOL   H19036898   6.664   7.279   4.460  0.5413 -2.0780  1.1384
  115MOL   H19136899   6.674   7.224   4.620 -0.2777 -0.6684 -0.3845
  115MOL   H19236900   6.352   7.451   4.472 -0.4140  0.3082 -1.6262
  115MOL   H19336901   6.469   7.333   4.391  0.8961  1.7549 -1.6515
  115MOL   C19436902   6.391   7.464   4.778  0.0009 -0.0677 -0.1292
  115MOL   C19536903   6.390   7.526   4.918 -0.5258 -0.8434 -0.5123
  115MOL   C19636904   6.353   7.310   4.796  0.0044 -0.4510  0.3987
  115MOL   C19736905   6.195   7.307   4.791 -0.1517 -0.4113 -0.0870
  115MOL   C19836906   6.129   7.329   4.655 -0.0389  0.3633 -0.1463
  115MOL   C19936907   6.119   7.307   4.900 -0.5973  0.1720  0.2300
  115MOL   H20036908   6.306   7.508   4.725 -1.4630 -2.3233  0.2799
  115MOL   H20136909   6.383   7.635   4.924  1.0498 -0.7529 -0.1207
  115MOL   H20236910   6.491   7.519   4.958 -1.3956 -1.3547  1.7159
  115MOL   H20336911   6.316   7.481   4.985 -1.3751 -0.1439 -0.9697
  115MOL   H20436912   6.383   7.272   4.698 -1.4130  1.7766 -0.9204
  115MOL   H20536913   6.162   7.421   4.607  1.5263  0.9087  1.9095
  115MOL   H20636914   6.029   7.372   4.659  0.1538  0.6365  2.0726
  115MOL   H20736915   6.129   7.239   4.594 -3.8112 -0.8512  1.4901
  115MOL   H20836916   6.156   7.307   5.001  2.4357 -0.3172 -0.8225
  115MOL   H20936917   6.014   7.326   4.884 -0.0150  3.3901 -0.2471
  115MOL   C21036918   6.406   7.220   4.909 -0.0964  0.5034 -0.0197
  115MOL   C21136919   6.558   7.225   4.926  0.1879  0.2828 -0.2749
  115MOL   C21236920   6.352   7.076   4.921  0.3568 -0.2977 -0.3138
  115MOL   C21336921   6.300   7.048   5.062 -0.4225  0.7082 -0.2199
  115MOL   C21436922   6.404   7.048   5.174  0.4090  0.1771 -0.4464
  115MOL   C21536923   6.171   7.022   5.092 -0.0377  0.2926  0.4147
  115MOL   H21636924   6.371   7.266   5.002 -3.3860  2.1291 -1.9511
  115MOL   H21736925   6.596   7.153   5.000  0.4195 -0.5654 -1.2114
  115MOL   H21836926   6.598   7.318   4.965  1.7524 -1.1220  1.5947
  115MOL   H21936927   6.606   7.211   4.830  0.3095  1.5840 -0.4095
  115MOL   H22036928   6.265   7.077   4.855  1.4895 -2.2236 -1.8790
  115MOL   H22136929   6.487   6.987   5.141 -0.8151 -0.9883 -1.4191
  115MOL   H22236930   6.378   6.999   5.268 -0.5455  0.4254 -0.5679
  115MOL   H22336931   6.436   7.147   5.205  0.0755  0.2552 -0.3483
  115MOL   H22436932   6.095   7.020   5.016  0.3631  0.4761  0.0057
  115MOL   H22536933   6.131   7.001   5.190 -0.0026  0.2619  0.4223
  115MOL   C22636934   6.427   6.962   4.854  0.4494  0.5514 -0.5730
  115MOL   C22736935   6.499   6.999   4.719 -0.0972 -0.0035 -0.1429
  115MOL   C22836936   6.346   6.824   4.858  0.2306 -0.3196  0.2913
  115MOL   C22936937   6.413   6.717   4.953 -0.0546 -0.4768  0.2124
  115MOL   C23036938   6.558   6.680   4.914  0.2593  0.4881 -0.9420
  115MOL   C23136939   6.351   6.676   5.060  0.3893 -0.2822 -0.7867
  115MOL   H23236940   6.512   6.943   4.920  0.5495 -0.9622 -1.1121
  115MOL   H23336941   6.520   6.912   4.657  0.5690 -0.5265  0.8019
  115MOL   H23436942   6.597   7.037   4.746  0.6463 -0.6882 -1.8320
  115MOL   H23536943   6.453   7.073   4.653 -0.0213  1.1849  1.1195
  115MOL   H23636944   6.253   6.840   4.912 -1.6718 -2.3052 -2.2169
  115MOL   H23736945   6.556   6.571   4.923  0.6901  0.6752  1.9038
  115MOL   H23836946   6.627   6.704   4.995  0.9695 -1.3708 -0.9562
  115MOL   H23936947   6.585   6.710   4.812 -0.1501  1.2371 -0.8332
  115MOL   H24036948   6.248   6.705   5.075  0.4378 -0.4323 -0.1321
  115MOL   H24136949   6.397   6.608   5.130  0.2182 -0.5349 -0.9175
  115MOL   C24236950   6.298   6.769   4.714  0.4034 -0.1926  0.0242
  115MOL   C24336951   6.229   6.867   4.614  0.3296  0.3405 -0.4916
  115MOL   C24436952   6.221   6.623   4.715  0.1501 -0.5281 -0.1702
  115MOL   C24536953   6.282   6.534   4.601  0.4845 -0.7279 -0.3679
  115MOL   C24636954   6.393   6.437   4.624  0.2404  0.4353  0.2196
  115MOL   C24736955   6.249   6.549   4.474  0.1729 -0.0441  0.7337
  115MOL   H24836956   6.390   6.743   4.663  0.7125  0.3553  0.3067
  115MOL   H24936957   6.169   6.942   4.666  0.5369 -1.2128  2.0707
  115MOL   H25036958   6.161   6.819   4.543  1.6830 -1.1542 -0.7980
  115MOL   H25136959   6.297   6.918   4.545  0.8936 -0.6388 -0.6664
  115MOL   H25236960   6.254   6.569   4.804 -2.3157 -1.4752  0.1962
  115MOL   H25336961   6.407   6.359   4.549  1.2716 -0.1357  1.0046
  115MOL   H25436962   6.376   6.388   4.719  0.2881 -0.9771 -0.4913
  115MOL   H25536963   6.492   6.482   4.619  0.5843 -0.1687  1.3892
  115MOL   H25636964   6.172   6.618   4.442  0.5677 -0.1378 -0.4508
  115MOL   H25736965   6.296   6.488   4.398 -0.3490  1.5317 -0.8847
  115MOL   C25836966   6.061   6.633   4.724 -0.0442  0.6387 -0.1397
  115MOL   C25936967   6.019   6.701   4.851 -0.1104 -0.7315 -0.1616
  115MOL   C26036968   5.982   6.507   4.680  0.5860  0.9914 -0.7278
  115MOL   C26136969   5.844   6.555   4.629  0.4132 -0.1604  0.7680
  115MOL   C26236970   5.846   6.584   4.482  0.3046  0.2763  0.7450
  115MOL   C26336971   5.727   6.563   4.698  0.2945  0.3116  0.0273
  115MOL   H26436972   6.035   6.706   4.648 -1.3569  0.0975 -0.2245
  115MOL   H26536973   5.911   6.708   4.861 -0.2510  0.8606 -2.4375
  115MOL   H26636974   6.052   6.805   4.852 -1.7780 -0.1882  2.3936
  115MOL   H26736975   6.061   6.647   4.936  2.3874  0.6447 -0.4585
  115MOL   H26836976   6.033   6.459   4.596 -1.4762  1.1059 -2.0907
  115MOL   H26936977   5.748   6.556   4.444  1.4610 -0.8833 -1.4675
  115MOL   H27036978   5.922   6.517   4.441  1.1862  1.3739  0.5549
  115MOL   H27136979   5.878   6.681   4.445  2.2939 -0.4263  0.5824
  115MOL   H27236980   5.715   6.539   4.802 -1.1806 -0.8863 -0.4028
  115MOL   H27336981   5.643   6.595   4.636 -1.3198 -0.9956  1.4968
  115MOL   C27436982   5.961   6.381   4.777 -1.0068 -0.0612 -0.7324
  115MOL   C27536983   6.093   6.343   4.854 -0.3651  0.4840 -0.5882
  115MOL   C27636984   5.856   6.268   4.725 -0.1094  0.1146  0.0373
  115MOL   C27736985   5.764   6.220   4.839 -0.7043 -0.1039  0.0097
  115MOL   C27836986   5.826   6.162   4.959  0.0370  0.7842  0.3483
  115MOL   C27936987   5.630   6.231   4.830  0.2956 -0.3618 -0.1204
  115MOL   H28036988   5.914   6.429   4.863  1.0224 -1.0948  1.0138
  115MOL   H28136989   6.173   6.303   4.791 -1.8537 -2.7803 -0.5169
  115MOL   H28236990   6.086   6.265   4.930 -1.3377 -0.1762 -1.3453
  115MOL   H28336991   6.137   6.426   4.908 -1.6275 -0.3525  1.7849
  115MOL   H28436992   5.792   6.304   4.644 -1.1099 -0.1116  0.7094
  115MOL   H28536993   5.750   6.106   5.013  0.0291 -0.2992 -0.7697
  115MOL   H28636994   5.853   6.245   5.025  1.4286 -1.8207  3.1687
  115MOL   H28736995   5.912   6.099   4.937 -1.6086 -2.4369  2.7404
  115MOL   H28836996   5.593   6.280   4.742  0.2816 -0.0417  0.0635
  115MOL   H28936997   5.563   6.203   4.910 -0.0952  0.0318 -0.3098
  115MOL   C29036998   5.923   6.154   4.642 -0.2414  0.0466  0.4126
  115MOL   C29136999   6.034   6.201   4.544 -0.3150 -0.0009  0.9899
  115MOL   C29237000   5.821   6.047   4.574  0.2639  0.5020 -0.0009
  115MOL   C29337001   5.875   5.909   4.600  0.1140  0.9257 -0.4076
  115MOL   C29437002   5.988   5.847   4.514 -0.2033  0.2293 -0.4849
  115MOL   C29537003   5.827   5.840   4.703 -0.4779  0.1200  0.1068
  115MOL   H29637004   5.980   6.098   4.716  0.5584  2.7527  1.9152
  115MOL   H29737005   6.132   6.227   4.585 -0.0094  0.1390  0.1942
  115MOL   H29837006   5.999   6.281   4.477 -0.5468  0.6182  1.8458
  115MOL   H29937007   6.061   6.113   4.486  0.4093  1.7668 -1.4561
  115MOL   H30037008   5.731   6.049   4.635 -0.4858  2.2252 -1.1489
  115MOL   H30137009   5.982   5.740   4.490  2.0164 -0.0466  0.0558
  115MOL   H30237010   6.072   5.859   4.582 -0.3044 -0.7416 -0.1771
  115MOL   H30337011   6.009   5.906   4.425 -0.9009  2.0480  0.5359
  115MOL   H30437012   5.763   5.872   4.784  1.2246 -0.6773  1.8315
  115MOL   H30537013   5.852   5.739   4.729  1.2747  0.8606  1.4171
  115MOL   C30637014   5.775   6.077   4.424  0.1695  0.3813 -0.3083
  115MOL   C30737015   5.692   6.213   4.411 -1.5816 -0.0100  0.5783
  115MOL   C30837016   5.672   5.965   4.384  1.1187  0.2062  0.4568
  115MOL   C30937017   5.604   5.982   4.247 -0.4219  0.3231 -1.1004
  115MOL   C31037018   5.702   6.018   4.131  0.3457 -0.8118  0.2668
  115MOL   C31137019   5.472   5.980   4.235 -0.1169  0.2120  0.3041
  115MOL   H31237020   5.862   6.068   4.359  0.5350  0.4067  0.1774
  115MOL   H31337021   5.647   6.232   4.314 -2.8171  0.5933  1.2577
  115MOL   H31437022   5.756   6.301   4.423 -0.2721 -0.7784 -0.5346
  115MOL   H31537023   5.614   6.224   4.486 -1.1706 -0.4256  1.0712
  115MOL   H31637024   5.719   5.866   4.383  1.2812  0.2777  0.7827
  115MOL   H31737025   5.648   6.020   4.036 -0.1554 -0.9874  0.5467
  115MOL   H31837026   5.793   5.958   4.118  1.0447  0.5452 -1.2974
  115MOL   H31937027   5.731   6.123   4.141 -0.0354 -0.8999  2.4571
  115MOL   H32037028   5.409   5.964   4.321 -0.6325  1.4545  0.1755
  115MOL   H32137029   5.430   5.992   4.137 -1.8802  0.2509  1.0495
  115MOL   H32237030   5.588   5.953   4.452 -0.3992  1.9073 -1.0964
  116MOL     C137031   3.932   0.832   4.292  0.4923  0.2201  0.1598
  116MOL     C237032   3.936   0.677   4.253  0.0178  0.5460 -0.2884
  116MOL     C337033   4.052   0.886   4.369 -0.6032 -0.4173 -0.1454
  116MOL     C437034   4.062   0.824   4.511  0.1546  0.1236 -0.6006
  116MOL     C537035   4.198   0.840   4.580 -0.4012  0.2863  0.2074
  116MOL     C637036   3.957   0.764   4.576  0.0630  0.2391 -0.9393
  116MOL     H737037   3.939   0.883   4.195  0.0487 -1.4076 -0.7405
  116MOL     H837038   3.927   0.606   4.335 -2.3216  1.0829 -0.0447
  116MOL     H937039   4.026   0.653   4.196 -0.0945  0.9055 -0.6156
  116MOL    H1037040   3.854   0.643   4.191  1.0021 -3.1009  0.3180
  116MOL    H1137041   4.147   0.855   4.326 -0.1406 -0.3362  0.8047
  116MOL    H1237042   4.213   0.946   4.602  0.9879  0.1149  0.0802
  116MOL    H1337043   4.280   0.805   4.519 -0.7368  1.3234 -0.8620
  116MOL    H1437044   4.210   0.796   4.679 -1.0447  1.4726  0.8372
  116MOL    H1537045   3.860   0.759   4.527 -0.5444 -0.1154  0.2890
  116MOL    H1637046   3.964   0.728   4.677 -1.0521 -0.2833 -1.0412
  116MOL    H1737047   3.841   0.866   4.341 -0.6867 -0.7662 -1.3064
  116MOL    C1837048   4.063   1.046   4.372  0.3080 -0.1996 -0.4141
  116MOL    C1937049   3.931   1.100   4.430 -0.3223  0.9238  0.5835
  116MOL    C2037050   4.118   1.117   4.238  0.4073 -0.1858  0.3642
  116MOL    C2137051   4.248   1.051   4.191  0.0907  0.3932  0.2180
  116MOL    C2237052   4.368   1.088   4.273 -0.1694 -0.0254  0.0349
  116MOL    C2337053   4.249   0.968   4.091  0.3794  0.1140 -0.2999
  116MOL    H2437054   4.135   1.080   4.447  0.1639 -1.9186  0.5393
  116MOL    H2537055   3.916   1.206   4.449  0.3789  0.8173  1.7233
  116MOL    H2637056   3.917   1.050   4.526 -0.6344  0.7255  0.4358
  116MOL    H2737057   3.851   1.082   4.357  1.7928  0.5999 -1.6957
  116MOL    H2837058   4.045   1.081   4.165 -1.0421  1.9080  0.7367
  116MOL    H2937059   4.351   1.086   4.380 -1.0977  1.5862 -0.0804
  116MOL    H3037060   4.408   1.184   4.240  1.0895 -1.7275 -3.8140
  116MOL    H3137061   4.439   1.007   4.252  0.8151  1.2515 -1.7302
  116MOL    H3237062   4.154   0.959   4.040 -0.7897 -1.6386  2.1248
  116MOL    H3337063   4.342   0.920   4.062  0.1965  0.5664 -1.6813
  116MOL    C3437064   4.129   1.277   4.242 -0.5886 -0.3637  0.3141
  116MOL    C3537065   4.181   1.334   4.379 -0.2338  0.1307  0.0022
  116MOL    C3637066   4.004   1.337   4.185 -0.3884  0.8364 -0.4133
  116MOL    C3737067   3.967   1.276   4.047  0.1730 -0.4504 -0.0739
  116MOL    C3837068   4.081   1.264   3.944  0.4481  0.3914  0.4118
  116MOL    C3937069   3.842   1.235   4.020 -0.1875  0.6533 -0.1320
  116MOL    H4037070   4.210   1.290   4.171  0.2580  2.6583  1.7415
  116MOL    H4137071   4.270   1.284   4.417  0.3509  1.6840  0.7344
  116MOL    H4237072   4.100   1.329   4.452  0.1800 -1.0580  0.3839
  116MOL    H4337073   4.208   1.439   4.365  0.0014  0.3258  1.7956
  116MOL    H4437074   3.921   1.311   4.251 -0.6626  2.1643 -0.2071
  116MOL    H4537075   4.033   1.288   3.849  2.0776 -0.0176 -0.5261
  116MOL    H4637076   4.124   1.164   3.932 -0.5049  0.2446 -2.0500
  116MOL    H4737077   4.166   1.329   3.965  1.2793 -0.9103  1.1973
  116MOL    H4837078   3.760   1.234   4.090  0.9572 -1.2295  1.2280
  116MOL    H4937079   3.818   1.191   3.924  0.6894 -2.1403  0.8883
  116MOL    C5037080   4.001   1.492   4.156  0.2022  0.0629  0.0885
  116MOL    C5137081   4.131   1.544   4.094 -0.0469  0.6770 -0.0062
  116MOL    C5237082   3.954   1.579   4.281  0.0326  0.6785 -0.1433
  116MOL    C5337083   3.872   1.500   4.383  0.6856  0.4273  0.8806
  116MOL    C5437084   3.728   1.453   4.355  0.5064 -0.5051 -0.4139
  116MOL    C5537085   3.913   1.494   4.515 -0.2884 -0.6860 -0.9683
  116MOL    H5637086   3.921   1.520   4.089 -0.0797 -0.5419  0.1726
  116MOL    H5737087   4.157   1.647   4.118 -0.2794  0.8527 -0.4932
  116MOL    H5837088   4.122   1.530   3.986 -3.5379 -1.2003  0.4616
  116MOL    H5937089   4.221   1.494   4.129 -0.9484 -0.4923  0.6511
  116MOL    H6037090   4.047   1.597   4.334 -0.3486 -0.1506  0.8245
  116MOL    H6137091   3.699   1.361   4.406  0.3237 -0.2994 -0.1393
  116MOL    H6237092   3.710   1.446   4.248  0.8814 -3.0406 -0.3328
  116MOL    H6337093   3.654   1.523   4.395  1.6237 -0.2027  1.1493
  116MOL    H6437094   4.014   1.523   4.536  0.4027 -4.0114  0.7389
  116MOL    H6537095   3.849   1.455   4.593  0.3897 -0.8014 -0.4776
  116MOL    C6637096   3.876   1.713   4.252 -0.6807  0.5199 -0.2833
  116MOL    C6737097   3.939   1.802   4.139 -0.5138  0.2023 -0.6492
  116MOL    C6837098   3.839   1.809   4.376 -0.4551 -0.1638  0.0985
  116MOL    C6937099   3.709   1.877   4.336  0.6752 -0.7828 -0.1987
  116MOL    C7037100   3.581   1.798   4.371  0.0224  0.2828 -0.4515
  116MOL    C7137101   3.701   1.996   4.270 -0.2495  0.0350 -0.3316
  116MOL    H7237102   3.779   1.681   4.212 -1.2323 -0.0483  1.4957
  116MOL    H7337103   3.892   1.899   4.128  0.6505  1.1284  2.1534
  116MOL    H7437104   3.952   1.746   4.046  0.3197 -1.4106  0.4165
  116MOL    H7537105   4.038   1.825   4.179 -0.9005  0.9912 -0.1227
  116MOL    H7637106   3.809   1.746   4.460 -0.7692  1.9293  1.6125
  116MOL    H7737107   3.576   1.783   4.479  1.5288 -0.9826 -0.5535
  116MOL    H7837108   3.567   1.705   4.316 -0.4164  0.4111 -0.5614
  116MOL    H7937109   3.492   1.850   4.334 -0.8106 -0.9451 -0.1755
  116MOL    H8037110   3.789   2.053   4.244  0.4823 -0.3795  1.1810
  116MOL    H8137111   3.603   2.034   4.248  0.4866  2.4531  0.3611
  116MOL    C8237112   3.941   1.905   4.430 -1.0419 -0.1664  0.3611
  116MOL    C8337113   4.073   1.838   4.477 -0.2559  0.6068 -0.2469
  116MOL    C8437114   3.895   2.004   4.546 -0.6872 -0.8111  0.0880
  116MOL    C8537115   3.963   2.143   4.527  0.1157 -0.4872 -0.2363
  116MOL    C8637116   4.115   2.159   4.541 -0.2725 -0.3000  0.2320
  116MOL    C8737117   3.890   2.250   4.489 -0.4766 -0.2206  0.1644
  116MOL    H8837118   3.977   1.967   4.348 -0.7853 -1.2230 -0.3279
  116MOL    H8937119   4.058   1.739   4.519 -0.0355 -0.5298 -2.7182
  116MOL    H9037120   4.141   1.895   4.540 -1.2579  1.7563 -0.1847
  116MOL    H9137121   4.131   1.815   4.388  0.9199  1.4154  0.2980
  116MOL    H9237122   3.792   2.026   4.518 -0.5419 -0.1712  0.0623
  116MOL    H9337123   4.142   2.264   4.532  1.0918 -0.4637  2.1223
  116MOL    H9437124   4.168   2.108   4.461  0.4792 -0.7171  0.9880
  116MOL    H9537125   4.157   2.120   4.634 -0.2493  2.9804  1.6699
  116MOL    H9637126   3.784   2.245   4.470 -0.6860  0.1486  1.2020
  116MOL    H9737127   3.935   2.347   4.473  1.2557 -1.3375 -1.8903
  116MOL    C9837128   3.879   1.961   4.696 -0.0699  0.9353 -0.0334
  116MOL    C9937129   3.863   1.814   4.728  0.1712  0.9386  0.2447
  116MOL   C10037130   3.793   2.058   4.789 -0.4265 -0.2362 -0.0176
  116MOL   C10137131   3.867   2.073   4.925  0.4346 -0.2230  0.5732
  116MOL   C10237132   3.967   2.187   4.932  0.4207  0.4834  0.3853
  116MOL   C10337133   3.865   1.990   5.031  0.0564  0.1498 -0.2372
  116MOL   H10437134   3.982   1.974   4.730  0.3728  0.5789 -1.2258
  116MOL   H10537135   3.937   1.742   4.693  0.2541  1.1914 -0.0935
  116MOL   H10637136   3.763   1.779   4.702 -0.1043  0.6780  1.6079
  116MOL   H10737137   3.858   1.809   4.837 -1.8365  1.1408  0.1806
  116MOL   H10837138   3.801   2.159   4.751 -0.9262  0.1494  0.8851
  116MOL   H10937139   4.036   2.161   4.852 -2.5613 -0.5545 -1.9701
  116MOL   H11037140   4.005   2.207   5.032  0.4884  1.6691  0.1326
  116MOL   H11137141   3.911   2.276   4.903  1.1195  1.0173  0.6716
  116MOL   H11237142   3.799   1.904   5.032 -0.4677  0.5213 -2.2894
  116MOL   H11337143   3.926   2.010   5.118 -1.7917 -1.4369  1.4929
  116MOL   C11437144   3.644   2.029   4.817  0.7416 -0.1624 -0.1341
  116MOL   C11537145   3.572   2.023   4.686  0.2518  0.0361  0.9451
  116MOL   C11637146   3.567   2.118   4.928  0.3095  0.7845  0.3897
  116MOL   C11737147   3.459   2.028   4.999  0.4067 -0.7992 -0.3532
  116MOL   C11837148   3.498   1.976   5.139 -0.0855  0.4635 -0.1741
  116MOL   C11937149   3.337   2.002   4.952 -0.1866 -0.1328  1.1308
  116MOL   H12037150   3.650   1.927   4.852  3.0760  0.8353  2.5645
  116MOL   H12137151   3.613   1.949   4.618 -0.0427  1.6009 -0.9592
  116MOL   H12237152   3.569   2.122   4.639  0.3602  0.2018  1.2802
  116MOL   H12337153   3.465   2.001   4.685  0.6211 -1.7282 -1.1789
  116MOL   H12437154   3.629   2.148   5.012 -0.9559  0.1852  1.5495
  116MOL   H12537155   3.419   1.940   5.206  0.7983  0.0862  0.6895
  116MOL   H12637156   3.556   2.058   5.183 -1.1051  0.6391  0.8692
  116MOL   H12737157   3.576   1.901   5.124 -0.2890  0.1721  0.2222
  116MOL   H12837158   3.302   2.036   4.856 -1.1467 -1.2449  1.0797
  116MOL   H12937159   3.267   1.945   5.011  0.3183 -0.7970  1.0977
  116MOL   C13037160   3.507   2.256   4.879 -0.0731  0.4532 -0.1178
  116MOL   C13137161   3.596   2.359   4.816 -0.2163  0.0845 -0.2695
  116MOL   C13237162   3.424   2.325   4.993 -0.4706 -0.2531 -0.2364
  116MOL   C13337163   3.289   2.365   4.939 -0.1673 -0.7326 -0.0404
  116MOL   C13437164   3.291   2.470   4.825 -0.1427  0.4026  0.2052
  116MOL   C13537165   3.175   2.296   4.962  0.2197 -0.2126 -0.0189
  116MOL   H13637166   3.444   2.227   4.794  0.7373 -2.7868  0.3160
  116MOL   H13737167   3.555   2.455   4.785 -0.8243 -0.1881 -0.3098
  116MOL   H13837168   3.644   2.335   4.720  2.7222  3.9936  0.0909
  116MOL   H13937169   3.680   2.388   4.879 -0.4052 -1.3059  0.6283
  116MOL   H14037170   3.399   2.245   5.062 -3.0087  0.1776 -0.6265
  116MOL   H14137171   3.343   2.446   4.733 -0.2055  0.8820  0.0448
  116MOL   H14237172   3.338   2.552   4.879 -0.1553  0.1144  0.6680
  116MOL   H14337173   3.192   2.511   4.805  0.1275  1.5262  1.1146
  116MOL   H14437174   3.177   2.214   5.033 -0.0989 -0.0997  0.1219
  116MOL   H14537175   3.078   2.317   4.920 -0.4638 -0.1085  1.5832
  116MOL   C14637176   3.497   2.434   5.073 -0.1612  0.5163 -0.4683
  116MOL   C14737177   3.613   2.372   5.161 -0.0212 -0.4251  0.1904
  116MOL   C14837178   3.402   2.532   5.161 -0.7980  0.4997  0.1158
  116MOL   C14937179   3.470   2.674   5.163  0.7048 -0.4265 -0.3816
  116MOL   C15037180   3.414   2.772   5.063 -0.1519  0.9805  0.2672
  116MOL   C15137181   3.559   2.714   5.254  0.1685 -0.1203  0.0316
  116MOL   H15237182   3.538   2.502   4.999 -0.0684  1.3254  0.3115
  116MOL   H15337183   3.702   2.348   5.102 -0.0495 -0.7481  0.2777
  116MOL   H15437184   3.585   2.280   5.214 -2.3459 -0.2399 -0.6913
  116MOL   H15537185   3.654   2.442   5.234 -0.1449 -1.5898  1.4077
  116MOL   H15637186   3.314   2.541   5.098  0.4263 -0.5562 -1.8038
  116MOL   H15737187   3.438   2.878   5.066 -2.4752  1.4830  2.2126
  116MOL   H15837188   3.306   2.774   5.068 -0.2392 -0.6533 -0.6315
  116MOL   H15937189   3.446   2.741   4.963  2.0426 -0.7281  1.4590
  116MOL   H16037190   3.593   2.647   5.331 -0.8453 -0.1667  0.4404
  116MOL   H16137191   3.600   2.814   5.253  0.0265 -0.0586 -1.4467
  116MOL   C16237192   3.358   2.482   5.305  0.1636 -0.1778  0.4518
  116MOL   C16337193   3.302   2.343   5.308  0.2497  0.1170 -0.3116
  116MOL   C16437194   3.274   2.583   5.394  0.3694 -0.2330  0.2722
  116MOL   C16537195   3.328   2.580   5.545 -0.0570 -0.0819  1.0188
  116MOL   C16637196   3.418   2.695   5.588 -0.2452  0.1336 -0.3246
  116MOL   C16737197   3.298   2.481   5.633  0.3012 -0.1872  0.2881
  116MOL   H16837198   3.457   2.484   5.352 -0.6525 -1.8388  2.3234
  116MOL   H16937199   3.370   2.258   5.311 -0.8404 -1.1179 -5.5738
  116MOL   H17037200   3.236   2.322   5.223 -1.1515 -0.0909  0.8089
  116MOL   H17137201   3.240   2.332   5.397  0.4397 -4.3479 -0.5990
  116MOL   H17237202   3.306   2.680   5.356  0.7855 -1.8736 -3.8222
  116MOL   H17337203   3.427   2.691   5.697 -1.8641  0.5589 -0.1619
  116MOL   H17437204   3.377   2.790   5.553 -0.1538  0.8897  1.5091
  116MOL   H17537205   3.514   2.673   5.543  0.2612  1.6370 -0.0381
  116MOL   H17637206   3.242   2.395   5.600  1.2944 -0.0897 -1.7825
  116MOL   H17737207   3.325   2.503   5.735 -1.3908 -2.9883  1.4019
  116MOL   C17837208   3.116   2.573   5.387 -1.0653  0.9513 -0.0214
  116MOL   C17937209   3.047   2.517   5.252 -0.4765 -0.1634 -0.0174
  116MOL   C18037210   3.059   2.710   5.436  0.3942  0.6779  0.2149
  116MOL   C18137211   2.972   2.689   5.566  0.3072  0.5525 -0.5970
  116MOL   C18237212   2.840   2.610   5.551  0.1116  0.2819  0.2373
  116MOL   C18337213   3.014   2.727   5.688 -0.0228  0.4005  0.2541
  116MOL   H18437214   3.092   2.494   5.458  1.0527  1.1534  0.9534
  116MOL   H18537215   2.944   2.547   5.232 -0.1370  1.1090  0.1089
  116MOL   H18637216   3.034   2.409   5.250  2.0561 -0.5006 -0.1668
  116MOL   H18737217   3.109   2.528   5.163 -1.4503 -2.6532 -1.0506
  116MOL   H18837218   3.147   2.765   5.466  0.3088  1.5028 -1.0060
  116MOL   H18937219   2.876   2.509   5.533  0.3790  0.2561  0.8816
  116MOL   H19037220   2.787   2.656   5.468 -1.4882  0.5635  1.4027
  116MOL   H19137221   2.771   2.619   5.634 -0.2988 -1.0866  0.0539
  116MOL   H19237222   3.103   2.788   5.691 -0.6468  1.4576 -1.8018
  116MOL   H19337223   2.958   2.709   5.778 -1.2775  0.9484 -0.4016
  116MOL   C19437224   2.991   2.809   5.342 -0.4040  0.3261 -0.7602
  116MOL   C19537225   3.090   2.846   5.227 -0.2872  0.3783  0.0056
  116MOL   C19637226   2.917   2.933   5.411  0.6588 -0.6692 -0.0487
  116MOL   C19737227   2.781   2.956   5.341  0.1623  0.8050 -0.1875
  116MOL   C19837228   2.657   2.942   5.424  0.2449 -0.4338 -0.1774
  116MOL   C19937229   2.758   2.984   5.210  0.0240 -0.6528 -0.1690
  116MOL   H20037230   2.907   2.758   5.296  1.1329 -0.1380 -3.1190
  116MOL   H20137231   3.194   2.866   5.253  0.3876  0.7644 -2.7901
  116MOL   H20237232   3.051   2.931   5.171  1.0462  0.5408 -0.6811
  116MOL   H20337233   3.084   2.764   5.155 -1.9997 -1.7751  2.4790
  116MOL   H20437234   2.893   2.911   5.515  0.3981 -1.5910 -0.3027
  116MOL   H20537235   2.640   2.835   5.419  1.0181 -0.5586 -0.2489
  116MOL   H20637236   2.570   3.003   5.400 -0.9485 -2.9154 -2.4869
  116MOL   H20737237   2.683   2.946   5.530 -0.7640  0.6881  0.0337
  116MOL   H20837238   2.841   3.003   5.144  0.7086 -1.7895  0.3591
  116MOL   H20937239   2.657   2.989   5.171 -0.7817 -0.2719  1.8814
  116MOL   C21037240   3.008   3.061   5.415 -0.1899 -0.0863 -0.1403
  116MOL   C21137241   3.142   3.036   5.495 -0.3465  1.2234  0.1812
  116MOL   C21237242   2.932   3.189   5.463 -0.1523  0.7506  0.1992
  116MOL   C21337243   2.959   3.294   5.359  0.7539  0.2049 -0.2222
  116MOL   C21437244   2.842   3.320   5.270 -0.7146 -0.2277 -0.2372
  116MOL   C21537245   3.083   3.351   5.353 -0.6746 -0.5837  0.7180
  116MOL   H21637246   3.035   3.082   5.312 -3.5791  1.4982 -0.7611
  116MOL   H21737247   3.205   3.125   5.496  1.6610 -0.1555 -0.3167
  116MOL   H21837248   3.204   2.959   5.448 -2.5285  0.8845 -2.2893
  116MOL   H21937249   3.121   3.005   5.597  0.4998  0.5560  0.1603
  116MOL   H22037250   2.825   3.166   5.465 -0.0328  0.0958 -0.6776
  116MOL   H22137251   2.834   3.234   5.203  1.0240 -1.9235  1.6629
  116MOL   H22237252   2.857   3.415   5.219  2.7440 -0.1065  0.8931
  116MOL   H22337253   2.742   3.322   5.312 -1.4527 -0.5839 -1.9248
  116MOL   H22437254   3.164   3.329   5.421  2.3336  0.7328 -2.2848
  116MOL   H22537255   3.107   3.426   5.279 -1.5919 -0.9762  0.0167
  116MOL   C22637256   2.947   3.243   5.607 -0.1232 -0.0652  0.2350
  116MOL   C22737257   2.904   3.128   5.701  0.2506 -0.2861 -0.0232
  116MOL   C22837258   2.880   3.383   5.645  0.3821 -1.0147  0.4832
  116MOL   C22937259   2.973   3.469   5.733 -0.5293  0.4160  0.5158
  116MOL   C23037260   3.019   3.407   5.872 -0.4441 -0.5200  0.0739
  116MOL   C23137261   3.024   3.589   5.703 -0.1061 -0.7931 -0.1973
  116MOL   H23237262   3.050   3.264   5.637 -0.6852  1.7926  0.9325
  116MOL   H23337263   2.798   3.102   5.693 -0.0405  0.6544  0.6162
  116MOL   H23437264   2.927   3.150   5.805  0.0347  0.1457 -0.0629
  116MOL   H23537265   2.944   3.027   5.692 -0.4028 -0.7158  1.6112
  116MOL   H23637266   2.878   3.441   5.553  0.2947 -1.6824  0.0613
  116MOL   H23737267   2.928   3.373   5.920 -0.1130  1.0185  1.8403
  116MOL   H23837268   3.062   3.484   5.937 -1.6757  1.2607 -1.1751
  116MOL   H23937269   3.096   3.330   5.868 -1.4746 -1.5629  0.0088
  116MOL   H24037270   2.987   3.640   5.615  0.6664  0.7062  0.3256
  116MOL   H24137271   3.091   3.642   5.770  0.9605 -3.1170  0.6282
  116MOL   C24237272   2.728   3.384   5.700  0.2120  0.0943 -0.6192
  116MOL   C24337273   2.620   3.323   5.607  0.2614  0.0295 -0.4936
  116MOL   C24437274   2.672   3.523   5.761 -0.4411  0.0318 -0.5229
  116MOL   C24537275   2.596   3.509   5.893 -0.0285  0.1734  0.1637
  116MOL   C24637276   2.668   3.518   6.027 -0.1004 -0.3878 -0.0758
  116MOL   C24737277   2.462   3.490   5.895  0.0300  0.0556 -0.1002
  116MOL   H24837278   2.728   3.310   5.780 -1.4233  0.0582 -0.6346
  116MOL   H24937279   2.623   3.215   5.590  1.3658 -0.4475  2.5356
  116MOL   H25037280   2.632   3.381   5.515  0.3850 -0.6524 -0.9121
  116MOL   H25137281   2.519   3.336   5.647 -0.0002 -2.0821 -0.3850
  116MOL   H25237282   2.762   3.576   5.791  0.0777  0.2416 -2.4040
  116MOL   H25337283   2.601   3.551   6.106 -0.0586 -1.5999  0.4781
  116MOL   H25437284   2.752   3.587   6.019 -0.3727 -0.1782 -1.1955
  116MOL   H25537285   2.716   3.429   6.069 -0.4246  0.0643  1.2852
  116MOL   H25637286   2.408   3.483   5.802 -1.4707  0.7652  0.7104
  116MOL   H25737287   2.405   3.491   5.987  0.5783 -1.5108  0.2881
  116MOL   C25837288   2.602   3.630   5.666 -0.0299  0.0568  0.2673
  116MOL   C25937289   2.686   3.664   5.544  0.2785  0.0688 -0.5171
  116MOL   C26037290   2.539   3.763   5.724  0.2246 -0.4435  0.6440
  116MOL   C26137291   2.412   3.795   5.649  0.1093  0.4028 -0.5862
  116MOL   C26237292   2.284   3.736   5.712 -0.0917 -0.1044 -0.2342
  116MOL   C26337293   2.406   3.877   5.540 -0.6880 -0.4541  0.1095
  116MOL   H26437294   2.513   3.578   5.631  0.2337 -0.4643  0.3785
  116MOL   H26537295   2.776   3.717   5.577  0.6324 -1.7777  1.6793
  116MOL   H26637296   2.630   3.728   5.477 -0.9891  0.3311  0.7716
  116MOL   H26737297   2.714   3.580   5.481  1.2672 -0.0943  0.1174
  116MOL   H26837298   2.501   3.734   5.822  2.6405 -1.6505  1.2478
  116MOL   H26937299   2.255   3.769   5.812 -0.0852 -2.1986  0.4702
  116MOL   H27037300   2.283   3.627   5.712 -0.3425 -0.1083  1.2356
  116MOL   H27137301   2.204   3.767   5.645 -0.9081 -1.9479 -0.1408
  116MOL   H27237302   2.495   3.920   5.496  0.4490 -1.9299  0.8986
  116MOL   H27337303   2.315   3.906   5.491  0.3822  2.3652 -0.2783
  116MOL   C27437304   2.621   3.883   5.761 -0.5856  0.2600  0.2658
  116MOL   C27537305   2.737   3.850   5.858  0.2418  0.2114  0.1383
  116MOL   C27637306   2.557   4.019   5.803  1.0700 -0.0906  0.6641
  116MOL   C27737307   2.641   4.136   5.754 -0.0514  0.0950 -0.0334
  116MOL   C27837308   2.616   4.174   5.610 -0.0138  0.5303  0.4466
  116MOL   C27937309   2.732   4.197   5.834 -0.0737  0.5985  0.0768
  116MOL   H28037310   2.679   3.913   5.674  0.4501 -1.2208  0.4231
  116MOL   H28137311   2.698   3.810   5.952 -1.0119 -2.3748 -1.4261
  116MOL   H28237312   2.798   3.939   5.874 -1.6573  1.5146  0.3530
  116MOL   H28337313   2.814   3.785   5.817  0.9724  0.0794  1.6962
  116MOL   H28437314   2.460   4.031   5.755  1.3469 -0.3112  0.0422
  116MOL   H28537315   2.667   4.111   5.538 -1.7794 -0.0102 -0.3594
  116MOL   H28637316   2.664   4.269   5.587 -0.0515  0.2373 -0.8526
  116MOL   H28737317   2.511   4.183   5.584 -0.6471 -2.8478  1.5431
  116MOL   H28837318   2.746   4.161   5.935 -0.8775 -2.4632 -0.8746
  116MOL   H28937319   2.796   4.274   5.794  1.2647 -1.6943 -2.3511
  116MOL   C29037320   2.518   4.035   5.954 -0.1044 -0.2842 -0.1895
  116MOL   C29137321   2.428   3.918   6.003  0.4685 -0.2783  0.1612
  116MOL   C29237322   2.453   4.177   5.993  0.2706 -0.4431 -0.9997
  116MOL   C29337323   2.493   4.235   6.134  0.4427 -0.8210 -0.0048
  116MOL   C29437324   2.513   4.387   6.126  0.0219  0.3812 -0.4802
  116MOL   C29537325   2.511   4.159   6.244  0.3129 -0.0644  0.6431
  116MOL   H29637326   2.607   4.035   6.017  1.0364 -0.9122 -1.7660
  116MOL   H29737327   2.385   3.939   6.101 -1.3194  1.5918 -0.9725
  116MOL   H29837328   2.473   3.820   6.020 -3.1831 -1.4994  3.5854
  116MOL   H29937329   2.343   3.896   5.938  0.0206  1.6894  0.0649
  116MOL   H30037330   2.500   4.246   5.923  1.5471 -0.9062 -0.6001
  116MOL   H30137331   2.417   4.413   6.080 -0.3552  1.1770  0.7178
  116MOL   H30237332   2.592   4.423   6.060 -1.0208  0.3692 -1.7603
  116MOL   H30337333   2.511   4.433   6.225  4.7436 -0.5684  0.1457
  116MOL   H30437334   2.506   4.051   6.234  2.3287 -0.1821  0.6072
  116MOL   H30537335   2.533   4.213   6.335 -1.9265  2.0532 -0.0299
  116MOL   C30637336   2.297   4.186   5.961  0.0818 -0.8441 -0.2488
  116MOL   C30737337   2.265   4.296   5.857 -0.2437 -0.5174 -0.4567
  116MOL   C30837338   2.204   4.197   6.085  0.3178 -0.1211  0.0882
  116MOL   C30937339   2.054   4.212   6.052  0.1728 -0.1436 -0.2703
  116MOL   C31037340   1.996   4.078   6.004  0.5162 -0.6039  0.6054
  116MOL   C31137341   1.977   4.325   6.071 -0.2539  0.6913  0.3297
  116MOL   H31237342   2.266   4.101   5.900 -1.5213 -1.2437  1.0980
  116MOL   H31337343   2.297   4.395   5.892 -1.0120 -0.8494  1.2310
  116MOL   H31437344   2.156   4.304   5.854 -0.2441 -0.8704 -1.4396
  116MOL   H31537345   2.309   4.262   5.764 -2.1276  1.8420 -2.2976
  116MOL   H31637346   2.211   4.104   6.141  1.1268  0.4016  0.8663
  116MOL   H31737347   2.038   3.995   6.061 -0.4223 -0.7506  1.1011
  116MOL   H31837348   2.028   4.067   5.900 -0.3895 -3.3646  0.5833
  116MOL   H31937349   1.888   4.071   6.018  0.3839  0.3161  0.0946
  116MOL   H32037350   2.015   4.424   6.093  1.7235  0.1883 -0.6992
  116MOL   H32137351   1.870   4.315   6.056 -0.4217  1.2994  1.0848
  116MOL   H32237352   2.223   4.283   6.149 -2.2572 -0.3868  1.2591
  117MOL     C137353   0.783   2.557   2.779  0.2966 -0.5632 -0.2954
  117MOL     C237354   0.815   2.457   2.891 -0.5180  0.0551 -0.0833
  117MOL     C337355   0.906   2.656   2.758  0.1960  0.2331 -0.3606
  117MOL     C437356   0.923   2.748   2.884 -0.3420  0.7094  0.6324
  117MOL     C537357   1.057   2.824   2.898  0.0714  0.5680  0.3714
  117MOL     C637358   0.828   2.774   2.977  0.6234 -0.1954 -0.9183
  117MOL     H737359   0.777   2.500   2.687  2.6259 -0.1975 -0.7007
  117MOL     H837360   0.733   2.386   2.905 -0.1784 -0.0278  1.4808
  117MOL     H937361   0.824   2.513   2.984  1.0919  0.3770 -0.4215
  117MOL    H1037362   0.904   2.395   2.880  0.2011  0.9511  0.6744
  117MOL    H1137363   0.987   2.584   2.747  0.3022 -0.0372  2.0357
  117MOL    H1237364   1.047   2.916   2.842 -0.0535  0.1252 -0.3381
  117MOL    H1337365   1.144   2.768   2.862 -1.6624 -1.9897  0.0071
  117MOL    H1437366   1.079   2.857   2.999 -0.5586  2.1606 -0.0078
  117MOL    H1537367   0.725   2.743   2.976  0.4643  0.1648  1.1678
  117MOL    H1637368   0.839   2.835   3.066 -0.3989 -1.9081  0.3965
  117MOL    H1737369   0.684   2.592   2.807  0.3554 -1.6153  1.3408
  117MOL    C1837370   0.910   2.747   2.624  0.0061  0.7947  0.8516
  117MOL    C1937371   0.774   2.828   2.626  0.1988 -0.0588  0.1581
  117MOL    C2037372   0.931   2.660   2.494  0.5358 -0.0729  0.1741
  117MOL    C2137373   1.066   2.584   2.501  0.1122  0.5787 -0.3772
  117MOL    C2237374   1.195   2.651   2.497 -0.9479  0.2697 -0.1388
  117MOL    C2337375   1.067   2.452   2.522 -0.5114  0.3462 -1.0842
  117MOL    H2437376   0.994   2.815   2.636 -0.2299  1.0355  1.1862
  117MOL    H2537377   0.696   2.783   2.564 -1.2079  0.6186  1.4002
  117MOL    H2637378   0.805   2.921   2.578  1.0750  0.5911  1.9501
  117MOL    H2737379   0.725   2.844   2.722 -0.8186  1.9844 -0.6815
  117MOL    H2837380   0.852   2.585   2.493 -0.2336  0.7336  0.1384
  117MOL    H2937381   1.277   2.581   2.514  0.8013  2.1357 -0.7048
  117MOL    H3037382   1.200   2.730   2.571  1.7093 -0.6415  0.7191
  117MOL    H3137383   1.206   2.688   2.395 -0.1904  1.2743  0.2978
  117MOL    H3237384   0.975   2.396   2.531 -1.0069  1.1400 -1.0715
  117MOL    H3337385   1.159   2.402   2.548 -1.0141 -0.4406 -0.8188
  117MOL    C3437386   0.911   2.735   2.350 -0.0133  0.1321 -0.0471
  117MOL    C3537387   0.974   2.879   2.346  0.1368  0.5484  0.0653
  117MOL    C3637388   0.764   2.724   2.294 -1.0785 -0.0619 -0.2139
  117MOL    C3737389   0.693   2.593   2.297 -0.0054 -0.5743 -0.3141
  117MOL    C3837390   0.539   2.599   2.319 -0.2748 -1.1484 -0.1754
  117MOL    C3937391   0.757   2.473   2.267  0.1399  0.3888  0.1931
  117MOL    H4037392   0.983   2.699   2.277  2.8540 -0.5505  3.0444
  117MOL    H4137393   1.070   2.873   2.398  0.6945  3.1888 -0.5785
  117MOL    H4237394   0.906   2.945   2.399  0.2003  1.0393 -0.4583
  117MOL    H4337395   1.001   2.919   2.248  0.1296  0.7270  0.1356
  117MOL    H4437396   0.704   2.787   2.360 -1.1601 -0.8825  0.5186
  117MOL    H4537397   0.503   2.507   2.366 -1.0135 -0.7908 -0.0382
  117MOL    H4637398   0.492   2.616   2.222  0.2145 -0.5462 -0.3133
  117MOL    H4737399   0.520   2.690   2.375  2.1735 -0.5262 -0.2709
  117MOL    H4837400   0.864   2.464   2.256  0.4153  2.3344  1.1012
  117MOL    H4937401   0.701   2.383   2.246 -1.0996  1.6941 -2.3426
  117MOL    C5037402   0.757   2.785   2.146  0.5654 -0.0221 -1.1048
  117MOL    C5137403   0.875   2.745   2.055 -0.0804 -0.2789 -0.0045
  117MOL    C5237404   0.738   2.945   2.151  0.2498 -0.2158  0.6069
  117MOL    C5337405   0.618   2.992   2.250 -0.3773 -0.8050  0.3519
  117MOL    C5437406   0.652   3.105   2.350  0.6275  0.0294  0.1718
  117MOL    C5537407   0.493   2.944   2.241  0.3305  0.0145  0.1831
  117MOL    H5637408   0.664   2.749   2.102 -0.1438  0.5967 -0.1224
  117MOL    H5737409   0.915   2.650   2.089 -0.2342  0.0680  1.1792
  117MOL    H5837410   0.959   2.815   2.065  0.2894 -0.5162 -1.4011
  117MOL    H5937411   0.852   2.731   1.950  2.0718 -0.3302 -0.4950
  117MOL    H6037412   0.818   2.996   2.205  0.5018  0.5011 -0.4232
  117MOL    H6137413   0.700   3.189   2.300 -0.0448 -0.1347 -0.7616
  117MOL    H6237414   0.722   3.064   2.423  0.4364  0.8437  0.8177
  117MOL    H6337415   0.573   3.148   2.410  1.4585  2.4982 -0.4283
  117MOL    H6437416   0.467   2.859   2.178  1.0896  1.1370 -1.6877
  117MOL    H6537417   0.408   2.974   2.302  0.9807  0.4086  0.9012
  117MOL    C6637418   0.715   3.019   2.005  0.0158 -0.7215  0.2632
  117MOL    C6737419   0.622   2.936   1.907 -0.7352 -0.5220 -0.6313
  117MOL    C6837420   0.846   3.061   1.936  0.1388  0.8627 -0.6130
  117MOL    C6937421   0.945   3.126   2.030 -0.1024  0.1891 -0.1593
  117MOL    C7037422   1.093   3.087   1.991  0.0396  0.0683 -0.1402
  117MOL    C7137423   0.923   3.232   2.108  0.3321 -0.1888 -0.2565
  117MOL    H7237424   0.659   3.110   2.025 -2.1427 -1.5643 -1.5945
  117MOL    H7337425   0.545   2.882   1.962 -0.2276 -1.3389 -0.7141
  117MOL    H7437426   0.677   2.861   1.851 -0.9531 -2.0375  1.1472
  117MOL    H7537427   0.581   3.008   1.836 -0.0545  2.1655  1.6030
  117MOL    H7637428   0.885   2.961   1.915 -1.5344  0.9511 -4.6499
  117MOL    H7737429   1.165   3.127   2.062 -0.9620 -0.7467  1.3671
  117MOL    H7837430   1.112   3.132   1.894 -1.5253 -1.5099 -1.2254
  117MOL    H7937431   1.118   2.981   1.997 -2.1484 -0.4886 -0.1938
  117MOL    H8037432   0.819   3.260   2.119  0.5119 -0.4720  2.3719
  117MOL    H8137433   1.005   3.284   2.153 -0.2520  0.0350  0.5576
  117MOL    C8237434   0.831   3.140   1.797 -0.0614  0.4568  0.1066
  117MOL    C8337435   0.723   3.249   1.802  0.0622  0.1378 -0.2638
  117MOL    C8437436   0.822   3.053   1.668 -0.3260 -0.3636  0.3479
  117MOL    C8537437   0.922   2.935   1.645  0.1032  0.2981  0.4660
  117MOL    C8637438   1.065   2.967   1.615 -1.3715 -0.4922  0.2197
  117MOL    C8737439   0.884   2.802   1.649 -0.4466  0.0940  0.2087
  117MOL    H8837440   0.921   3.201   1.792  0.1221  0.3715  2.1045
  117MOL    H8937441   0.623   3.206   1.795  1.1248 -2.4140 -0.3918
  117MOL    H9037442   0.740   3.321   1.722  2.2068  2.5887  2.2843
  117MOL    H9137443   0.732   3.302   1.897 -0.2349 -1.4483  0.6687
  117MOL    H9237444   0.732   2.994   1.687 -0.5359  0.8515  3.4403
  117MOL    H9337445   1.134   2.884   1.630 -2.0378 -1.0608  0.1807
  117MOL    H9437446   1.110   3.056   1.659  1.3057 -1.6203 -0.1266
  117MOL    H9537447   1.063   2.988   1.508  1.5472 -2.3644 -0.2482
  117MOL    H9637448   0.783   2.764   1.661 -0.8230  0.6149 -1.1952
  117MOL    H9737449   0.959   2.726   1.635 -0.7939  0.0236 -1.3048
  117MOL    C9837450   0.804   3.126   1.526  0.9219 -0.8798 -0.8260
  117MOL    C9937451   0.897   3.249   1.508  0.4287  0.0926 -0.2994
  117MOL   C10037452   0.650   3.136   1.479  0.8177  0.1612  0.0350
  117MOL   C10137453   0.559   3.011   1.493 -0.1786 -0.3186 -0.0337
  117MOL   C10237454   0.417   3.032   1.537  0.3145  0.0301  0.1587
  117MOL   C10337455   0.609   2.882   1.475  0.2262 -0.3534 -0.5724
  117MOL   H10437456   0.851   3.062   1.452  2.0010 -0.4487 -0.5244
  117MOL   H10537457   0.901   3.278   1.403  1.9810  0.7603 -0.0648
  117MOL   H10637458   1.003   3.237   1.530  0.1924  0.6225  1.1560
  117MOL   H10737459   0.853   3.342   1.546 -0.9003 -0.3738 -0.6723
  117MOL   H10837460   0.610   3.205   1.554  0.5757  1.3920 -1.2029
  117MOL   H10937461   0.418   3.101   1.621 -1.5861 -0.0362  0.2596
  117MOL   H11037462   0.368   2.943   1.576 -0.1896 -0.2799 -1.1588
  117MOL   H11137463   0.355   3.075   1.459 -2.6881 -0.9846  1.9124
  117MOL   H11237464   0.714   2.865   1.452  1.0483  0.2289  2.4417
  117MOL   H11337465   0.537   2.802   1.479 -0.6492  0.4223 -0.6827
  117MOL   C11437466   0.629   3.189   1.333 -0.4250 -0.0160  0.1002
  117MOL   C11537467   0.709   3.121   1.228  0.4559  0.0476 -0.1557
  117MOL   C11637468   0.626   3.349   1.317  0.0329 -0.0466  0.1717
  117MOL   C11737469   0.553   3.428   1.423 -0.1910 -0.2190 -0.2257
  117MOL   C11837470   0.601   3.566   1.466 -0.5868 -0.3049 -0.2291
  117MOL   C11937471   0.444   3.377   1.489 -0.2319 -0.2778 -0.2126
  117MOL   H12037472   0.527   3.157   1.310  0.0620 -1.3584 -0.2131
  117MOL   H12137473   0.727   3.015   1.245 -2.5354 -0.5794 -0.6289
  117MOL   H12237474   0.802   3.174   1.206  0.4578 -0.4301 -1.3904
  117MOL   H12337475   0.648   3.118   1.137 -0.4869  1.9420  0.3879
  117MOL   H12437476   0.731   3.378   1.325  0.7714 -2.8388  1.2839
  117MOL   H12537477   0.705   3.552   1.498 -0.7940  0.9495  1.0825
  117MOL   H12637478   0.546   3.624   1.541  0.1913  1.5833 -1.0995
  117MOL   H12737479   0.589   3.618   1.372 -0.2702 -3.1797 -1.9114
  117MOL   H12837480   0.405   3.281   1.459 -0.7516  0.0582 -0.6505
  117MOL   H12937481   0.391   3.426   1.569  0.7352  1.2129 -0.4692
  117MOL   C13037482   0.587   3.419   1.182 -0.4348  0.9096  0.4133
  117MOL   C13137483   0.467   3.333   1.128 -0.1968  0.0632  0.0368
  117MOL   C13237484   0.694   3.440   1.075  0.4716  0.6672 -0.4423
  117MOL   C13337485   0.819   3.515   1.133 -0.0884 -0.0394 -0.2688
  117MOL   C13437486   0.809   3.664   1.153  0.4670  0.1732 -0.1833
  117MOL   C13537487   0.936   3.451   1.167 -0.2974 -0.3015 -0.3731
  117MOL   H13637488   0.555   3.521   1.202  1.5839  1.8809 -1.1243
  117MOL   H13737489   0.385   3.398   1.096 -0.3845 -0.2396 -0.0969
  117MOL   H13837490   0.414   3.283   1.208 -0.6932  1.7044  0.7677
  117MOL   H13937491   0.502   3.257   1.059  2.0379  1.6210 -0.6349
  117MOL   H14037492   0.730   3.338   1.060  1.5820  0.9498  0.2525
  117MOL   H14137493   0.766   3.710   1.064 -0.8102 -1.2303 -0.3108
  117MOL   H14237494   0.906   3.715   1.151  0.3199  0.4642 -0.0083
  117MOL   H14337495   0.748   3.693   1.239  0.2343 -0.7864 -0.0203
  117MOL   H14437496   0.938   3.343   1.164 -2.3763 -0.3306 -3.4498
  117MOL   H14537497   1.024   3.505   1.196 -0.8899  0.2782  0.3749
  117MOL   C14637498   0.653   3.492   0.932 -0.0336 -1.1810  0.0324
  117MOL   C14737499   0.535   3.597   0.939 -0.3666 -0.2567 -0.1365
  117MOL   C14837500   0.628   3.379   0.824 -0.1747 -0.3142 -0.1593
  117MOL   C14937501   0.740   3.267   0.832  0.2735  0.5445  1.3185
  117MOL   C15037502   0.879   3.309   0.792 -0.0617 -0.5965  0.5965
  117MOL   C15137503   0.714   3.143   0.880  0.3367  0.2347 -0.1377
  117MOL   H15237504   0.735   3.549   0.887 -0.5268 -1.6782 -1.5438
  117MOL   H15337505   0.541   3.670   0.858  1.5676 -0.2977 -0.0660
  117MOL   H15437506   0.557   3.659   1.026 -0.4193  1.1354 -1.0915
  117MOL   H15537507   0.437   3.554   0.960  0.4956 -1.8908  0.6048
  117MOL   H15637508   0.532   3.335   0.851  0.4035 -1.2814  0.3632
  117MOL   H15737509   0.882   3.326   0.685 -0.5260 -1.6693  0.4048
  117MOL   H15837510   0.952   3.230   0.811 -0.6215 -0.9120  1.5088
  117MOL   H15937511   0.911   3.400   0.842  1.4507  0.1755 -1.7169
  117MOL   H16037512   0.612   3.116   0.904  0.7141  0.7000  2.1337
  117MOL   H16137513   0.793   3.072   0.902 -0.6797 -0.8466  0.0873
  117MOL   C16237514   0.597   3.424   0.679  0.0343  0.5363 -0.4223
  117MOL   C16337515   0.697   3.534   0.626 -0.1834  0.0975  0.3748
  117MOL   C16437516   0.445   3.456   0.653  0.1630 -0.1267  0.2789
  117MOL   C16537517   0.338   3.368   0.711 -0.1403  0.0456 -0.0633
  117MOL   C16637518   0.340   3.217   0.683 -0.5614 -0.4085 -0.0094
  117MOL   C16737519   0.237   3.424   0.774  0.0724 -0.1674  0.0697
  117MOL   H16837520   0.616   3.338   0.615 -1.8002  0.1783 -0.5057
  117MOL   H16937521   0.803   3.518   0.643 -0.1744 -1.6174 -1.1327
  117MOL   H17037522   0.669   3.625   0.677  0.7266  1.0846 -0.8524
  117MOL   H17137523   0.684   3.542   0.518 -0.3125  0.9878  0.4514
  117MOL   H17237524   0.436   3.552   0.704 -0.3945 -0.5118  0.9149
  117MOL   H17337525   0.317   3.189   0.580  1.1197 -0.2359 -0.4468
  117MOL   H17437526   0.273   3.165   0.751 -1.2295 -0.3522 -0.6126
  117MOL   H17537527   0.441   3.182   0.703 -0.3791 -0.5631 -1.1735
  117MOL   H17637528   0.234   3.531   0.792 -0.0026  0.2818 -2.4095
  117MOL   H17737529   0.149   3.368   0.802  0.6332 -1.0725  0.0420
  117MOL   C17837530   0.411   3.491   0.505 -0.2153  0.5302  0.0948
  117MOL   C17937531   0.487   3.388   0.408 -0.2942  0.3377  0.2288
  117MOL   C18037532   0.421   3.640   0.457  0.5044 -0.0430  0.7914
  117MOL   C18137533   0.373   3.743   0.558  0.4054 -0.7248  0.8090
  117MOL   C18237534   0.227   3.747   0.583  0.2707  0.6761  0.7589
  117MOL   C18337535   0.455   3.834   0.616  0.1673 -0.0453 -0.0544
  117MOL   H18437536   0.304   3.471   0.497  0.0609 -0.5326 -1.1568
  117MOL   H18537537   0.592   3.413   0.390 -0.3544  0.6107  0.2553
  117MOL   H18637538   0.442   3.395   0.309 -1.5163 -0.2313  0.7329
  117MOL   H18737539   0.484   3.287   0.448 -1.0714  0.4604  0.4928
  117MOL   H18837540   0.527   3.657   0.444  0.2617  2.2082  1.4805
  117MOL   H18937541   0.195   3.643   0.584  1.2727  0.3384 -0.3285
  117MOL   H19037542   0.166   3.801   0.510 -1.0318 -3.2490 -1.1652
  117MOL   H19137543   0.207   3.789   0.681  0.5597  1.6568  0.4092
  117MOL   H19237544   0.560   3.832   0.590  0.7529 -0.2907  2.2268
  117MOL   H19337545   0.418   3.916   0.677 -0.4018  1.0888 -1.8911
  117MOL   C19437546   0.354   3.664   0.316 -1.1926  0.7575  0.3409
  117MOL   C19537547   0.222   3.580   0.301  0.3699  0.1405 -0.1613
  117MOL   C19637548   0.452   3.667   0.193 -0.3789  0.3622  0.4365
  117MOL   C19737549   0.592   3.733   0.220 -0.0286  0.7049  0.7861
  117MOL   C19837550   0.598   3.885   0.246  0.5589  0.2335  0.4532
  117MOL   C19937551   0.701   3.658   0.204 -0.2361  0.1147 -0.1400
  117MOL   H20037552   0.307   3.762   0.329  0.5103  1.3063  2.6095
  117MOL   H20137553   0.139   3.596   0.370 -0.0115  0.6394 -0.7335
  117MOL   H20237554   0.252   3.476   0.289  0.1609 -0.1176  1.3312
  117MOL   H20337555   0.171   3.593   0.206 -0.2476 -0.8484  0.0164
  117MOL   H20437556   0.471   3.560   0.188  0.2055  0.4465  0.7737
  117MOL   H20537557   0.551   3.939   0.164  2.1613 -1.9244 -1.9747
  117MOL   H20637558   0.703   3.913   0.258  0.5807  0.8796 -1.0686
  117MOL   H20737559   0.551   3.902   0.343  0.4543  0.4565  0.3631
  117MOL   H20837560   0.695   3.553   0.181  1.8696 -0.0122 -0.2907
  117MOL   H20937561   0.805   3.684   0.219 -0.0210  0.1300 -1.5658
  117MOL   C21037562   0.403   3.711   0.045 -0.5271  0.1221  0.2248
  117MOL   C21137563   0.289   3.815   0.057 -0.4425 -0.2482  0.5085
  117MOL   C21237564   0.364   3.591   7.845 -0.1205  0.4393  0.1589
  117MOL   C21337565   0.477   3.497   7.825  0.3752  0.1589  0.5071
  117MOL   C21437566   0.436   3.352   7.829  0.0405 -0.6577 -0.3143
  117MOL   C21537567   0.607   3.534   7.805 -0.8077 -0.5072  0.2480
  117MOL   H21637568   0.481   3.774   0.001  1.3645 -2.5848 -0.4050
  117MOL   H21737569   0.328   3.898   0.115 -0.2818 -1.4601  2.1655
  117MOL   H21837570   0.199   3.794   0.115 -0.4394  1.2717  1.0954
  117MOL   H21937571   0.251   3.860   7.858 -0.2236 -2.2494 -0.6007
  117MOL   H22037572   0.305   3.524   0.016 -0.3275 -0.6523 -1.1732
  117MOL   H22137573   0.418   3.331   0.042 -1.3435  1.1004 -0.1755
  117MOL   H22237574   0.504   3.280   7.783 -1.6890 -1.8964 -0.9921
  117MOL   H22337575   0.340   3.337   7.779  0.1782  0.7118 -0.9946
  117MOL   H22437576   0.643   3.635   7.791  2.0868 -1.4466  0.5645
  117MOL   H22537577   0.684   3.459   7.797 -1.4440 -1.0625 -0.7283
  117MOL   C22637578   0.293   3.630   7.713  0.1484 -0.7958  0.5615
  117MOL   C22737579   0.375   3.749   7.653 -0.0844 -0.1431 -0.1742
  117MOL   C22837580   0.140   3.666   7.703  0.2631  0.2467 -0.6228
  117MOL   C22937581   0.066   3.598   7.819 -0.3562 -0.3293  0.1624
  117MOL   C23037582   7.857   3.671   0.012  0.1766 -0.1108 -0.9852
  117MOL   C23137583   0.072   3.468   7.833 -0.9140  0.2678 -0.1324
  117MOL   H23237584   0.314   3.551   7.641  0.1280  0.7326 -1.1478
  117MOL   H23337585   0.356   3.785   7.552 -0.1525 -1.3863 -0.6187
  117MOL   H23437586   0.482   3.729   7.659  0.1607  1.5660  1.4026
  117MOL   H23537587   0.364   3.842   7.708 -1.3509  0.2370 -1.0583
  117MOL   H23637588   0.120   3.772   7.721 -0.7736  0.0595 -0.6310
  117MOL   H23737589   7.757   3.685   7.864  0.5119  1.1265 -1.4125
  117MOL   H23837590   0.001   3.773   0.030  0.0654 -0.3618  0.7207
  117MOL   H23937591   7.847   3.624   0.110  2.4955  1.2133 -0.0659
  117MOL   H24037592   0.132   3.408   7.766 -0.3763  1.6955 -0.9587
  117MOL   H24137593   0.024   3.416   0.022  0.6304  0.2859  0.8204
  117MOL   C24237594   0.073   3.636   7.558  0.1594  0.0436  0.2980
  117MOL   C24337595   0.160   3.667   7.429 -0.6749  0.3718 -0.0092
  117MOL   C24437596   7.824   3.683   7.537 -0.2033 -0.1497 -0.5159
  117MOL   C24537597   7.743   3.572   7.472  0.9566  0.1297 -0.1519
  117MOL   C24637598   7.672   3.470   7.560  0.0421  0.9570 -0.6833
  117MOL   C24737599   7.724   3.560   7.339  0.7857 -0.3515  0.4441
  117MOL   H24837600   0.072   3.527   7.550  2.1377 -0.0319  0.6587
  117MOL   H24937601   0.113   3.636   7.336  0.2829 -0.8430 -0.1002
  117MOL   H25037602   0.252   3.608   7.431 -1.1950 -0.4306  0.6995
  117MOL   H25137603   0.183   3.772   7.410 -4.4439  1.1949 -0.4200
  117MOL   H25237604   7.776   3.693   7.634  2.0660  0.0585  0.6234
  117MOL   H25337605   7.748   3.423   7.622 -1.4301 -0.0716  0.3773
  117MOL   H25437606   7.609   3.400   7.506 -0.9928  1.3339  0.0094
  117MOL   H25537607   7.601   3.522   7.625  0.2854  0.4514 -0.0154
  117MOL   H25637608   7.768   3.637   7.277  0.8958 -0.9523 -0.2335
  117MOL   H25737609   7.670   3.484   7.284  1.8353 -0.6170 -0.2377
  117MOL   C25837610   7.791   3.825   7.472  0.5182 -0.2588 -1.0803
  117MOL   C25937611   7.883   3.940   7.523  1.1191 -0.5548  0.2767
  117MOL   C26037612   7.638   3.869   7.465  0.4520 -0.1709 -0.3596
  117MOL   C26137613   7.604   3.932   7.331  0.5685 -0.1616 -0.0797
  117MOL   C26237614   7.674   4.062   7.286 -0.6664 -0.6906  0.3903
  117MOL   C26337615   7.525   3.869   7.239 -0.5119 -0.3769 -0.7963
  117MOL   H26437616   7.824   3.820   7.368 -0.3251  1.3678 -1.4493
  117MOL   H26537617   7.863   3.953   7.629 -1.7195  0.1669 -0.3041
  117MOL   H26637618   7.869   4.041   7.485 -0.9753 -1.4202 -1.3581
  117MOL   H26737619   0.096   3.913   7.533  0.8816 -1.8711 -0.5178
  117MOL   H26837620   7.584   3.774   7.465 -1.4459  0.8698  2.1155
  117MOL   H26937621   7.782   4.056   7.280 -0.8238 -1.9258 -1.4566
  117MOL   H27037622   7.659   4.147   7.353  1.1081 -1.6835  2.1073
  117MOL   H27137623   7.633   4.099   7.192  2.3346 -0.9274 -1.0386
  117MOL   H27237624   7.484   3.772   7.263 -2.2033  0.6456  0.5916
  117MOL   H27337625   7.493   3.920   7.150  0.9118 -0.5420 -1.4108
  117MOL   C27437626   7.573   3.960   7.579 -0.4368  0.2549  0.9788
  117MOL   C27537627   7.597   3.898   7.719 -0.1717 -0.8614  1.0975
  117MOL   C27637628   7.429   4.008   7.566  0.3717  0.2710  0.4237
  117MOL   C27737629   7.416   4.159   7.591  0.1607  0.5047 -0.0447
  117MOL   C27837630   7.442   4.224   7.728  0.6721 -0.2145  0.2663
  117MOL   C27937631   7.393   4.244   7.486  0.1297  0.4429  0.5298
  117MOL   H28037632   7.633   4.051   7.586 -1.0377  0.7408 -0.1942
  117MOL   H28137633   7.704   3.884   7.731  0.6802  2.9808 -0.9147
  117MOL   H28237634   7.550   3.800   7.732 -1.1355 -0.4298  0.9461
  117MOL   H28337635   7.564   3.972   7.792  0.9962  2.1256 -1.2569
  117MOL   H28437636   7.400   3.999   7.461 -1.3238 -2.1097  1.0571
  117MOL   H28537637   7.380   4.165   7.796 -1.5534  0.0655 -1.4421
  117MOL   H28637638   7.403   4.325   7.721 -0.8422 -0.8444 -0.7967
  117MOL   H28737639   7.547   4.214   7.755  0.8626 -1.1426 -0.7355
  117MOL   H28837640   7.376   4.207   7.386 -0.4388 -0.0661  0.8050
  117MOL   H28937641   7.388   4.352   7.489 -0.2943  0.4034  1.9360
  117MOL   C29037642   7.305   3.931   7.627  0.2769  0.1634  0.1098
  117MOL   C29137643   7.300   3.781   7.599 -0.4659  0.6882  0.6528
  117MOL   C29237644   7.165   3.997   7.583 -0.1923 -0.6532 -0.5344
  117MOL   C29337645   7.071   4.008   7.708  0.4466 -0.6616  0.2245
  117MOL   C29437646   7.005   3.879   7.754  0.2134  0.4894  0.4770
  117MOL   C29537647   7.024   4.122   7.755 -0.4825 -1.3816  0.5937
  117MOL   H29637648   7.313   3.938   7.735  1.1206  0.1716  0.0498
  117MOL   H29737649   7.366   3.723   7.665  2.1616 -0.0651 -2.5130
  117MOL   H29837650   7.340   3.766   7.499  1.2881  0.9704  1.2849
  117MOL   H29937651   7.200   3.738   7.606  0.0851 -0.7794 -0.1659
  117MOL   H30037652   7.177   4.105   7.569 -1.9503 -0.3992 -0.2698
  117MOL   H30137653   6.922   3.901   7.822 -0.1094  1.2364 -0.1511
  117MOL   H30237654   7.071   3.811   7.807 -1.1049  0.1852  1.7755
  117MOL   H30337655   6.969   3.825   7.667  1.2084  0.3289  0.1602
  117MOL   H30437656   7.072   4.210   7.714 -3.9183  1.3249  2.0835
  117MOL   H30537657   6.943   4.145   7.822 -1.8492 -1.5026 -0.9768
  117MOL   C30637658   7.091   3.955   7.455  0.1084 -1.0922 -0.4730
  117MOL   C30737659   7.167   3.997   7.330 -0.7704  0.1871  0.7130
  117MOL   C30837660   6.942   4.007   7.441  0.1820  0.4202 -0.5301
  117MOL   C30937661   6.864   3.944   7.327 -0.9119 -0.4783 -0.6987
  117MOL   C31037662   6.836   4.048   7.216 -1.5508 -0.2736  0.1048
  117MOL   C31137663   6.828   3.817   7.315 -0.0375  0.5583  0.5132
  117MOL   H31237664   7.093   3.847   7.443  1.2166 -0.9019 -2.1499
  117MOL   H31337665   7.256   3.939   7.306 -1.5354 -0.4170 -0.6868
  117MOL   H31437666   7.205   4.098   7.342 -0.1855  0.3293 -2.0587
  117MOL   H31537667   7.107   4.004   7.239 -0.8773 -0.0575  0.7649
  117MOL   H31637668   6.877   3.979   7.524 -0.6447  0.3454 -1.1909
  117MOL   H31737669   6.740   4.099   7.218 -1.0405  0.7975 -1.6993
  117MOL   H31837670   6.841   3.993   7.122  0.5388  1.1212 -0.6642
  117MOL   H31937671   6.922   4.115   7.206 -1.7075  0.0499  0.8585
  117MOL   H32037672   6.850   3.736   7.383 -1.0771  0.3717  0.6245
  117MOL   H32137673   6.764   3.799   7.229  0.8350  1.7233 -0.4005
  117MOL   H32237674   6.934   4.115   7.454  2.3875  0.5304  0.0142
  118MOL     C137675   5.882   1.195   4.066  0.0381  0.3506  0.0519
  118MOL     C237676   5.890   1.269   4.198  0.0277  0.0765 -0.3028
  118MOL     C337677   5.756   1.100   4.058 -0.4372  0.2813  1.1885
  118MOL     C437678   5.777   0.955   4.106 -0.5759 -0.3516 -0.1912
  118MOL     C537679   5.648   0.874   4.124 -0.2397  0.3571 -0.4721
  118MOL     C637680   5.896   0.901   4.155  0.3329  0.1088 -0.5404
  118MOL     H737681   5.875   1.276   3.993 -0.7915  1.2156  1.0805
  118MOL     H837682   5.976   1.336   4.207  0.8204 -0.5069 -3.0154
  118MOL     H937683   5.882   1.206   4.286  1.2388  1.6871  0.9924
  118MOL    H1037684   5.802   1.332   4.208 -0.6035 -1.0547  1.4201
  118MOL    H1137685   5.677   1.147   4.117 -0.4092  1.1324  0.5576
  118MOL    H1237686   5.665   0.776   4.169 -0.4420  0.3669 -0.3730
  118MOL    H1337687   5.614   0.856   4.022 -0.9000  1.3097 -0.4258
  118MOL    H1437688   5.570   0.928   4.178  0.8344  1.3992  0.0639
  118MOL    H1537689   5.991   0.951   4.164  0.4172 -0.2478  0.5476
  118MOL    H1637690   5.918   0.802   4.190  0.1741 -0.0067 -0.7659
  118MOL    H1737691   5.976   1.145   4.044 -0.0677  0.3850 -0.4846
  118MOL    C1837692   5.696   1.099   3.905  0.0829  0.2036 -0.2271
  118MOL    C1937693   5.805   1.031   3.810  0.1241  0.0713  0.1152
  118MOL    C2037694   5.646   1.239   3.853  0.4728  0.3235  1.1608
  118MOL    C2137695   5.572   1.318   3.965  0.2369 -0.0189  0.0072
  118MOL    C2237696   5.446   1.257   4.022  0.1602 -0.6301 -0.0473
  118MOL    C2337697   5.629   1.425   4.028  0.2213  0.1059 -0.1930
  118MOL    H2437698   5.603   1.042   3.906 -0.8260  1.6567  0.2075
  118MOL    H2537699   5.848   0.941   3.855 -0.7865 -0.7008 -0.5403
  118MOL    H2637700   5.883   1.104   3.790 -2.2709  2.6535 -0.0456
  118MOL    H2737701   5.768   0.990   3.716  1.4196  0.6712 -0.6834
  118MOL    H2837702   5.737   1.296   3.837  0.9771 -0.7432  0.1511
  118MOL    H2937703   5.357   1.266   3.960 -0.7526  0.3470  1.3876
  118MOL    H3037704   5.415   1.293   4.120 -1.3856 -0.0918 -0.7296
  118MOL    H3137705   5.456   1.149   4.035  1.1447 -0.4713  0.5647
  118MOL    H3237706   5.725   1.468   4.001 -0.6122  2.7102  0.8290
  118MOL    H3337707   5.584   1.483   4.107 -0.5547  0.5161 -0.9353
  118MOL    C3437708   5.571   1.241   3.710 -0.3801  0.1805  0.1222
  118MOL    C3537709   5.488   1.107   3.692 -0.6732 -0.5909 -0.9905
  118MOL    C3637710   5.681   1.271   3.597 -0.2811 -0.2494 -0.3038
  118MOL    C3737711   5.761   1.400   3.630  0.5233  0.7946  0.1155
  118MOL    C3837712   5.903   1.410   3.578 -0.5732 -0.4352 -0.0342
  118MOL    C3937713   5.697   1.510   3.673 -0.2395 -0.3713 -0.5909
  118MOL    H4037714   5.499   1.322   3.716  1.0776  1.4770  0.5564
  118MOL    H4137715   5.424   1.108   3.604 -0.3226 -3.3800 -1.3226
  118MOL    H4237716   5.431   1.070   3.777 -0.7518 -0.5647 -1.0312
  118MOL    H4337717   5.561   1.029   3.670  0.4056 -0.7428  2.8546
  118MOL    H4437718   5.756   1.193   3.608  0.1819  0.2723  0.2150
  118MOL    H4537719   5.965   1.327   3.612  1.4736  1.5562  1.2073
  118MOL    H4637720   5.953   1.504   3.603 -1.3808  0.0822 -0.3290
  118MOL    H4737721   5.890   1.416   3.469  1.6007 -0.0331 -0.2911
  118MOL    H4837722   5.596   1.521   3.708  0.0913 -0.9248  0.5619
  118MOL    H4937723   5.752   1.603   3.676  1.3341 -1.3184  0.9937
  118MOL    C5037724   5.636   1.268   3.447  0.1719 -0.5023 -0.0502
  118MOL    C5137725   5.519   1.370   3.414 -0.6487  0.2926  0.1295
  118MOL    C5237726   5.623   1.128   3.386  0.4726 -0.2044  0.7178
  118MOL    C5337727   5.751   1.038   3.401  1.0334 -0.3371  0.2947
  118MOL    C5437728   5.730   0.889   3.398 -0.2195  0.0209  0.0798
  118MOL    C5537729   5.876   1.087   3.394  0.2720 -0.3647 -0.4578
  118MOL    H5637730   5.711   1.323   3.390  0.4360  0.7172  1.4442
  118MOL    H5737731   5.492   1.389   3.310 -0.8193 -3.1245 -0.5128
  118MOL    H5837732   5.548   1.467   3.456 -0.0602  1.1232 -2.0891
  118MOL    H5937733   5.431   1.351   3.475 -1.4477  1.3762 -0.6621
  118MOL    H6037734   5.556   1.070   3.449  0.8833 -0.1604  1.1935
  118MOL    H6137735   5.645   0.857   3.458  0.1852 -1.4647 -0.1198
  118MOL    H6237736   5.810   0.827   3.440  1.3383  2.0148  0.1381
  118MOL    H6337737   5.705   0.848   3.301  0.3580 -1.3026  0.4773
  118MOL    H6437738   5.905   1.190   3.379  1.8816 -0.7023  0.1760
  118MOL    H6537739   5.954   1.013   3.382  0.3384 -0.3072 -0.3897
  118MOL    C6637740   5.582   1.121   3.236 -0.0861  0.0478  0.4497
  118MOL    C6737741   5.667   1.204   3.134  0.4797 -0.1636 -0.1805
  118MOL    C6837742   5.427   1.132   3.207 -0.0200  0.1115 -0.1841
  118MOL    C6937743   5.343   1.064   3.310  0.3540 -0.1698 -0.0971
  118MOL    C7037744   5.344   0.913   3.312 -0.3335 -0.2157  0.6581
  118MOL    C7137745   5.254   1.136   3.384  0.2080 -0.0769 -0.5965
  118MOL    H7237746   5.611   1.020   3.207  0.6173 -0.1986  1.9852
  118MOL    H7337747   5.774   1.192   3.155  0.4661 -0.9317 -0.5694
  118MOL    H7437748   5.645   1.310   3.149  0.5750 -0.0160 -1.0350
  118MOL    H7537749   5.665   1.169   3.031 -1.6252 -0.7078  0.0446
  118MOL    H7637750   5.397   1.236   3.220 -0.8797 -0.3334  1.5788
  118MOL    H7737751   5.446   0.878   3.324 -0.0836  0.8049  1.6323
  118MOL    H7837752   5.301   0.865   3.224  0.4003  0.4885 -0.0959
  118MOL    H7937753   5.278   0.879   3.392 -0.7500 -1.2582 -0.1202
  118MOL    H8037754   5.244   1.243   3.376 -0.8414  0.0961  2.3133
  118MOL    H8137755   5.183   1.090   3.452 -0.2707 -0.1598 -1.1505
  118MOL    C8237756   5.378   1.087   3.069  0.4202  0.7074 -0.5311
  118MOL    C8337757   5.445   0.956   3.012 -0.4717 -0.1175 -0.4330
  118MOL    C8437758   5.372   1.207   2.967 -0.1859  0.0827 -0.2498
  118MOL    C8537759   5.311   1.340   3.017  0.0613 -0.6645 -0.1432
  118MOL    C8637760   5.384   1.471   2.977 -0.2093  0.3606  0.0678
  118MOL    C8737761   5.196   1.347   3.090 -0.4887 -0.1738  0.3105
  118MOL    H8837762   5.274   1.059   3.085  0.3915  1.5017  0.7693
  118MOL    H8937763   5.374   0.903   2.947  0.9392  1.1283 -3.0879
  118MOL    H9037764   5.470   0.892   3.096 -2.6743  0.6919  0.8711
  118MOL    H9137765   5.541   0.961   2.961  0.5581 -1.8788  1.2573
  118MOL    H9237766   5.477   1.235   2.954 -0.0663 -0.6587 -0.8891
  118MOL    H9337767   5.391   1.486   2.870  0.8155  1.2656  0.2557
  118MOL    H9437768   5.486   1.464   3.016 -0.0008  1.3621 -0.2804
  118MOL    H9537769   5.330   1.562   3.003 -2.5809 -1.1826  0.7753
  118MOL    H9637770   5.145   1.256   3.119  0.0714 -0.3873  0.6438
  118MOL    H9737771   5.144   1.436   3.122 -0.8076 -1.3330  3.1746
  118MOL    C9837772   5.310   1.171   2.825 -0.6232  0.5703  0.3081
  118MOL    C9937773   5.161   1.129   2.835  0.8403 -0.0496  0.2193
  118MOL   C10037774   5.389   1.083   2.718 -0.3705  0.0903 -0.2589
  118MOL   C10137775   5.542   1.107   2.715  0.6212 -0.3378 -0.3690
  118MOL   C10237776   5.594   1.247   2.681 -0.2057 -0.2399 -0.3879
  118MOL   C10337777   5.631   1.000   2.721 -0.0818  0.2552  0.1339
  118MOL   H10437778   5.307   1.266   2.772 -2.5009  0.2935 -0.1017
  118MOL   H10537779   5.128   1.099   2.934  0.6525 -0.2183  0.1064
  118MOL   H10637780   5.166   1.035   2.780  1.0938 -0.5810  1.1468
  118MOL   H10737781   5.082   1.196   2.801  0.8736 -0.0550  0.1331
  118MOL   H10837782   5.364   0.981   2.747 -2.0438  0.7643  0.7395
  118MOL   H10937783   5.528   1.308   2.620 -3.1047  0.6908  3.5422
  118MOL   H11037784   5.693   1.241   2.635 -0.2664 -0.5382 -0.4809
  118MOL   H11137785   5.623   1.308   2.766  1.7639  0.8850 -1.8146
  118MOL   H11237786   5.586   0.902   2.727 -1.9603  1.0381 -0.6699
  118MOL   H11337787   5.739   1.001   2.714  0.1664 -1.5736  2.9281
  118MOL   C11437788   5.326   1.088   2.573  0.3158 -0.6954  0.8074
  118MOL   C11537789   5.191   1.150   2.539 -0.2653  0.5072  0.3891
  118MOL   C11637790   5.361   0.961   2.484  0.3600 -0.4421 -0.8651
  118MOL   C11737791   5.419   1.004   2.350 -0.1180  0.2407  0.0859
  118MOL   C11837792   5.576   0.986   2.339 -0.4259 -0.4039 -0.1203
  118MOL   C11937793   5.336   1.033   2.244 -0.5788  0.3056 -0.0753
  118MOL   H12037794   5.398   1.158   2.531  1.5179 -1.5758  1.3741
  118MOL   H12137795   5.175   1.242   2.596 -3.8837 -0.1763  0.5732
  118MOL   H12237796   5.105   1.085   2.548  0.9137 -1.2685 -0.9509
  118MOL   H12337797   5.187   1.176   2.434 -0.8735 -0.0171  0.2834
  118MOL   H12437798   5.441   0.912   2.538 -0.8372 -2.2175 -0.6714
  118MOL   H12537799   5.629   1.039   2.417 -2.6207  0.8841  0.5284
  118MOL   H12637800   5.617   1.030   2.249 -2.5495  0.2327 -0.8233
  118MOL   H12737801   5.602   0.881   2.355 -0.5987 -0.6168 -1.1867
  118MOL   H12837802   5.230   1.049   2.251 -0.5524  0.5339 -0.1870
  118MOL   H12937803   5.388   1.053   2.151  2.7689 -2.4286  1.1094
  118MOL   C13037804   5.250   0.847   2.461  0.6455  0.0322 -0.1046
  118MOL   C13137805   5.165   0.806   2.588 -0.0110  0.0963 -0.6000
  118MOL   C13237806   5.299   0.714   2.382 -0.4047  0.0488  0.0377
  118MOL   C13337807   5.183   0.657   2.293  0.2421 -0.5512 -0.0750
  118MOL   C13437808   5.158   0.723   2.164 -0.1383  0.5631 -0.3519
  118MOL   C13537809   5.096   0.571   2.338 -0.1557  0.0818 -0.7776
  118MOL   H13637810   5.176   0.905   2.405 -1.4000 -1.8501  0.5888
  118MOL   H13737811   5.065   0.851   2.587  0.2540  0.7471  1.3429
  118MOL   H13837812   5.207   0.827   2.686 -1.2042 -1.6979  0.3340
  118MOL   H13937813   5.150   0.698   2.594 -1.1803  0.2084 -1.1309
  118MOL   H14037814   5.372   0.747   2.308  2.3518 -3.3282  1.0593
  118MOL   H14137815   5.107   0.657   2.095  0.4526  2.2136 -2.4297
  118MOL   H14237816   5.256   0.754   2.125 -0.0880 -1.4238 -1.9116
  118MOL   H14337817   5.092   0.809   2.175 -2.2146 -1.1697  1.0320
  118MOL   H14437818   5.100   0.538   2.441  0.3042  3.2893  0.2926
  118MOL   H14537819   5.010   0.545   2.278 -0.6617 -1.6333  0.6269
  118MOL   C14637820   5.374   0.595   2.457  0.6371  0.2732 -0.1180
  118MOL   C14737821   5.476   0.655   2.564  0.2126 -0.2850 -0.1156
  118MOL   C14837822   5.444   0.491   2.371 -0.4741  0.0225 -0.3061
  118MOL   C14937823   5.550   0.553   2.281  0.4649 -0.6326  0.3814
  118MOL   C15037824   5.512   0.606   2.148  0.2023  0.1947 -0.9749
  118MOL   C15137825   5.683   0.564   2.313 -0.2083 -0.4799  0.2027
  118MOL   H15237826   5.301   0.549   2.523 -1.3873  1.3466 -1.5321
  118MOL   H15337827   5.426   0.706   2.646  0.5823 -1.1762  0.6649
  118MOL   H15437828   5.538   0.728   2.511 -0.4173 -0.0203 -0.4986
  118MOL   H15537829   5.538   0.581   2.615 -0.6710 -0.6357  0.4428
  118MOL   H15637830   5.503   0.438   2.446  0.0683 -1.4523 -1.7436
  118MOL   H15737831   5.506   0.714   2.145 -0.3297  0.2989  2.3852
  118MOL   H15837832   5.427   0.559   2.099  0.3132 -1.9623  0.7966
  118MOL   H15937833   5.598   0.569   2.091  0.8902 -2.8137  1.8936
  118MOL   H16037834   5.722   0.528   2.407  0.2292 -3.9013 -1.2021
  118MOL   H16137835   5.764   0.604   2.253  0.1700 -0.8344  0.4729
  118MOL   C16237836   5.367   0.367   2.302  0.1250 -0.0004 -0.1138
  118MOL   C16337837   5.299   0.282   2.410  0.2429  0.6326 -0.4034
  118MOL   C16437838   5.442   0.273   2.198 -0.3875 -0.0695  0.2841
  118MOL   C16537839   5.342   0.226   2.086  0.3398  0.2576  0.3259
  118MOL   C16637840   5.321   0.320   1.964 -0.4533 -0.1940  0.0161
  118MOL   C16737841   5.269   0.110   2.097 -0.1309  0.2493  0.9183
  118MOL   H16837842   5.282   0.405   2.245 -1.4348 -2.1011  0.7529
  118MOL   H16937843   5.363   0.227   2.480 -0.3809 -0.7462 -0.8893
  118MOL   H17037844   5.232   0.210   2.363 -0.2746  0.3584  0.7377
  118MOL   H17137845   5.246   0.353   2.473 -0.1771 -1.8001  2.1144
  118MOL   H17237846   5.513   0.334   2.142 -1.8858  1.3340 -0.1428
  118MOL   H17337847   5.416   0.367   1.941  1.0565 -3.0275  0.2894
  118MOL   H17437848   5.251   0.395   2.002 -1.0898  0.7626 -2.9289
  118MOL   H17537849   5.275   0.280   1.873 -0.7962  0.2004  0.0115
  118MOL   H17637850   5.266   0.042   2.182 -1.2474 -0.4856  0.3165
  118MOL   H17737851   5.191   0.081   2.028  0.4643  0.7105  0.0495
  118MOL   C17837852   5.529   0.156   2.263  0.0763 -0.1294  0.0726
  118MOL   C17937853   5.630   0.198   2.381 -0.0916 -0.7934  0.1951
  118MOL   C18037854   5.616   0.083   2.149  0.8432  0.6059  0.0772
  118MOL   C18137855   5.611   7.823   2.170  0.0627 -0.0516 -0.5632
  118MOL   C18237856   5.672   7.767   2.302  0.2529 -0.8791  0.1246
  118MOL   C18337857   5.547   7.741   2.086  0.6256  0.0587 -0.1456
  118MOL   H18437858   5.456   0.086   2.303 -1.7899  1.0390 -1.1709
  118MOL   H18537859   5.688   0.115   2.420  0.9332 -0.3285 -0.3391
  118MOL   H18637860   5.573   0.240   2.464  1.4248  1.1405  0.2922
  118MOL   H18737861   5.706   0.274   2.367  0.6927 -1.4979  0.5992
  118MOL   H18837862   5.551   0.089   2.062 -0.2232 -2.2778  0.6296
  118MOL   H18937863   5.769   7.811   2.326  0.6360 -0.9879 -1.1765
  118MOL   H19037864   5.690   7.660   2.290  1.8467 -0.4025 -2.2799
  118MOL   H19137865   5.612   7.782   2.391  0.6571  2.3453 -0.0911
  118MOL   H19237866   5.500   7.789   2.001  0.4755  1.9247  0.9463
  118MOL   H19337867   5.549   7.636   2.110 -0.3435 -0.2751 -1.4806
  118MOL   C19437868   5.763   0.129   2.107 -0.1497  0.1171 -0.1223
  118MOL   C19537869   5.780   0.284   2.081  0.0240  1.1016 -0.2603
  118MOL   C19637870   5.845   0.037   2.000 -0.3515  0.4970  0.3444
  118MOL   C19737871   5.991   0.015   2.043 -0.6242 -0.4372  0.3448
  118MOL   C19837872   6.006   7.801   2.137  0.2130  0.1063 -0.4803
  118MOL   C19937873   6.090   0.106   2.036  0.2288  0.6692 -0.4442
  118MOL   H20037874   5.820   0.112   2.199 -0.0697 -0.4299 -0.2747
  118MOL   H20137875   5.763   0.346   2.170  0.4205  0.5328  0.2155
  118MOL   H20237876   5.707   0.320   2.008 -1.1673  1.3880  1.0401
  118MOL   H20337877   5.878   0.312   2.043  1.1321 -1.5075  0.5382
  118MOL   H20437878   5.799   7.831   2.006  0.0787  0.4155  2.9598
  118MOL   H20537879   5.954   7.709   2.109 -2.7871  1.3845  0.6605
  118MOL   H20637880   5.977   7.830   2.238  1.9462  0.2846 -0.0165
  118MOL   H20737881   6.113   7.785   2.154  0.3656  2.6973  1.2371
  118MOL   H20837882   6.082   0.196   1.977  0.8368  0.0612 -1.4774
  118MOL   H20937883   6.183   0.087   2.088 -1.0267  1.0439  2.0143
  118MOL   C21037884   5.829   0.075   1.847  1.4312 -0.8027  0.2687
  118MOL   C21137885   5.688   0.126   1.803  0.1875 -0.0975  0.0371
  118MOL   C21237886   5.897   7.885   1.736  0.1449 -0.1487 -0.2537
  118MOL   C21337887   5.969   0.092   1.645 -0.4790  0.4067 -0.4425
  118MOL   C21437888   6.110   0.124   1.690  0.8398  0.1425  0.6253
  118MOL   C21537889   5.918   0.159   1.537  0.5933  0.1697 -0.0692
  118MOL   H21637890   5.866   0.176   1.831 -0.6585 -0.2275 -1.1403
  118MOL   H21737891   5.668   0.231   1.822 -1.2366 -0.5583  1.1469
  118MOL   H21837892   5.619   0.070   1.865 -0.4787 -1.4765 -1.8865
  118MOL   H21937893   5.660   0.104   1.700 -1.2362 -1.3522  0.6831
  118MOL   H22037894   5.984   7.831   1.772  0.0878  0.3886  0.7058
  118MOL   H22137895   6.172   0.039   1.718 -0.6053 -1.4241 -0.8099
  118MOL   H22237896   6.106   0.190   1.777 -3.0614  1.7352 -0.6392
  118MOL   H22337897   6.163   0.178   1.611  0.8292 -1.7497 -0.7107
  118MOL   H22437898   5.815   0.143   1.507  0.0626  0.0965  1.7289
  118MOL   H22537899   5.971   0.239   1.488 -0.8047 -0.0457 -1.9839
  118MOL   C22637900   5.812   7.773   1.664  0.4843 -0.4526 -0.6130
  118MOL   C22737901   5.770   7.670   1.761 -0.1385 -0.0765 -0.7036
  118MOL   C22837902   5.879   7.720   1.531 -0.1739 -0.3290 -0.1243
  118MOL   C22937903   5.771   7.721   1.421 -0.0703 -0.2066 -0.0521
  118MOL   C23037904   5.645   7.636   1.431 -0.2606  0.7614  0.0527
  118MOL   C23137905   5.779   7.823   1.331  0.8446 -0.8470 -0.2400
  118MOL   H23237906   5.719   7.819   1.631 -0.6121 -1.9107  0.3207
  118MOL   H23337907   5.850   7.629   1.823 -1.9088 -0.4767  1.3926
  118MOL   H23437908   5.704   7.589   1.730  0.1977 -0.7724  0.3805
  118MOL   H23537909   5.714   7.726   1.836 -1.6394 -1.6400 -0.6300
  118MOL   H23637910   5.960   7.788   1.506 -1.6014  1.3734 -0.2183
  118MOL   H23737911   5.577   7.657   1.514 -0.0104  0.1688  0.4093
  118MOL   H23837912   5.680   7.536   1.456 -0.6896  0.4920 -0.4062
  118MOL   H23937913   5.592   7.640   1.336  1.3221  0.6686 -0.8453
  118MOL   H24037914   5.852   0.008   1.314  2.0400 -2.1561 -1.1967
  118MOL   H24137915   5.701   7.840   1.258 -0.2888 -0.1897  1.1022
  118MOL   C24237916   5.961   7.590   1.528  0.3935  0.0447  0.4650
  118MOL   C24337917   6.069   7.589   1.633  0.1735 -0.1305 -0.0388
  118MOL   C24437918   6.003   7.531   1.380  0.0522  0.4155 -0.4107
  118MOL   C24537919   5.942   7.395   1.361  0.6236  0.8384 -0.3330
  118MOL   C24637920   6.021   7.288   1.439 -0.1812  0.1343 -0.2930
  118MOL   C24737921   5.828   7.373   1.285  0.4153 -0.2572  0.9817
  118MOL   H24837922   5.891   7.513   1.561  0.3992 -0.1327  0.0621
  118MOL   H24937923   6.145   7.511   1.626  0.4869  0.3816 -3.0916
  118MOL   H25037924   6.024   7.605   1.731  1.1448  0.1446  0.3657
  118MOL   H25137925   6.119   7.686   1.634  0.0717 -0.0651 -0.8280
  118MOL   H25237926   5.946   7.599   1.315  2.2230  2.2268 -0.4746
  118MOL   H25337927   5.964   7.195   1.431  0.5751 -0.7524  3.3521
  118MOL   H25437928   6.028   7.308   1.546 -1.8912  0.1923 -0.1783
  118MOL   H25537929   6.120   7.267   1.398  0.1699 -1.1864  1.1717
  118MOL   H25637930   5.780   7.456   1.235 -0.1580  0.1272  2.1428
  118MOL   H25737931   5.793   7.272   1.277  1.3755 -0.4797 -0.7086
  118MOL   C25837932   6.151   7.552   1.339  0.3462 -0.4995 -0.4055
  118MOL   C25937933   6.200   7.697   1.339  0.4752 -0.0338 -0.6623
  118MOL   C26037934   6.192   7.479   1.209 -0.7397  0.4452 -0.2394
  118MOL   C26137935   6.328   7.402   1.223 -0.1326 -0.3612  0.2710
  118MOL   C26237936   6.456   7.491   1.227  1.0021  0.1375 -0.7178
  118MOL   C26337937   6.342   7.271   1.216 -0.3224 -0.5296  0.1089
  118MOL   H26437938   6.213   7.503   1.414  1.9186  0.2456 -1.2012
  118MOL   H26537939   6.292   7.714   1.282 -0.6906  0.4878 -2.4145
  118MOL   H26637940   6.195   7.744   1.437  1.7899 -2.2118  0.5070
  118MOL   H26737941   6.133   7.759   1.280 -0.3382 -0.7427 -0.4953
  118MOL   H26837942   6.125   7.394   1.199  0.9214 -0.7806 -1.1887
  118MOL   H26937943   6.488   7.529   1.130  1.1597 -0.0399 -0.7355
  118MOL   H27037944   6.546   7.433   1.250 -0.1227 -0.8374  1.4253
  118MOL   H27137945   6.449   7.565   1.307 -0.5203  0.0810 -0.7883
  118MOL   H27237946   6.260   7.206   1.190 -0.6375  0.2977 -1.0475
  118MOL   H27337947   6.439   7.225   1.220 -0.6346 -1.2800 -0.5972
  118MOL   C27437948   6.169   7.546   1.061  0.1052 -0.4430 -0.5122
  118MOL   C27537949   6.037   7.619   1.053  0.3887  0.2319 -0.5072
  118MOL   C27637950   6.205   7.468   0.923  0.2258  0.1225  0.2085
  118MOL   C27737951   6.258   7.560   0.808 -0.0463 -0.4146 -0.5378
  118MOL   C27837952   6.408   7.553   0.801  0.9096 -0.1140 -0.2859
  118MOL   C27937953   6.185   7.644   0.738 -0.1064  0.0763  0.1315
  118MOL   H28037954   6.244   7.625   1.060  0.9801 -1.2739 -3.1150
  118MOL   H28137955   6.016   7.697   1.126 -2.6354 -0.0253 -1.0615
  118MOL   H28237956   5.960   7.546   1.077 -0.4078  0.4843 -2.2562
  118MOL   H28337957   6.011   7.655   0.954 -2.4504 -0.1755  0.0480
  118MOL   H28437958   6.288   7.397   0.934 -0.6923 -1.2224 -1.2304
  118MOL   H28537959   6.443   7.646   0.756  1.4574 -0.0358  0.2827
  118MOL   H28637960   6.441   7.469   0.741 -0.8088 -0.0913 -1.2931
  118MOL   H28737961   6.460   7.551   0.897  2.1805 -0.3494 -0.9753
  118MOL   H28837962   6.077   7.642   0.742 -0.0933 -0.2105  0.3584
  118MOL   H28937963   6.236   7.707   0.667 -1.8724  2.0504  0.5431
  118MOL   C29037964   6.088   7.377   0.866 -0.0974 -0.2469  0.6058
  118MOL   C29137965   6.061   7.270   0.973  0.2284 -0.4263  0.2233
  118MOL   C29237966   6.130   7.313   0.723 -0.4424 -0.0394  0.4684
  118MOL   C29337967   6.007   7.274   0.646 -0.2506 -0.4227  0.0484
  118MOL   C29437968   6.030   7.255   0.495  0.2846 -0.1275  0.4399
  118MOL   C29537969   5.884   7.255   0.695  0.1598  0.0650  0.4674
  118MOL   H29637970   5.995   7.431   0.844 -0.4903 -1.5019 -0.8335
  118MOL   H29737971   5.999   7.191   0.932  2.1705 -0.6678 -2.3290
  118MOL   H29837972   6.010   7.306   1.062 -0.6356 -1.1422  0.0253
  118MOL   H29937973   6.161   7.243   1.005  0.1558 -0.9573  0.0067
  118MOL   H30037974   6.162   7.394   0.659 -0.8761 -0.6642 -0.5531
  118MOL   H30137975   6.089   7.339   0.458  0.3182 -0.4232 -0.1942
  118MOL   H30237976   5.934   7.259   0.443  0.7376  1.4286 -0.3211
  118MOL   H30337977   6.069   7.158   0.466 -0.2809  0.4682 -2.5384
  118MOL   H30437978   5.861   7.273   0.799  2.3451  0.6205  0.8852
  118MOL   H30537979   5.803   7.217   0.634  0.4128  0.8271 -0.3694
  118MOL   C30637980   6.237   7.193   0.741 -0.4983  0.3220  0.3283
  118MOL   C30737981   6.347   7.200   0.631  0.5341  0.4426 -0.6457
  118MOL   C30837982   6.173   7.052   0.748  0.2211  0.0579 -0.1785
  118MOL   C30937983   6.266   6.960   0.825  0.1049  0.2451  0.7043
  118MOL   C31037984   6.238   6.957   0.974  0.5733 -0.2842  0.7697
  118MOL   C31137985   6.352   6.878   0.760  0.0769  0.6389 -0.2165
  118MOL   H31237986   6.281   7.206   0.840 -0.7705  0.4208  0.4352
  118MOL   H31337987   6.367   7.306   0.616 -0.4439  0.4232 -2.2855
  118MOL   H31437988   6.308   7.171   0.533 -3.5664  3.5465 -0.0455
  118MOL   H31537989   6.440   7.147   0.653 -0.0226 -0.1297  0.3445
  118MOL   H31637990   6.069   7.056   0.779  0.3243 -1.5587  0.4037
  118MOL   H31737991   6.202   6.857   0.998  0.4816 -1.0999 -2.4997
  118MOL   H31837992   6.159   7.028   0.999  1.1352  0.8211 -0.5402
  118MOL   H31937993   6.319   6.989   1.039  2.5850  0.9509 -2.2221
  118MOL   H32037994   6.358   6.889   0.652  1.2300  0.0620 -0.2068
  118MOL   H32137995   6.415   6.809   0.813  0.7793 -0.9854 -3.0711
  118MOL   H32237996   6.161   7.017   0.645  0.3177 -0.1048 -0.1336
  119MOL     C137997   4.255   4.060   0.507 -0.5384  0.0417 -0.3815
  119MOL     C237998   4.105   4.093   0.537 -0.6922 -0.1490  0.2914
  119MOL     C337999   4.319   4.125   0.376 -0.7052  0.1777  0.0736
  119MOL     C438000   4.451   4.060   0.337  0.0978  0.0532 -0.4451
  119MOL     C538001   4.480   4.057   0.191  0.8915 -0.1921 -0.4997
  119MOL     C638002   4.539   3.999   0.424  0.2971 -0.4889  0.0296
  119MOL     H738003   4.312   4.088   0.596 -1.0658 -0.4870  0.1302
  119MOL     H838004   4.102   4.199   0.562  1.7495 -0.0375  0.3055
  119MOL     H938005   4.066   4.033   0.619  2.5411 -0.2751  1.8139
  119MOL    H1038006   4.061   4.083   0.438  0.1938 -1.6672  0.0188
  119MOL    H1138007   4.248   4.090   0.300 -0.7285  1.0965 -0.3305
  119MOL    H1238008   4.407   3.996   0.137 -1.5440  2.0072  0.1607
  119MOL    H1338009   4.578   4.017   0.166  0.4724 -1.7829  0.3467
  119MOL    H1438010   4.485   4.158   0.151 -1.2993  1.2402  2.5925
  119MOL    H1538011   4.527   3.983   0.530  2.2575  0.8886  0.4883
  119MOL    H1638012   4.633   3.954   0.399  1.1827 -0.6643  3.3750
  119MOL    H1738013   4.265   3.952   0.503 -1.4026 -0.1833  2.2850
  119MOL    C1838014   4.330   4.289   0.361  0.3193 -0.3998  0.4929
  119MOL    C1938015   4.405   4.337   0.498 -0.1630  0.4940 -0.0187
  119MOL    C2038016   4.198   4.364   0.326  0.4724  0.1168 -0.1262
  119MOL    C2138017   4.122   4.304   0.203  0.0886 -0.3354 -0.0965
  119MOL    C2238018   4.200   4.287   0.076 -0.8589  0.3179 -0.0355
  119MOL    C2338019   3.998   4.254   0.218 -0.2349  0.7704  0.0778
  119MOL    H2438020   4.402   4.306   0.280 -0.9204 -0.6482 -0.6719
  119MOL    H2538021   4.336   4.362   0.578 -2.2423 -4.0144 -0.2170
  119MOL    H2638022   4.461   4.430   0.498 -0.9960  1.0036  1.4552
  119MOL    H2738023   4.472   4.258   0.532  2.1992  1.5761 -1.9589
  119MOL    H2838024   4.141   4.336   0.415  0.2097  1.2476  0.0690
  119MOL    H2938025   4.272   4.205   0.076  1.4071  2.2864  0.4104
  119MOL    H3038026   4.242   4.376   0.031  0.2056 -0.7888 -1.2675
  119MOL    H3138027   4.133   4.245   0.001  2.3413 -4.1246 -0.6267
  119MOL    H3238028   3.927   4.263   0.299  0.3897  0.3981  0.6787
  119MOL    H3338029   3.957   4.194   0.138 -2.2997 -0.6147  2.0887
  119MOL    C3438030   4.202   4.524   0.314  0.3530  0.3324  0.1045
  119MOL    C3538031   4.330   4.574   0.252  0.3443  0.0378  0.1892
  119MOL    C3638032   4.154   4.610   0.438  0.1633 -0.0837  0.3218
  119MOL    C3738033   4.025   4.556   0.499  0.5692  0.0114 -0.3515
  119MOL    C3838034   4.027   4.569   0.658 -0.0264  0.4704  0.2597
  119MOL    C3938035   3.918   4.520   0.422 -0.4156 -0.0303 -0.2155
  119MOL    H4038036   4.125   4.543   0.239 -2.3285 -1.9792  2.1600
  119MOL    H4138037   4.414   4.570   0.321  1.0887 -0.3021 -0.7388
  119MOL    H4238038   4.317   4.677   0.220 -0.3953  0.9398  3.1827
  119MOL    H4338039   4.349   4.514   0.163 -2.4069  0.4566 -0.7437
  119MOL    H4438040   4.220   4.580   0.520  0.7906  0.8856  0.1836
  119MOL    H4538041   4.110   4.506   0.691 -0.7881 -1.1556 -0.8782
  119MOL    H4638042   3.934   4.524   0.691  0.5543 -0.4365  0.6729
  119MOL    H4738043   4.050   4.671   0.689  0.1111  0.0704  1.4828
  119MOL    H4838044   3.917   4.526   0.314 -0.4805  2.1206 -0.1309
  119MOL    H4938045   3.825   4.491   0.468 -1.5814 -1.5624 -3.3948
  119MOL    C5038046   4.139   4.768   0.424 -0.0387 -0.4304  0.2710
  119MOL    C5138047   4.071   4.804   0.289 -0.2788 -0.3714 -0.3748
  119MOL    C5238048   4.268   4.863   0.454 -0.0539  0.6436  0.1734
  119MOL    C5338049   4.296   4.848   0.611 -0.2386  0.3736  0.0591
  119MOL    C5438050   4.201   4.911   0.710 -0.1145  0.5840 -0.6550
  119MOL    C5538051   4.402   4.779   0.653  0.2831 -0.4143  0.1171
  119MOL    H5638052   4.061   4.792   0.496 -2.3454 -3.9076 -0.9297
  119MOL    H5738053   4.146   4.815   0.210  1.2584  0.1661  1.1497
  119MOL    H5838054   4.008   4.893   0.297  1.5512  0.8595  0.4760
  119MOL    H5938055   3.998   4.728   0.259 -2.2115  0.8666  1.0869
  119MOL    H6038056   4.353   4.829   0.396 -0.2214  1.3493 -0.5004
  119MOL    H6138057   4.232   4.909   0.815  1.9045 -0.9838 -1.2411
  119MOL    H6238058   4.095   4.889   0.698 -0.1136 -0.7545  1.5841
  119MOL    H6338059   4.196   5.018   0.692 -0.0471  0.7398  0.2410
  119MOL    H6438060   4.467   4.729   0.583  0.9631  0.3346  0.2144
  119MOL    H6538061   4.426   4.768   0.758  0.0725  0.5111  0.2677
  119MOL    C6638062   4.269   5.013   0.410 -0.3952 -0.3273 -0.5450
  119MOL    C6738063   4.131   5.086   0.426  0.2592 -0.2939  0.4280
  119MOL    C6838064   4.337   5.044   0.276 -0.1618  0.2716  0.6489
  119MOL    C6938065   4.472   4.968   0.259 -0.2903 -0.4640  0.1733
  119MOL    C7038066   4.580   4.995   0.365  1.0728 -0.3902  0.4401
  119MOL    C7138067   4.493   4.863   0.180  0.2935 -0.0816 -0.2678
  119MOL    H7238068   4.340   5.055   0.481 -0.2724  0.2864 -1.0266
  119MOL    H7338069   4.068   5.023   0.488  1.5217 -1.9177  0.1008
  119MOL    H7438070   4.083   5.093   0.329 -0.3706  0.9375  0.8060
  119MOL    H7538071   4.145   5.186   0.469  1.1646  0.3772 -1.3724
  119MOL    H7638072   4.270   4.990   0.210  1.0781  0.7001 -0.9857
  119MOL    H7738073   4.607   5.100   0.373  1.3598 -0.4066 -0.2899
  119MOL    H7838074   4.668   4.933   0.351  2.1369  1.1923  0.0429
  119MOL    H7938075   4.531   4.967   0.458 -1.5447 -0.0557 -0.7661
  119MOL    H8038076   4.415   4.825   0.116  0.0459 -2.5034  1.3734
  119MOL    H8138077   4.592   4.818   0.182 -0.4827 -1.8500  3.7445
  119MOL    C8238078   4.343   5.193   0.231 -0.0122  0.5679 -0.1373
  119MOL    C8338079   4.386   5.301   0.338  0.2667  0.2416  0.6398
  119MOL    C8438080   4.222   5.244   0.134 -0.4585  0.5362 -0.6865
  119MOL    C8538081   4.166   5.140   0.045  0.5526  0.2389  0.2237
  119MOL    C8638082   4.262   5.080   7.840  0.0928 -0.1568  0.6702
  119MOL    C8738083   4.035   5.111   0.042  0.3905 -0.6646  0.1011
  119MOL    H8838084   4.424   5.194   0.157  1.5376 -0.7253  1.4953
  119MOL    H8938085   4.300   5.358   0.373  0.3864  1.4139 -0.8983
  119MOL    H9038086   4.458   5.371   0.294 -0.8426  1.7111  1.1372
  119MOL    H9138087   4.430   5.252   0.425  1.6747 -2.5692 -1.5774
  119MOL    H9238088   4.139   5.268   0.200  1.8809 -0.6041  2.8004
  119MOL    H9338089   4.340   5.018   7.885 -0.2158 -0.2384  1.0936
  119MOL    H9438090   4.307   5.166   7.790 -0.6764 -0.3458 -0.3693
  119MOL    H9538091   4.203   5.022   7.768  0.8487 -2.0747  1.5689
  119MOL    H9638092   3.963   5.159   0.107  0.0093 -1.3442  0.1883
  119MOL    H9738093   3.989   5.039   7.869 -1.3209  0.1763  0.3444
  119MOL    C9838094   4.237   5.378   0.054 -0.0954 -0.2103  0.5927
  119MOL    C9938095   4.391   5.403   0.008  0.2926 -0.2539 -0.0876
  119MOL   C10038096   4.168   5.513   0.117 -0.1127  0.9703 -0.1890
  119MOL   C10138097   4.030   5.486   0.164  0.2106  0.0037 -0.0671
  119MOL   C10238098   3.992   5.513   0.310 -0.0201 -0.0536 -0.4039
  119MOL   C10338099   3.934   5.462   0.078  0.2486  1.3748  0.2604
  119MOL   H10438100   4.186   5.372   7.850 -0.0173 -2.3008  0.6560
  119MOL   H10538101   4.452   5.471   0.067 -2.5539  2.4166 -0.1049
  119MOL   H10638102   4.390   5.464   7.810  1.1934  0.1923  0.1913
  119MOL   H10738103   4.443   5.312   7.868  0.5416  0.3547 -1.4544
  119MOL   H10838104   4.233   5.540   0.200 -0.4772 -1.2275  0.8514
  119MOL   H10938105   3.975   5.618   0.337 -0.0230  0.4229 -2.1984
  119MOL   H11038106   4.063   5.480   0.385 -1.4549  0.7556  1.3654
  119MOL   H11138107   3.902   5.456   0.334 -1.4990  3.8499  3.9837
  119MOL   H11238108   3.947   5.450   7.863 -0.9058  0.8408  0.1710
  119MOL   H11338109   3.832   5.459   0.114 -0.1422  0.9440 -0.8531
  119MOL   C11438110   4.174   5.648   0.024 -0.6903 -0.3174 -0.1021
  119MOL   C11538111   4.157   5.621   7.768  0.5209  0.0440 -0.0470
  119MOL   C11638112   4.300   5.743   0.056  0.4236  0.3023  0.2474
  119MOL   C11738113   4.292   5.799   0.200 -0.3211  0.1685 -0.4722
  119MOL   C11838114   4.420   5.842   0.261 -0.1818  0.5793  0.1332
  119MOL   C11938115   4.178   5.806   0.279 -0.0496 -0.2653 -0.2751
  119MOL   H12038116   4.083   5.700   0.053  0.8950  1.6874  1.4834
  119MOL   H12138117   4.068   5.564   7.740 -0.2903  1.1347  0.2967
  119MOL   H12238118   4.234   5.557   7.723  1.8862  1.7151 -0.1381
  119MOL   H12338119   4.142   5.708   7.703 -3.0936 -0.1868  0.4236
  119MOL   H12438120   4.389   5.680   0.059 -1.0690 -1.8651  0.0258
  119MOL   H12538121   4.411   5.847   0.369  0.2181 -0.3970  0.2205
  119MOL   H12638122   4.447   5.940   0.221  1.8319 -0.8310 -2.1182
  119MOL   H12738123   4.500   5.777   0.224 -0.1932  0.6657 -0.0450
  119MOL   H12838124   4.081   5.780   0.240 -0.5595 -1.2046  1.5920
  119MOL   H12938125   4.185   5.855   0.375  3.9097  0.8686 -1.0187
  119MOL   C13038126   4.334   5.853   7.837  0.3071  0.0080  0.0952
  119MOL   C13138127   4.214   5.941   7.804  0.4914  0.4502 -0.1078
  119MOL   C13238128   4.420   5.810   7.719 -0.1033  0.1736  0.1541
  119MOL   C13338129   4.538   5.720   7.752 -0.2370  0.0606  0.7165
  119MOL   C13438130   4.651   5.770   7.845 -0.0760  0.0243 -0.2783
  119MOL   C13538131   4.548   5.599   7.688 -0.2228  0.7300  0.2443
  119MOL   H13638132   4.406   5.913   0.002  2.2710 -1.3285 -0.9130
  119MOL   H13738133   4.125   5.926   7.866  1.6594  0.3903  1.5885
  119MOL   H13838134   4.168   5.904   7.712 -0.4393 -1.8048  1.2028
  119MOL   H13938135   4.244   6.045   7.793  3.6135 -0.3913 -0.1680
  119MOL   H14038136   4.355   5.748   7.658  1.7117  0.1500 -1.8247
  119MOL   H14138137   4.614   5.850   0.017  1.0135 -0.3851  0.8831
  119MOL   H14238138   4.744   5.807   7.802  0.5788  0.1813  1.2426
  119MOL   H14338139   4.676   5.689   0.020 -0.0157  0.3752  0.1200
  119MOL   H14438140   4.474   5.566   7.618 -0.6273 -0.7200  1.3276
  119MOL   H14538141   4.631   5.533   7.711 -0.1160  0.7352 -0.1296
  119MOL   C14638142   4.472   5.924   7.620 -0.2502  0.1743 -0.3367
  119MOL   C14738143   4.505   6.060   7.690  0.8132  0.5130 -0.6003
  119MOL   C14838144   4.392   5.948   7.489  0.5773 -0.5246 -1.2005
  119MOL   C14938145   4.344   5.815   7.420  0.5136  0.3267 -0.1621
  119MOL   C15038146   4.196   5.806   7.394 -0.4184  0.0238 -0.8630
  119MOL   C15138147   4.427   5.719   7.385  0.1277  0.3777  0.3180
  119MOL   H15238148   4.563   5.872   7.590  0.3145  0.6497  0.5346
  119MOL   H15338149   4.555   6.036   7.784 -0.6222  0.5427  0.1869
  119MOL   H15438150   4.412   6.117   7.700  1.1443  0.9989 -0.2946
  119MOL   H15538151   4.579   6.113   7.630 -0.2613 -0.1876 -2.5984
  119MOL   H15638152   4.298   5.995   7.517  2.1645  1.1420  1.4837
  119MOL   H15738153   4.141   5.883   7.340 -2.1386 -0.2631  0.4019
  119MOL   H15838154   4.148   5.793   7.491  2.8912  3.8525  1.4373
  119MOL   H15938155   4.179   5.704   7.359  0.1854 -0.6024  0.6309
  119MOL   H16038156   4.533   5.718   7.406  0.4136 -1.3538 -1.1189
  119MOL   H16138157   4.387   5.639   7.326  4.4458 -1.6214 -0.1145
  119MOL   C16238158   4.461   6.043   7.381  0.1503 -0.1748 -0.4908
  119MOL   C16338159   4.605   6.008   7.350 -0.2042 -0.3408  0.4060
  119MOL   C16438160   4.429   6.204   7.392 -0.4172  0.0772 -0.3510
  119MOL   C16538161   4.280   6.225   7.413  0.2300 -0.4915  0.2275
  119MOL   C16638162   4.235   6.315   7.528 -1.0259  0.4204 -0.3712
  119MOL   C16738163   4.191   6.153   7.342  0.4287 -0.3008 -0.3516
  119MOL   H16838164   4.429   6.002   7.285 -0.4937 -2.0125  0.4895
  119MOL   H16938165   4.642   6.035   7.251 -1.4753 -2.2410 -0.6152
  119MOL   H17038166   4.627   5.902   7.361  2.4636  0.1149 -0.3252
  119MOL   H17138167   4.677   6.062   7.411  0.4658  0.4502 -1.0634
  119MOL   H17238168   4.477   6.246   7.480 -0.9527 -0.8014  0.3646
  119MOL   H17338169   4.289   6.409   7.529 -0.4122  0.0652  0.7026
  119MOL   H17438170   4.259   6.268   7.623 -0.5310  0.6118 -0.4036
  119MOL   H17538171   4.127   6.334   7.529 -0.9548  0.8133  0.2818
  119MOL   H17638172   4.218   6.087   7.261 -2.1843 -1.7049 -0.1295
  119MOL   H17738173   4.084   6.162   7.354  0.4595  0.4300 -0.5797
  119MOL   C17838174   4.477   6.295   7.265 -0.2818  0.0534 -0.0150
  119MOL   C17938175   4.440   6.232   7.126  0.6759  0.1543 -0.5041
  119MOL   C18038176   4.627   6.346   7.274 -0.0288  0.4470  0.0271
  119MOL   C18138177   4.651   6.430   7.405  0.0973  0.6837  0.5789
  119MOL   C18238178   4.774   6.407   7.489  0.1258  0.1984 -0.0669
  119MOL   C18338179   4.558   6.513   7.449 -0.2554  0.4066  0.1730
  119MOL   H18438180   4.414   6.384   7.270 -1.6896 -0.9152 -0.3437
  119MOL   H18538181   4.474   6.130   7.108  0.0282 -0.6877  2.7725
  119MOL   H18638182   4.461   6.307   7.049  0.2856 -0.9962 -1.7597
  119MOL   H18738183   4.332   6.225   7.112  0.3187  0.8372  1.7495
  119MOL   H18838184   4.702   6.271   7.300 -0.5904  0.5964  2.2537
  119MOL   H18938185   4.803   6.302   7.495  0.9924  0.4560  0.4236
  119MOL   H19038186   4.762   6.448   7.589  0.6068  0.8307 -0.2651
  119MOL   H19138187   4.857   6.464   7.446 -1.1791  0.7754 -1.8736
  119MOL   H19238188   4.468   6.528   7.391 -0.3839  0.3597  0.3600
  119MOL   H19338189   4.564   6.564   7.545  1.1725  1.0693 -0.2531
  119MOL   C19438190   4.698   6.431   7.157  0.0960  0.1173 -0.1192
  119MOL   C19538191   4.620   6.544   7.101  0.0598 -0.4482  0.4392
  119MOL   C19638192   4.773   6.345   7.046  0.4563 -0.6753 -0.2127
  119MOL   C19738193   4.870   6.234   7.107  0.0205  0.0224 -0.0053
  119MOL   C19838194   4.978   6.277   7.202 -0.3581  0.5724  0.7332
  119MOL   C19938195   4.854   6.101   7.080  0.1186 -0.2404  0.0653
  119MOL   H20038196   4.778   6.484   7.208 -0.7970 -0.4120  1.8900
  119MOL   H20138197   4.539   6.499   7.044  1.3399 -2.2634  0.0117
  119MOL   H20238198   4.661   6.616   7.031  0.1687  0.1006  1.0603
  119MOL   H20338199   4.581   6.614   7.175 -2.3879  0.0953 -1.3388
  119MOL   H20438200   4.703   6.273   7.005  1.1305 -0.8692 -1.0330
  119MOL   H20538201   5.037   6.192   7.235 -1.4175 -0.4029  0.1600
  119MOL   H20638202   4.937   6.320   7.294  0.4217 -0.1936  1.4497
  119MOL   H20738203   5.045   6.349   7.156 -0.3532  2.1134  3.0437
  119MOL   H20838204   4.777   6.067   7.012 -1.3657  0.8927  1.1391
  119MOL   H20938205   4.907   6.022   7.129 -0.2265  0.4201  1.5289
  119MOL   C21038206   4.836   6.402   6.914  0.6713 -1.0364  0.2204
  119MOL   C21138207   4.926   6.524   6.939 -0.3580  0.1562  0.5611
  119MOL   C21238208   4.744   6.431   6.790  0.0297 -0.4255  0.6807
  119MOL   C21338209   4.627   6.333   6.764 -0.2599  0.7389 -0.3709
  119MOL   C21438210   4.664   6.186   6.751  0.4227 -0.4606 -0.8060
  119MOL   C21538211   4.499   6.365   6.751  0.1868 -0.1629 -0.4369
  119MOL   H21638212   4.901   6.323   6.877  1.2535  0.7325 -2.6759
  119MOL   H21738213   4.997   6.519   7.021 -1.4320 -2.5239  1.3654
  119MOL   H21838214   4.861   6.611   6.942 -0.3588  0.3066 -2.3481
  119MOL   H21938215   4.986   6.544   6.850 -0.8820 -1.6679 -0.2287
  119MOL   H22038216   4.695   6.523   6.822 -1.1936 -0.4893 -0.9869
  119MOL   H22138217   4.693   6.158   6.650 -0.3523  0.0980 -1.1920
  119MOL   H22238218   4.585   6.117   6.781 -0.5035  0.1666 -1.7529
  119MOL   H22338219   4.748   6.151   6.810 -0.4267 -1.1689  0.0085
  119MOL   H22438220   4.469   6.467   6.765  2.8701  0.8880 -1.9149
  119MOL   H22538221   4.419   6.295   6.735 -1.7760  1.8777  0.2237
  119MOL   C22638222   4.821   6.454   6.649 -0.0502 -0.4968  0.8024
  119MOL   C22738223   4.943   6.362   6.625 -0.0665  0.5165  0.3255
  119MOL   C22838224   4.837   6.605   6.606  0.8286  0.2759  0.3659
  119MOL   C22938225   4.722   6.702   6.654 -0.3816  0.1103 -0.2602
  119MOL   C23038226   4.772   6.813   6.744  0.2194  1.1872 -1.0373
  119MOL   C23138227   4.589   6.682   6.632  0.1640  0.6725  0.4261
  119MOL   H23238228   4.746   6.417   6.578  0.4494 -1.1873  0.6336
  119MOL   H23338229   4.941   6.264   6.672 -1.2116 -0.2278 -1.2240
  119MOL   H23438230   5.028   6.412   6.670  0.0690 -0.1679  0.8360
  119MOL   H23538231   4.974   6.347   6.522  0.0197 -0.4582  0.4842
  119MOL   H23638232   4.934   6.634   6.648 -0.3449 -0.1431  3.5029
  119MOL   H23738233   4.852   6.867   6.693 -0.6763  1.6429 -1.9790
  119MOL   H23838234   4.834   6.788   6.830  0.4671  0.9658 -1.2734
  119MOL   H23938235   4.701   6.893   6.759 -0.0379  0.7277  0.2674
  119MOL   H24038236   4.538   6.603   6.578  0.0019  1.5393 -0.7260
  119MOL   H24138237   4.525   6.758   6.674  0.2348 -0.5787  2.8888
  119MOL   C24238238   4.858   6.622   6.449 -0.0546 -0.0956  0.1622
  119MOL   C24338239   4.760   6.539   6.367  0.8201 -0.1147 -0.2347
  119MOL   C24438240   5.009   6.609   6.397  0.7049 -0.1041 -0.3897
  119MOL   C24538241   5.109   6.689   6.484  0.7564 -0.3889 -0.1650
  119MOL   C24638242   5.087   6.841   6.493  0.7279  0.4759 -0.0808
  119MOL   C24738243   5.224   6.639   6.543  0.2413  1.2514 -1.2135
  119MOL   H24838244   4.831   6.724   6.420 -1.0886  0.0589  1.6103
  119MOL   H24938245   4.656   6.545   6.398  1.2297  0.4548  1.0529
  119MOL   H25038246   4.792   6.435   6.358  1.8299  0.2462 -0.8912
  119MOL   H25138247   4.756   6.578   6.266 -2.2800  2.9758  1.0022
  119MOL   H25238248   5.062   6.518   6.425  0.2099 -0.6542 -1.2384
  119MOL   H25338249   4.980   6.854   6.511  0.5167 -3.7824  2.4687
  119MOL   H25438250   5.112   6.895   6.402  0.4106  1.5907  0.4908
  119MOL   H25538251   5.145   6.875   6.579  1.3923 -1.4157  0.2596
  119MOL   H25638252   5.247   6.534   6.529 -1.1498  0.8376 -0.4121
  119MOL   H25738253   5.297   6.694   6.602  0.4597 -0.1389 -0.1613
  119MOL   C25838254   5.036   6.637   6.247  0.0319 -1.0603  0.0089
  119MOL   C25938255   4.948   6.752   6.192 -0.4853 -0.5552  0.8704
  119MOL   C26038256   5.025   6.510   6.149  0.2404 -0.9175 -0.5158
  119MOL   C26138257   5.096   6.382   6.210  0.6826  1.3451  0.0480
  119MOL   C26238258   5.028   6.247   6.181  0.2200  0.4010 -0.1258
  119MOL   C26338259   5.215   6.385   6.274  0.5198  0.2195 -0.2872
  119MOL   H26438260   5.136   6.680   6.252 -1.3969  2.4816 -0.3243
  119MOL   H26538261   4.998   6.801   6.108 -0.1881 -2.5520 -0.1486
  119MOL   H26638262   4.936   6.837   6.258 -1.0833 -1.2848  1.7180
  119MOL   H26738263   4.846   6.725   6.166 -0.3209  0.2179 -0.6374
  119MOL   H26838264   4.920   6.482   6.155 -0.6168  1.9412 -1.3086
  119MOL   H26938265   5.086   6.165   6.224 -1.0957  0.1378  1.1928
  119MOL   H27038266   5.015   6.222   6.076  0.7729 -0.3225 -0.0275
  119MOL   H27138267   4.926   6.249   6.221  0.5082 -0.6109  0.6878
  119MOL   H27238268   5.266   6.478   6.297  0.6836 -0.1757  1.0225
  119MOL   H27338269   5.253   6.290   6.310  0.0798  0.2330  0.2349
  119MOL   C27438270   5.071   6.528   6.002 -0.3243 -0.3619 -0.3390
  119MOL   C27538271   5.197   6.612   5.990  0.0808  0.5869  0.6409
  119MOL   C27638272   4.960   6.580   5.900  0.0423 -0.0847 -0.5830
  119MOL   C27738273   4.823   6.520   5.931  0.4506 -0.1410 -0.5610
  119MOL   C27838274   4.696   6.602   5.917  0.0173  0.9183 -0.4618
  119MOL   C27938275   4.804   6.385   5.942 -0.1300 -0.2024 -0.3045
  119MOL   H28038276   5.093   6.426   5.970  1.8442 -1.1305  3.3218
  119MOL   H28138277   5.258   6.592   5.901 -1.0065  1.6449 -0.3597
  119MOL   H28238278   5.273   6.584   6.063  0.0464  1.4687  1.0300
  119MOL   H28338279   5.180   6.720   5.990  0.1791  0.6107  2.2795
  119MOL   H28438280   4.942   6.686   5.917 -3.3704 -0.7203  0.1916
  119MOL   H28538281   4.615   6.553   5.971 -0.3569  0.5072 -1.3883
  119MOL   H28638282   4.668   6.604   5.812 -1.9790  0.0388  0.0295
  119MOL   H28738283   4.703   6.703   5.957 -0.4842  0.2669  1.3133
  119MOL   H28838284   4.893   6.324   5.935  0.9188  1.0281  1.5516
  119MOL   H28938285   4.712   6.334   5.965  0.4922 -0.8242  0.8697
  119MOL   C29038286   4.984   6.572   5.747  0.1697  0.0182 -0.0339
  119MOL   C29138287   5.053   6.439   5.704  0.1834 -0.8705 -0.6756
  119MOL   C29238288   5.060   6.700   5.678  0.1743 -0.2346 -0.3996
  119MOL   C29338289   5.002   6.844   5.728 -0.5149  0.6642  0.1392
  119MOL   C29438290   4.857   6.873   5.695 -0.1038 -0.1838 -0.9040
  119MOL   C29538291   5.094   6.933   5.779  0.1728 -0.2524  0.0059
  119MOL   H29638292   4.884   6.581   5.704 -0.2867 -3.7615  0.1413
  119MOL   H29738293   5.006   6.356   5.756  0.8121 -0.1716  1.0541
  119MOL   H29838294   5.158   6.444   5.732  0.1488  0.8503 -0.7731
  119MOL   H29938295   5.051   6.426   5.596  1.4375  0.3347 -0.8491
  119MOL   H30038296   5.165   6.704   5.706 -0.4661 -0.3366  2.1082
  119MOL   H30138297   4.821   6.966   5.739 -1.4563  0.2683 -2.8905
  119MOL   H30238298   4.788   6.794   5.725 -0.6847  0.2417 -1.1007
  119MOL   H30338299   4.842   6.880   5.587  0.6440  1.0767 -0.9299
  119MOL   H30438300   5.200   6.911   5.782  0.9120  3.0959 -0.1999
  119MOL   H30538301   5.058   7.026   5.821  2.0930  0.5639 -0.0835
  119MOL   C30638302   5.063   6.692   5.519  0.0617  0.7435 -0.0513
  119MOL   C30738303   5.118   6.812   5.453 -0.3485 -0.3227 -0.0031
  119MOL   C30838304   4.934   6.637   5.450 -0.4213  0.4675  0.6070
  119MOL   C30938305   4.947   6.626   5.298  0.0536  0.0953 -0.3079
  119MOL   C31038306   4.889   6.747   5.217 -0.4148 -0.5491  0.1945
  119MOL   C31138307   5.021   6.532   5.241  0.6258  0.0610 -0.3319
  119MOL   H31238308   5.143   6.620   5.499  0.5830  0.7855  1.8105
  119MOL   H31338309   5.208   6.837   5.509  1.3832 -0.2403 -2.6961
  119MOL   H31438310   5.046   6.891   5.469 -0.4732 -0.6746  1.1762
  119MOL   H31538311   5.143   6.795   5.348 -1.5273 -1.9648 -0.0270
  119MOL   H31638312   4.911   6.538   5.488  0.1682  0.1890  0.2603
  119MOL   H31738313   4.783   6.756   5.241  0.1283  1.7085  1.9013
  119MOL   H31838314   4.896   6.729   5.110  2.6630  0.8837  0.0803
  119MOL   H31938315   4.941   6.842   5.231  0.5373 -0.9079 -0.8521
  119MOL   H32038316   5.072   6.447   5.284  0.6257  0.8906  1.3220
  119MOL   H32138317   5.034   6.535   5.133 -1.3661  1.1948 -0.5623
  119MOL   H32238318   4.846   6.696   5.474 -1.0523  0.0795 -0.6776
  120MOL     C138319   0.474   1.556   5.106  0.2185  0.7131 -1.0604
  120MOL     C238320   0.481   1.689   5.188  0.1868  0.1654 -0.6948
  120MOL     C338321   0.568   1.560   4.976  0.7255  0.4771  0.4546
  120MOL     C438322   0.523   1.664   4.877 -0.9942  0.2080  0.2734
  120MOL     C538323   0.626   1.764   4.842 -0.2444 -0.1088  0.1330
  120MOL     C638324   0.409   1.649   4.809  0.3780  0.3628  0.2167
  120MOL     H738325   0.510   1.479   5.175  0.3912  2.2256  0.5680
  120MOL     H838326   0.439   1.685   5.289  0.7707  0.6897 -0.4229
  120MOL     H938327   0.429   1.768   5.133 -0.9924 -0.2408 -0.1899
  120MOL    H1038328   0.581   1.729   5.203  0.4240  0.0559 -1.9851
  120MOL    H1138329   0.659   1.608   5.011  1.1365  0.1767 -0.1912
  120MOL    H1238330   0.666   1.819   4.928 -1.9476  0.1190  0.7934
  120MOL    H1338331   0.579   1.837   4.776  1.1276  0.2101 -0.5180
  120MOL    H1438332   0.696   1.712   4.777 -2.6828 -0.5905 -2.1948
  120MOL    H1538333   0.342   1.566   4.827  0.3376  0.4747  0.5896
  120MOL    H1638334   0.381   1.720   4.733 -2.0910 -1.0985 -0.2653
  120MOL    H1738335   0.368   1.539   5.086  0.3770 -1.8882  0.0891
  120MOL    C1838336   0.604   1.413   4.920 -0.0295  0.1700 -0.3203
  120MOL    C1938337   0.492   1.312   4.940 -0.0877  0.4202  0.1122
  120MOL    C2038338   0.752   1.358   4.974  0.0019 -0.0317 -0.1888
  120MOL    C2138339   0.757   1.347   5.120  0.6481 -0.3376 -0.3510
  120MOL    C2238340   0.713   1.214   5.175 -0.0490  0.2691 -0.7385
  120MOL    C2338341   0.792   1.449   5.208  0.0032  0.2194  0.2443
  120MOL    H2438342   0.610   1.428   4.812 -0.5360  0.8532 -0.2626
  120MOL    H2538343   0.406   1.351   4.886  0.1180  1.8986  0.8305
  120MOL    H2638344   0.466   1.299   5.045  1.3735 -0.9615  0.3253
  120MOL    H2738345   0.517   1.218   4.892 -1.0854  0.4346 -0.4494
  120MOL    H2838346   0.747   1.255   4.940  1.0102  0.1114 -0.7927
  120MOL    H2938347   0.614   1.216   5.220  0.5064 -1.5108  0.6445
  120MOL    H3038348   0.779   1.194   5.260 -0.4737 -1.2571 -0.7468
  120MOL    H3138349   0.715   1.129   5.107 -0.0405 -0.1938 -0.1667
  120MOL    H3238350   0.817   1.545   5.166 -0.5556 -0.2563 -1.2090
  120MOL    H3338351   0.792   1.427   5.314 -2.0861 -0.5246  0.1215
  120MOL    C3438352   0.878   1.420   4.910 -1.1166  0.5083 -0.2156
  120MOL    C3538353   0.881   1.428   4.754  0.7386  0.1079  0.3489
  120MOL    C3638354   1.017   1.371   4.959 -0.3668  0.4064 -0.2849
  120MOL    C3738355   1.120   1.493   4.946  0.8814 -0.3926 -0.5058
  120MOL    C3838356   1.114   1.596   5.062  0.3291 -0.1413 -0.3541
  120MOL    C3938357   1.193   1.532   4.838  0.5247 -0.2584 -0.1551
  120MOL    H4038358   0.874   1.527   4.932  0.1041  0.9602 -2.0164
  120MOL    H4138359   0.801   1.496   4.723  0.0756 -0.9534 -0.3243
  120MOL    H4238360   0.854   1.323   4.739  1.1160 -0.3363  2.7018
  120MOL    H4338361   0.974   1.455   4.704  0.9488  0.7961  1.1067
  120MOL    H4438362   1.011   1.358   5.067  1.4937  4.3051  0.3691
  120MOL    H4538363   1.103   1.559   5.164 -2.4470  3.4923  0.8012
  120MOL    H4638364   1.029   1.664   5.049 -0.2151 -0.9492 -1.0294
  120MOL    H4738365   1.194   1.667   5.045  0.1059 -0.2561 -1.9791
  120MOL    H4838366   1.193   1.473   4.747 -1.7034  0.0677 -0.4044
  120MOL    H4938367   1.244   1.627   4.840 -1.0292  0.5584  1.8362
  120MOL    C5038368   1.077   1.227   4.908  0.4575  0.5803  0.1487
  120MOL    C5138369   0.982   1.107   4.896 -0.0914 -0.1039 -0.2511
  120MOL    C5238370   1.207   1.187   4.984 -0.3743  0.0386  0.5734
  120MOL    C5338371   1.314   1.127   4.886 -1.1051 -0.1161 -0.2269
  120MOL    C5438372   1.407   1.230   4.828 -0.3808 -0.8177  0.3815
  120MOL    C5538373   1.325   1.001   4.834 -0.2931  0.0694 -0.1209
  120MOL    H5638374   1.109   1.237   4.804  3.4540 -0.1858  0.9681
  120MOL    H5738375   1.020   1.016   4.849  0.9637  0.3494 -0.2798
  120MOL    H5838376   0.906   1.143   4.827  0.7441  0.5579 -0.8340
  120MOL    H5938377   0.942   1.079   4.993 -0.7696  0.6155 -0.3207
  120MOL    H6038378   1.259   1.275   5.021 -0.3183 -0.0623  0.7395
  120MOL    H6138379   1.465   1.272   4.910  1.5817 -1.9025 -0.4332
  120MOL    H6238380   1.360   1.317   4.781  0.1619 -1.3773 -1.2296
  120MOL    H6338381   1.472   1.188   4.752 -3.3118  0.5493 -3.0575
  120MOL    H6438382   1.259   0.920   4.863  0.6343 -0.4490  0.5834
  120MOL    H6538383   1.398   0.965   4.764 -0.2720  0.3257 -0.2281
  120MOL    C6638384   1.205   1.089   5.112  0.2662 -0.4631  0.0548
  120MOL    C6738385   1.115   1.145   5.226 -0.1504 -0.1692 -0.5058
  120MOL    C6838386   1.344   1.029   5.175 -0.0137  0.1613 -0.3279
  120MOL    C6938387   1.320   0.885   5.216 -0.3142 -0.1525 -0.2145
  120MOL    C7038388   1.257   0.843   5.350 -0.3104  0.0233 -0.2563
  120MOL    C7138389   1.352   0.783   5.137  0.2549  0.0397  0.0569
  120MOL    H7238390   1.143   1.003   5.084  0.4661 -0.8304  0.7348
  120MOL    H7338391   1.012   1.156   5.191 -0.5604  1.0073  1.0205
  120MOL    H7438392   1.156   1.241   5.256  1.5021 -0.9994 -0.0441
  120MOL    H7538393   1.107   1.075   5.309  0.8738  0.2349 -0.0622
  120MOL    H7638394   1.411   1.021   5.090 -0.8734 -1.0967 -0.9054
  120MOL    H7738395   1.246   0.735   5.354 -1.9272  0.1964  0.0058
  120MOL    H7838396   1.159   0.890   5.354  0.2973  1.3288 -0.1178
  120MOL    H7938397   1.314   0.873   5.439 -2.0244  2.0684  0.1725
  120MOL    H8038398   1.396   0.801   5.040 -1.4772 -0.7169 -0.8774
  120MOL    H8138399   1.332   0.679   5.159 -0.1646 -0.1657 -1.2494
  120MOL    C8238400   1.409   1.120   5.288  0.2541 -0.2098  0.6868
  120MOL    C8338401   1.436   1.261   5.223 -0.2171  0.3502 -0.2049
  120MOL    C8438402   1.526   1.067   5.377  0.4774 -0.7862 -0.9145
  120MOL    C8538403   1.532   1.141   5.517 -0.6161  0.4368  0.2621
  120MOL    C8638404   1.451   1.076   5.629 -0.1748 -0.2844  0.2957
  120MOL    C8738405   1.613   1.245   5.545 -0.0638 -0.0816 -0.4211
  120MOL    H8838406   1.337   1.128   5.370 -0.0954  1.6613  0.2296
  120MOL    H8938407   1.353   1.330   5.205 -0.0540  0.9142  1.1218
  120MOL    H9038408   1.496   1.248   5.133 -3.9122 -0.2634 -2.7093
  120MOL    H9138409   1.497   1.317   5.294 -0.9856  1.1604 -0.1672
  120MOL    H9238410   1.500   0.966   5.408 -1.9574  1.0788  3.6496
  120MOL    H9338411   1.470   1.140   5.715  2.2198 -1.0350  0.3514
  120MOL    H9438412   1.494   0.979   5.653 -0.1460 -0.0334  1.2743
  120MOL    H9538413   1.343   1.085   5.616  0.1764  3.4610 -0.8530
  120MOL    H9638414   1.672   1.295   5.469 -2.9707  1.6889 -1.6208
  120MOL    H9738415   1.623   1.291   5.642 -2.5754 -0.7951  0.1945
  120MOL    C9838416   1.664   1.062   5.302  0.0416  0.3742  0.5078
  120MOL    C9938417   1.660   0.990   5.163 -0.0558  0.5704  0.0960
  120MOL   C10038418   1.788   1.020   5.397 -0.2524 -0.2376  0.4695
  120MOL   C10138419   1.921   1.086   5.358  0.0331 -0.3944 -0.1377
  120MOL   C10238420   1.984   1.043   5.228  0.0359  0.0725 -1.0362
  120MOL   C10338421   1.966   1.187   5.437  0.3272  0.0969 -0.0404
  120MOL   H10438422   1.679   1.168   5.281  0.2201  0.3805  0.6598
  120MOL   H10538423   1.756   0.945   5.137 -0.0633 -0.6758  2.1040
  120MOL   H10638424   1.638   1.057   5.080 -1.6971  0.9068  0.7688
  120MOL   H10738425   1.597   0.901   5.163  0.0999  0.4208 -2.4221
  120MOL   H10838426   1.772   1.060   5.497 -1.1198  1.5251 -0.3617
  120MOL   H10938427   1.934   1.071   5.136  1.8927  1.6914 -1.5921
  120MOL   H11038428   2.002   0.935   5.231 -0.4075  0.0281  0.0035
  120MOL   H11138429   2.086   1.080   5.240  0.1344 -0.7009  0.7400
  120MOL   H11238430   1.903   1.216   5.520 -0.0810 -1.5415  0.2271
  120MOL   H11338431   2.055   1.244   5.413 -0.0919  0.7933  0.0454
  120MOL   C11438432   1.807   0.868   5.426  0.4949 -0.2717  0.0019
  120MOL   C11538433   1.682   0.779   5.455 -0.4076 -0.8597 -0.5412
  120MOL   C11638434   1.930   0.826   5.529  0.6497 -0.6451  0.4833
  120MOL   C11738435   1.986   0.700   5.472 -0.5930  1.2592  0.1871
  120MOL   C11838436   2.085   0.721   5.368 -0.2253 -0.0620  0.8332
  120MOL   C11938437   1.958   0.573   5.518  0.2590 -0.4273 -0.0027
  120MOL   H12038438   1.839   0.825   5.331 -1.8666 -0.4242 -0.7370
  120MOL   H12138439   1.601   0.783   5.383  0.3503  1.9092 -1.3088
  120MOL   H12238440   1.638   0.815   5.549 -0.7980  0.4706 -1.2136
  120MOL   H12338441   1.712   0.675   5.455  0.2133 -0.6842 -0.9750
  120MOL   H12438442   2.004   0.906   5.530  0.1943 -0.2277  3.2236
  120MOL   H12538443   2.161   0.644   5.363  0.8276  1.0379 -0.3953
  120MOL   H12638444   2.140   0.814   5.383 -0.3736  0.5669 -2.1999
  120MOL   H12738445   2.035   0.726   5.271  3.4162 -2.1935 -1.2379
  120MOL   H12838446   1.880   0.563   5.591 -0.1804  2.0758 -0.0759
  120MOL   H12938447   2.003   0.491   5.463 -3.1585 -1.0693 -1.9859
  120MOL   C13038448   1.887   0.810   5.682 -0.2231 -0.3959 -0.6938
  120MOL   C13138449   1.805   0.935   5.737  0.3885  0.7951 -0.3881
  120MOL   C13238450   2.012   0.772   5.772  0.3288 -0.6155  0.5112
  120MOL   C13338451   1.964   0.676   5.881  0.0676  0.5712  0.4001
  120MOL   C13438452   1.889   0.727   6.005  0.7788  0.0728  0.6312
  120MOL   C13538453   1.967   0.539   5.858 -0.1411 -0.2896  0.4201
  120MOL   H13638454   1.816   0.728   5.692 -1.0176  0.5406  1.5725
  120MOL   H13738455   1.786   0.935   5.845  0.6550 -1.9563 -0.2928
  120MOL   H13838456   1.707   0.949   5.691  0.1554  3.1831  0.7646
  120MOL   H13938457   1.845   1.034   5.718 -0.0616  1.1439  0.4837
  120MOL   H14038458   2.071   0.708   5.705  0.2004 -0.3709  0.1656
  120MOL   H14138459   1.783   0.726   5.979  0.7628 -0.0282  0.6994
  120MOL   H14238460   1.898   0.833   6.030 -2.7381  0.7502 -0.6347
  120MOL   H14338461   1.915   0.675   6.097  0.5796 -2.5149 -0.7479
  120MOL   H14438462   2.006   0.492   5.769 -2.5397  0.2798 -1.0018
  120MOL   H14538463   1.923   0.473   5.932 -1.9203 -0.0423 -0.3863
  120MOL   C14638464   2.113   0.875   5.821  0.2426  0.0078 -0.3721
  120MOL   C14738465   2.158   0.980   5.716 -0.5013 -0.3524 -0.1286
  120MOL   C14838466   2.240   0.806   5.892 -0.0246 -0.2999 -0.2333
  120MOL   C14938467   2.290   0.918   5.993 -0.1015  0.4538 -0.6502
  120MOL   C15038468   2.196   0.929   6.117  0.7323 -0.1158  0.0943
  120MOL   C15138469   2.404   0.989   5.976 -1.3518  0.3654 -0.4283
  120MOL   H15238470   2.054   0.933   5.893 -0.3126  1.5566 -2.0193
  120MOL   H15338471   2.205   0.929   5.632  0.4249 -0.3950  0.4003
  120MOL   H15438472   2.234   1.046   5.758 -1.3950  1.0995 -0.7714
  120MOL   H15538473   2.082   1.043   5.671 -2.0988 -1.6077  0.7616
  120MOL   H15638474   2.206   0.727   5.959  2.9234 -0.2282  1.4591
  120MOL   H15738475   2.227   1.016   6.176  0.4497  0.0321  0.0286
  120MOL   H15838476   2.188   0.840   6.179 -0.7663  1.2154  1.8978
  120MOL   H15938477   2.095   0.953   6.083  1.2622  0.6612 -0.9566
  120MOL   H16038478   2.470   0.976   5.891  0.1132 -0.8381  0.8462
  120MOL   H16138479   2.432   1.065   6.048  1.8544 -0.1798 -1.0174
  120MOL   C16238480   2.352   0.738   5.802 -0.0212 -0.1737  0.3237
  120MOL   C16338481   2.303   0.646   5.687  0.7549  0.1717 -0.3044
  120MOL   C16438482   2.459   0.669   5.892  0.3726 -0.4913 -0.3617
  120MOL   C16538483   2.598   0.685   5.841  0.1446  0.3585  0.5346
  120MOL   C16638484   2.689   0.787   5.906 -0.4613 -0.1139  0.6154
  120MOL   C16738485   2.650   0.616   5.736  0.2719  0.1119 -0.2871
  120MOL   H16838486   2.394   0.833   5.768  0.2498 -0.0795  0.9175
  120MOL   H16938487   2.214   0.591   5.717  1.0311  0.1919  0.5794
  120MOL   H17038488   2.383   0.586   5.645  0.7918 -0.7279  1.0318
  120MOL   H17138489   2.276   0.703   5.598  1.5403  1.8622  0.5037
  120MOL   H17238490   2.467   0.721   5.987  0.5160  0.4055 -0.8577
  120MOL   H17338491   2.791   0.750   5.914  0.2288  1.3255 -1.1644
  120MOL   H17438492   2.660   0.810   6.009  2.0541  1.2824  1.0266
  120MOL   H17538493   2.689   0.880   5.850 -1.0956 -0.3056  0.2865
  120MOL   H17638494   2.584   0.542   5.694 -0.9765  1.7766 -1.3280
  120MOL   H17738495   2.751   0.630   5.700  1.1721 -1.6939  1.4724
  120MOL   C17838496   2.438   0.518   5.928  0.4470  0.2540  1.1806
  120MOL   C17938497   2.293   0.501   5.990 -0.5002 -0.2914 -0.0582
  120MOL   C18038498   2.552   0.438   6.002  0.0023  0.4556  0.7881
  120MOL   C18138499   2.560   0.297   5.945  0.0517 -0.0818 -0.4045
  120MOL   C18238500   2.640   0.279   5.813 -0.3506  0.2980 -0.5906
  120MOL   C18338501   2.491   0.193   5.994  0.0404  0.0194 -0.0652
  120MOL   H18438502   2.421   0.471   5.831  0.9146 -0.6061  1.5084
  120MOL   H18538503   2.270   0.400   6.025 -1.0578  0.0585  0.5994
  120MOL   H18638504   2.210   0.515   5.921  0.4209 -2.4897 -1.6706
  120MOL   H18738505   2.278   0.569   6.073 -1.5133 -2.0374  1.2350
  120MOL   H18838506   2.651   0.468   5.967 -0.1403  0.0765  0.0625
  120MOL   H18938507   2.644   0.173   5.790  0.0479  0.5236 -1.5703
  120MOL   H19038508   2.746   0.304   5.825 -0.0753 -0.7658 -0.7741
  120MOL   H19138509   2.604   0.343   5.732 -2.2731 -0.8562 -0.6775
  120MOL   H19238510   2.438   0.201   6.087  0.1343  0.2373 -0.0317
  120MOL   H19338511   2.495   0.097   5.944  0.0156  0.2955 -0.6080
  120MOL   C19438512   2.557   0.449   6.157  0.0974  1.1555  0.4225
  120MOL   C19538513   2.562   0.597   6.211 -0.6577  0.5082  0.6598
  120MOL   C19638514   2.668   0.359   6.230  0.2255 -0.3305  0.6697
  120MOL   C19738515   2.609   0.318   6.372 -0.0390 -0.2068  0.4523
  120MOL   C19838516   2.583   0.427   6.475  0.0886 -0.5721 -0.2078
  120MOL   C19938517   2.567   0.195   6.396  0.5003  0.2448  0.4443
  120MOL   H20038518   2.462   0.411   6.196  0.0372  0.4921 -0.3555
  120MOL   H20138519   2.615   0.607   6.305  0.9138 -0.3086 -0.1195
  120MOL   H20238520   2.461   0.638   6.210 -0.7123  0.3981 -1.4712
  120MOL   H20338521   2.627   0.640   6.134  0.8327 -4.1602 -0.8789
  120MOL   H20438522   2.686   0.265   6.179  0.5591 -0.6196  1.3115
  120MOL   H20538523   2.499   0.490   6.445 -1.7252 -1.8711  1.9081
  120MOL   H20638524   2.672   0.484   6.500  0.3999 -1.7719  1.5339
  120MOL   H20738525   2.562   0.381   6.572 -2.2123  1.9979  0.6022
  120MOL   H20838526   2.594   0.122   6.322  0.5898  0.2238  0.4981
  120MOL   H20938527   2.514   0.161   6.484 -2.3560 -0.9988 -1.6776
  120MOL   C21038528   2.815   0.426   6.238  0.1857  0.4425  0.0497
  120MOL   C21138529   2.879   0.438   6.098 -0.1100  0.0034 -0.1559
  120MOL   C21238530   2.917   0.369   6.346 -0.1759 -0.4445 -0.7394
  120MOL   C21338531   3.005   0.478   6.415 -0.5842  0.2174 -0.0366
  120MOL   C21438532   2.937   0.554   6.532 -0.2207 -0.0476  0.9538
  120MOL   C21538533   3.120   0.516   6.368 -0.1793 -0.4555  0.1217
  120MOL   H21638534   2.820   0.533   6.257 -0.1024  0.9018 -2.2493
  120MOL   H21738535   2.864   0.352   6.032  1.1245 -0.7724  0.5459
  120MOL   H21838536   2.987   0.443   6.113 -0.2532 -0.2391  1.0836
  120MOL   H21938537   2.849   0.524   6.039  2.0190 -0.5799 -2.1261
  120MOL   H22038538   2.873   0.319   6.433  2.0594  0.4981  0.9978
  120MOL   H22138539   3.011   0.597   6.599 -1.4640  2.9748  0.4704
  120MOL   H22238540   2.880   0.478   6.585 -2.0780  0.2916 -0.5344
  120MOL   H22338541   2.870   0.628   6.487  0.6089  0.4064  0.4606
  120MOL   H22438542   3.156   0.468   6.279 -0.9153  0.5092 -0.6986
  120MOL   H22538543   3.183   0.590   6.415  0.5026 -0.9208 -0.0517
  120MOL   C22638544   3.001   0.234   6.309  0.1309 -0.5006  0.1300
  120MOL   C22738545   2.901   0.127   6.235 -0.8909 -0.0053  0.0796
  120MOL   C22838546   3.081   0.167   6.422  0.1983 -0.4046  0.1486
  120MOL   C22938547   3.214   0.110   6.369 -0.7153 -0.1355  1.1689
  120MOL   C23038548   3.340   0.200   6.383 -0.1111  0.6160  0.3557
  120MOL   C23138549   3.225   7.880   6.316 -0.0464  0.4434  0.2305
  120MOL   H23238550   3.078   0.279   6.246 -0.8948  0.7544 -0.2534
  120MOL   H23338551   2.878   0.157   6.133 -0.3905 -0.6710 -0.2281
  120MOL   H23438552   2.805   0.113   6.286  0.7245 -3.0812  2.4116
  120MOL   H23538553   2.958   0.036   6.219  0.8780  0.5274  2.9751
  120MOL   H23638554   3.122   0.242   6.489  0.2806 -2.3995  2.4279
  120MOL   H23738555   3.333   0.286   6.316 -1.5499  0.8671  0.8028
  120MOL   H23838556   3.428   0.147   6.347 -0.9063  1.1518 -2.5147
  120MOL   H23938557   3.376   0.222   6.483 -1.0488  0.1107  0.8187
  120MOL   H24038558   3.134   7.823   6.310  1.0530 -1.2755 -0.2722
  120MOL   H24138559   3.324   7.850   6.284 -0.2199 -2.5745  2.3463
  120MOL   C24238560   3.001   0.067   6.521 -0.2651 -0.7457 -0.1585
  120MOL   C24338561   2.860   0.103   6.572  0.1414 -0.7262  0.1666
  120MOL   C24438562   3.092   0.002   6.631  0.1952  0.3037  0.8548
  120MOL   C24538563   3.051   7.744   6.647  0.2610 -0.4930 -0.4658
  120MOL   C24638564   3.128   7.628   6.579 -0.0634 -0.4342 -0.5469
  120MOL   C24738565   2.958   7.702   6.734  0.0051 -0.2108  0.2902
  120MOL   H24838566   2.984   7.881   6.447  0.4944  0.4915 -1.6536
  120MOL   H24938567   2.841   0.195   6.627 -0.3586  0.4656 -1.9665
  120MOL   H25038568   2.818   0.025   6.636 -0.3024  0.3954  1.2659
  120MOL   H25138569   2.785   0.105   6.493 -1.3295  1.7368  1.5543
  120MOL   H25238570   3.190   7.889   6.583  0.1926  0.1130  0.8709
  120MOL   H25338571   3.219   7.608   6.635 -0.0884  0.5392 -0.1508
  120MOL   H25438572   3.150   7.642   6.473  1.1428 -0.6532 -0.3375
  120MOL   H25538573   3.068   7.539   6.561  1.3747 -1.5238 -0.0357
  120MOL   H25638574   2.897   7.769   6.792 -3.0470 -2.6267 -0.0218
  120MOL   H25738575   2.937   7.596   6.739 -0.3139 -0.1843 -0.4357
  120MOL   C25838576   3.090   0.085   6.767  0.5464 -0.3143 -0.5570
  120MOL   C25938577   3.109   0.232   6.747 -0.0626  0.3209 -0.5451
  120MOL   C26038578   3.194   0.046   6.885  1.0004  0.7612  0.2647
  120MOL   C26138579   3.116   0.065   7.020  0.5489 -0.5671  0.0198
  120MOL   C26238580   3.023   7.847   7.066  0.6421  0.1325 -0.1588
  120MOL   C26338581   3.142   0.173   7.096  0.3476  0.2111  0.4341
  120MOL   H26438582   2.986   0.084   6.798  0.0262 -0.0008 -2.1943
  120MOL   H26538583   3.036   0.283   6.685 -0.6007  1.2509  0.8328
  120MOL   H26638584   3.204   0.256   6.697  0.8790  2.9998  2.3904
  120MOL   H26738585   3.112   0.281   6.844  2.0473 -1.1623  0.1687
  120MOL   H26838586   3.193   7.830   6.879  0.5469  0.8328 -0.9511
  120MOL   H26938587   2.923   7.850   7.021  1.6339 -1.1761 -2.5765
  120MOL   H27038588   3.008   7.862   7.173  1.2880  2.3204 -0.3601
  120MOL   H27138589   3.069   7.751   7.042 -0.7712 -0.0637 -2.3353
  120MOL   H27238590   3.206   0.249   7.052 -0.9189  0.5667 -0.8313
  120MOL   H27338591   3.090   0.195   7.188 -0.1158  0.3444  0.1427
  120MOL   C27438592   3.345   0.086   6.874 -0.3126 -0.3475 -0.2900
  120MOL   C27538593   3.408   0.035   6.745 -0.1518  0.2665  0.0974
  120MOL   C27638594   3.440   0.057   6.990  0.0436 -0.1256 -0.7894
  120MOL   C27738595   3.545   0.163   6.989  0.3766  1.1014 -0.1402
  120MOL   C27838596   3.501   0.301   7.026 -0.2852  0.0607 -0.3692
  120MOL   C27938597   3.670   0.149   6.949  0.4390  0.3170 -0.9327
  120MOL   H28038598   3.342   0.194   6.859 -1.4513 -0.4232 -0.6113
  120MOL   H28138599   3.513   0.056   6.725 -0.1559  0.0800 -0.1257
  120MOL   H28238600   3.366   0.080   6.655  0.7409  2.0922  0.5709
  120MOL   H28338601   3.397   7.819   6.742  3.6601 -0.2231  1.5020
  120MOL   H28438602   3.382   0.087   7.078 -0.1281 -0.0444 -0.9307
  120MOL   H28538603   3.435   0.299   7.113  2.7676  1.0852  2.0472
  120MOL   H28638604   3.445   0.349   6.946 -1.7994  0.6389  1.0109
  120MOL   H28738605   3.583   0.363   7.063  0.7138 -1.0549 -0.6889
  120MOL   H28838606   3.714   0.057   6.911  1.8351  0.2016  0.9089
  120MOL   H28938607   3.740   0.231   6.956  0.9918 -0.2347  0.1784
  120MOL   C29038608   3.498   7.809   7.015 -0.0502 -0.0025  0.2285
  120MOL   C29138609   3.396   7.692   7.008 -0.9625  0.3870 -0.2416
  120MOL   C29238610   3.588   7.804   7.141  0.5159  0.3592 -0.2149
  120MOL   C29338611   3.714   7.718   7.109  0.2336  0.8523 -0.1190
  120MOL   C29438612   3.700   7.567   7.090 -0.8888 -0.4017 -0.5757
  120MOL   C29538613   3.836   7.780   7.104  0.2959  0.1884 -0.5058
  120MOL   H29638614   3.560   7.797   6.926  1.2346 -1.9011  1.3429
  120MOL   H29738615   3.362   7.690   6.905  1.3760 -0.5044 -1.0156
  120MOL   H29838616   3.307   7.687   7.072 -1.2686 -0.8409 -0.7353
  120MOL   H29938617   3.446   7.595   7.017  1.6611  1.6935 -0.3691
  120MOL   H30038618   3.629   0.011   7.157 -1.3069  1.3160 -1.3959
  120MOL   H30138619   3.649   7.531   7.180 -1.0522  1.4960  0.1122
  120MOL   H30238620   3.793   7.510   7.089  0.4465  1.6830  0.6560
  120MOL   H30338621   3.648   7.543   6.997 -2.1022 -0.4361  0.0884
  120MOL   H30438622   3.856   7.882   7.134  3.0072 -1.2164  2.7454
  120MOL   H30538623   3.917   7.716   7.071  0.2995  0.2311 -0.5782
  120MOL   C30638624   3.521   7.747   7.267  0.2612 -0.2848  0.0772
  120MOL   C30738625   3.401   7.833   7.316 -0.2806  0.4028  0.1937
  120MOL   C30838626   3.620   7.732   7.392 -0.3387  0.1632  0.1160
  120MOL   C30938627   3.551   7.656   7.511  0.0217  0.2497 -0.4844
  120MOL   C31038628   3.498   7.518   7.486 -1.0758  0.3699  0.6166
  120MOL   C31138629   3.562   7.714   7.633  1.1637 -0.0342  0.3190
  120MOL   H31238630   3.475   7.651   7.241 -0.2206  0.1221 -0.5933
  120MOL   H31338631   3.417   0.044   7.347  0.1852 -0.4706  2.9544
  120MOL   H31438632   3.356   7.779   7.399  0.4226 -0.9088 -0.2576
  120MOL   H31538633   3.327   7.828   7.236  0.8945  1.0720 -0.9747
  120MOL   H31638634   3.708   7.673   7.369 -1.2146 -0.9302 -0.4393
  120MOL   H31738635   3.396   7.522   7.448 -0.7774  0.6510 -0.1753
  120MOL   H31838636   3.512   7.472   7.584 -1.3769  2.8142  1.8467
  120MOL   H31938637   3.557   7.467   7.409  0.4478 -0.3523  2.2339
  120MOL   H32038638   3.611   7.807   7.652  0.0233  0.1860  2.3057
  120MOL   H32138639   3.528   7.659   7.720 -0.8633 -0.1283 -0.4847
  120MOL   H32238640   3.650   7.835   7.414 -0.6180  0.6588 -1.7117
  121MOL     C138641   2.197   4.853   1.727 -0.5262  0.3803 -0.6182
  121MOL     C238642   2.175   4.870   1.574  0.3171  0.3120 -0.3101
  121MOL     C338643   2.097   4.762   1.803  0.3778 -0.1061 -0.2943
  121MOL     C438644   1.956   4.819   1.798 -0.2612 -0.3585 -0.2188
  121MOL     C538645   1.943   4.965   1.837  0.1261 -0.1452  0.6050
  121MOL     C638646   1.854   4.745   1.757 -0.8356  0.2585  0.3423
  121MOL     H738647   2.297   4.815   1.745 -1.1500 -0.8856  0.2415
  121MOL     H838648   2.215   4.792   1.510  1.0390 -0.9740  1.6477
  121MOL     H938649   2.223   4.964   1.549  2.0699 -0.8150 -1.2447
  121MOL    H1038650   2.072   4.876   1.538 -0.1589  0.7041  1.0794
  121MOL    H1138651   2.095   4.665   1.753  0.3246 -1.7488  2.7229
  121MOL    H1238652   1.837   4.988   1.844 -0.1740 -1.1494 -0.4537
  121MOL    H1338653   1.979   5.033   1.759  0.1707  0.4993  1.1875
  121MOL    H1438654   1.988   4.987   1.933 -0.1544  0.6541  0.5511
  121MOL    H1538655   1.865   4.643   1.724 -1.2948  0.0255  0.8977
  121MOL    H1638656   1.757   4.790   1.741 -0.1836  1.6476  0.1537
  121MOL    H1738657   2.198   4.951   1.775 -2.3328  0.2754 -0.3118
  121MOL    C1838658   2.144   4.733   1.953  0.4092  0.1227  1.1104
  121MOL    C1938659   2.263   4.820   2.003 -0.0049  0.0752 -0.0471
  121MOL    C2038660   2.152   4.583   1.989  0.3122  0.1466 -0.2066
  121MOL    C2138661   2.271   4.517   1.917  0.1800 -0.2513 -0.3398
  121MOL    C2238662   2.263   4.465   1.774 -0.1486 -0.9394  0.3399
  121MOL    C2338663   2.390   4.497   1.981  0.7098  0.0005 -0.2397
  121MOL    H2438664   2.061   4.769   2.014  0.7075  1.9793  0.4432
  121MOL    H2538665   2.287   4.791   2.105 -1.5154 -2.9338 -0.4820
  121MOL    H2638666   2.241   4.926   1.993 -0.9589  0.0183  1.3338
  121MOL    H2738667   2.354   4.785   1.955  0.2118  0.6783 -0.0732
  121MOL    H2838668   2.195   4.582   2.089 -2.2335  1.3074  0.9608
  121MOL    H2938669   2.302   4.542   1.707  1.5726 -2.0111  0.0719
  121MOL    H3038670   2.164   4.451   1.731 -0.5920  0.5860  0.8450
  121MOL    H3138671   2.313   4.368   1.763  2.2222  0.3338 -0.6809
  121MOL    H3238672   2.406   4.534   2.081  0.5640 -0.1017 -0.1779
  121MOL    H3338673   2.473   4.445   1.934 -0.8328 -1.1158 -1.8149
  121MOL    C3438674   2.009   4.507   1.982  0.3303  0.0385 -0.2348
  121MOL    C3538675   1.904   4.555   2.085 -0.1306  0.0822  0.4229
  121MOL    C3638676   2.021   4.354   1.988  0.2259 -0.4144  0.2818
  121MOL    C3738677   1.922   4.295   1.883 -0.2440 -0.0606 -0.3579
  121MOL    C3838678   1.777   4.314   1.893  0.0887 -0.1946  0.5618
  121MOL    C3938679   1.971   4.243   1.769  0.2451  0.3375  1.0836
  121MOL    H4038680   1.980   4.539   1.882  2.0875  1.7787 -0.2424
  121MOL    H4138681   1.814   4.495   2.074 -0.5147  0.7919 -0.3111
  121MOL    H4238682   1.885   4.661   2.070  1.7557  0.2811 -0.6889
  121MOL    H4338683   1.932   4.554   2.190 -0.2761  0.0736  0.4609
  121MOL    H4438684   2.116   4.333   1.940  0.7493 -1.8858  1.9352
  121MOL    H4538685   1.729   4.270   1.805 -0.1255  0.6021  0.2774
  121MOL    H4638686   1.756   4.421   1.883  1.2672 -0.0573 -0.6271
  121MOL    H4738687   1.734   4.281   1.988  1.2017 -2.0623  0.4248
  121MOL    H4838688   2.077   4.236   1.749  0.0323  0.6641 -0.1904
  121MOL    H4938689   1.913   4.201   1.688 -0.5551 -0.1192  1.8772
  121MOL    C5038690   2.011   4.271   2.127  0.1085  0.3278  0.9082
  121MOL    C5138691   2.130   4.309   2.207 -0.6985  0.5163  0.4119
  121MOL    C5238692   1.988   4.108   2.127 -0.1609 -0.0748  0.4097
  121MOL    C5338693   1.899   4.083   2.252 -0.5712 -0.1660 -0.2071
  121MOL    C5438694   1.748   4.098   2.230 -0.4265 -0.4888 -0.2232
  121MOL    C5538695   1.946   4.056   2.376  0.5349 -0.1977  0.0527
  121MOL    H5638696   1.921   4.313   2.173 -0.9234 -0.0986 -0.6791
  121MOL    H5738697   2.141   4.415   2.231  1.1831  0.6888 -1.0972
  121MOL    H5838698   2.212   4.301   2.136 -1.2399  0.9636 -0.2755
  121MOL    H5938699   2.148   4.259   2.301  2.2639  0.6877 -0.0366
  121MOL    H6038700   1.922   4.089   2.042 -1.0413  0.6287  0.9393
  121MOL    H6138701   1.713   4.193   2.189 -1.8440  0.5016  3.0692
  121MOL    H6238702   1.699   4.082   2.327 -0.9422 -0.4816 -0.4793
  121MOL    H6338703   1.717   4.018   2.164 -0.3824 -0.6099 -0.0969
  121MOL    H6438704   2.053   4.049   2.387  0.4670 -2.3563 -0.4229
  121MOL    H6538705   1.883   4.039   2.462 -0.1092  1.0718 -0.1536
  121MOL    C6638706   2.123   4.018   2.123 -0.3961  0.1132 -0.0028
  121MOL    C6738707   2.203   4.049   1.996  0.4061  0.7305  0.3376
  121MOL    C6838708   2.118   3.863   2.157 -0.1448 -0.2645  0.1225
  121MOL    C6938709   2.217   3.822   2.275  0.4858 -0.1391  0.7518
  121MOL    C7038710   2.358   3.869   2.282  0.1149 -0.5668  0.4240
  121MOL    C7138711   2.164   3.758   2.377  0.0095  0.0564  0.4585
  121MOL    H7238712   2.188   4.055   2.202  0.2828 -0.0525 -0.4872
  121MOL    H7338713   2.298   3.997   2.000  0.5265  0.8528 -0.9614
  121MOL    H7438714   2.220   4.155   1.979  3.3625  0.6382  2.3369
  121MOL    H7538715   2.151   4.017   1.905  1.0188  0.1108  0.1995
  121MOL    H7638716   2.017   3.851   2.197 -0.1819  1.2310  0.5107
  121MOL    H7738717   2.388   3.908   2.185  1.3345  0.0390  1.0251
  121MOL    H7838718   2.431   3.791   2.306  0.6065 -0.5677 -1.0153
  121MOL    H7938719   2.365   3.950   2.355 -3.4266  1.0532 -0.9448
  121MOL    H8038720   2.058   3.741   2.385 -0.4870  1.6501 -2.1352
  121MOL    H8138721   2.218   3.724   2.464 -1.5261 -0.4402  1.2363
  121MOL    C8238722   2.117   3.756   2.038 -0.4795 -0.4139 -0.0478
  121MOL    C8338723   2.245   3.744   1.957  0.8369 -0.0270  0.0703
  121MOL    C8438724   1.988   3.725   1.958  0.3636  0.2618 -0.2896
  121MOL    C8538725   1.971   3.799   1.823  0.3939  0.3224 -0.3093
  121MOL    C8638726   2.046   3.742   1.703 -0.1066  0.1237  0.1308
  121MOL    C8738727   1.907   3.913   1.811 -0.2173  0.6274  0.4730
  121MOL    H8838728   2.135   3.666   2.095 -2.6067 -0.6962  0.2275
  121MOL    H8938729   2.248   3.654   1.895  1.8040 -1.2484  1.8601
  121MOL    H9038730   2.336   3.754   2.016 -1.1558  0.3346  3.1804
  121MOL    H9138731   2.240   3.824   1.883 -0.8377  1.2984  1.5855
  121MOL    H9238732   1.996   3.621   1.926  1.3113 -0.4832  2.3027
  121MOL    H9338733   2.135   3.802   1.683  1.0192 -0.6022  2.7511
  121MOL    H9438734   1.968   3.719   1.631  0.4617 -0.3590 -0.3340
  121MOL    H9538735   2.087   3.643   1.720  2.2118  0.9006 -0.7711
  121MOL    H9638736   1.857   3.956   1.895  0.1591 -0.6949  1.3942
  121MOL    H9738737   1.913   3.969   1.719 -0.3726 -0.9567 -0.5387
  121MOL    C9838738   1.856   3.716   2.038 -0.1048 -0.2020  0.3747
  121MOL    C9938739   1.876   3.643   2.173  0.6922 -0.0595 -0.2234
  121MOL   C10038740   1.732   3.669   1.947 -0.8174 -0.3090  0.5690
  121MOL   C10138741   1.605   3.741   1.983 -0.0394 -0.3842  0.3857
  121MOL   C10238742   1.541   3.712   2.120 -0.1283  0.0096 -0.0758
  121MOL   C10338743   1.554   3.832   1.904 -0.4721  0.0299  0.8147
  121MOL   H10438744   1.840   3.819   2.070 -2.4250 -0.7367  1.0123
  121MOL   H10538745   1.851   3.702   2.261  0.8524  1.6377 -1.3061
  121MOL   H10638746   1.980   3.613   2.183  0.7003 -0.5118 -1.5746
  121MOL   H10738747   1.818   3.551   2.173 -0.9999  0.9842 -0.2583
  121MOL   H10838748   1.746   3.712   1.847 -0.4041 -0.2830  0.6400
  121MOL   H10938749   1.588   3.623   2.162  2.3496  0.2448 -2.2392
  121MOL   H11038750   1.434   3.691   2.115  0.0214 -0.6561 -0.6007
  121MOL   H11138751   1.556   3.802   2.179 -0.8506 -0.4942  0.8903
  121MOL   H11238752   1.590   3.849   1.803 -0.3154 -1.1662  0.6705
  121MOL   H11338753   1.464   3.887   1.928 -2.1104 -1.8986 -0.7083
  121MOL   C11438754   1.709   3.514   1.925 -0.0642  1.3993 -0.2507
  121MOL   C11538755   1.834   3.436   1.895  0.2845  0.3073 -0.2980
  121MOL   C11638756   1.579   3.476   1.840  0.0647  0.0476 -0.1113
  121MOL   C11738757   1.504   3.362   1.910  0.1224  0.3017  0.1039
  121MOL   C11838758   1.560   3.221   1.918  0.0975  0.5784  0.4877
  121MOL   C11938759   1.396   3.392   1.987  0.2413  0.0886 -0.1924
  121MOL   H12038760   1.680   3.487   2.027  1.2978  0.3009 -0.1561
  121MOL   H12138761   1.888   3.470   1.807  0.2095  0.5436 -0.2507
  121MOL   H12238762   1.813   3.329   1.893 -2.8050  0.8823 -2.4234
  121MOL   H12338763   1.909   3.446   1.973  0.8033 -1.5802 -0.5177
  121MOL   H12438764   1.507   3.557   1.846 -0.2892 -0.2501 -0.3160
  121MOL   H12538765   1.609   3.194   1.824 -0.6626  0.0693  0.2320
  121MOL   H12638766   1.479   3.151   1.934 -0.3792  0.8046 -0.8324
  121MOL   H12738767   1.621   3.208   2.007 -0.8444  2.6397  1.4661
  121MOL   H12838768   1.360   3.493   1.999 -0.4166 -0.0535 -0.9408
  121MOL   H12938769   1.346   3.308   2.032 -1.5334  2.8036  3.1519
  121MOL   C13038770   1.595   3.472   1.681 -0.4159  0.4005 -0.6917
  121MOL   C13138771   1.682   3.585   1.628 -0.0192  0.1871 -0.0983
  121MOL   C13238772   1.470   3.452   1.591 -0.2388 -0.6189  0.4257
  121MOL   C13338773   1.367   3.345   1.642 -0.4703  0.0731  0.1563
  121MOL   C13438774   1.403   3.202   1.620 -0.2831  0.6134 -0.4018
  121MOL   C13538775   1.244   3.373   1.688  0.2951  0.4647 -0.3418
  121MOL   H13638776   1.653   3.385   1.650  1.1359  0.8949  0.7681
  121MOL   H13738777   1.635   3.681   1.650 -3.7156 -1.6998  0.5817
  121MOL   H13838778   1.707   3.588   1.522  0.9613  1.0922  0.1396
  121MOL   H13938779   1.777   3.597   1.681  0.4192 -1.2196 -0.5402
  121MOL   H14038780   1.421   3.543   1.626 -0.5236 -0.0035 -1.4657
  121MOL   H14138781   1.378   3.164   1.520  0.4304  0.1490 -0.4008
  121MOL   H14238782   1.341   3.148   1.692 -1.6403  0.5122 -1.6077
  121MOL   H14338783   1.507   3.177   1.638 -0.2103  1.1814 -0.0142
  121MOL   H14438784   1.201   3.472   1.700 -0.6830  0.1887 -1.4737
  121MOL   H14538785   1.193   3.288   1.731  0.8097  1.1580  1.7033
  121MOL   C14638786   1.461   3.450   1.436  0.1333  0.1442  0.3961
  121MOL   C14738787   1.583   3.364   1.390  0.1133  0.2506  0.3428
  121MOL   C14838788   1.439   3.601   1.375 -0.3402  0.0584 -0.1085
  121MOL   C14938789   1.321   3.676   1.437 -0.5532  0.0007 -0.1828
  121MOL   C15038790   1.339   3.816   1.483 -0.3721 -0.3171  0.1371
  121MOL   C15138791   1.206   3.607   1.465  0.3291  0.0364 -0.0339
  121MOL   H15238792   1.368   3.399   1.410  0.4627 -0.3743  0.2362
  121MOL   H15338793   1.599   3.278   1.455  0.2419 -1.2400 -1.6057
  121MOL   H15438794   1.675   3.423   1.396  0.2837  0.1883 -1.3188
  121MOL   H15538795   1.592   3.330   1.287 -1.2381 -2.0641  0.9589
  121MOL   H15638796   1.525   3.662   1.404 -1.0385  0.4196  1.2128
  121MOL   H15738797   1.383   3.879   1.407  2.4987  0.9322  2.7221
  121MOL   H15838798   1.399   3.831   1.573 -0.8313 -1.4619  0.6554
  121MOL   H15938799   1.244   3.852   1.524 -0.7873 -0.1874 -0.9361
  121MOL   H16038800   1.194   3.505   1.431 -0.5562  0.3958 -0.8223
  121MOL   H16138801   1.129   3.650   1.527  1.0279 -0.9560  1.5567
  121MOL   C16238802   1.429   3.599   1.215  0.3687 -0.1163 -0.0009
  121MOL   C16338803   1.350   3.471   1.160 -0.6886 -0.1012 -0.3979
  121MOL   C16438804   1.565   3.631   1.132 -0.1990 -1.2874  0.5270
  121MOL   C16538805   1.654   3.747   1.199  0.2466 -0.1206  0.4799
  121MOL   C16638806   1.800   3.700   1.224  0.4603  0.2091 -0.2358
  121MOL   C16738807   1.612   3.867   1.236 -1.0105 -0.0277  0.1823
  121MOL   H16838808   1.362   3.681   1.194  0.9868  0.4912  0.3498
  121MOL   H16938809   1.284   3.518   1.087  0.3082 -1.4576 -2.2123
  121MOL   H17038810   1.275   3.430   1.228 -1.6273 -0.0593 -1.3885
  121MOL   H17138811   1.414   3.386   1.136  0.0625 -0.4505  2.7165
  121MOL   H17238812   1.633   3.547   1.143  1.0707 -0.2273  0.9147
  121MOL   H17338813   1.797   3.623   1.301 -0.9874 -1.0654 -1.5009
  121MOL   H17438814   1.849   3.789   1.263  1.4004 -0.2721 -0.3071
  121MOL   H17538815   1.851   3.662   1.135 -1.6148  0.3738 -1.5397
  121MOL   H17638816   1.508   3.893   1.230 -0.8074  0.5698 -0.9082
  121MOL   H17738817   1.677   3.941   1.281 -1.7945  0.3168  0.7639
  121MOL   C17838818   1.558   3.667   0.973  0.0430  0.4549 -0.2634
  121MOL   C17938819   1.430   3.761   0.947 -0.2169 -0.4628 -0.2680
  121MOL   C18038820   1.567   3.536   0.878  0.1983 -0.0739 -0.3768
  121MOL   C18138821   1.695   3.459   0.896 -0.0769  0.1654  0.1278
  121MOL   C18238822   1.826   3.528   0.868 -0.2489  0.0886 -0.2932
  121MOL   C18338823   1.693   3.333   0.941  0.1378  0.1633 -0.2812
  121MOL   H18438824   1.646   3.729   0.956  0.5366 -0.1450  0.0428
  121MOL   H18538825   1.330   3.718   0.946 -0.4430  0.0471  0.9664
  121MOL   H18638826   1.439   3.813   0.852  1.1540 -1.1374 -0.5253
  121MOL   H18738827   1.439   3.838   1.023 -0.6253  0.4306 -1.1235
  121MOL   H18838828   1.489   3.468   0.912  0.4345  0.1846  0.6957
  121MOL   H18938829   1.831   3.522   0.759  1.2324 -0.0855 -0.2286
  121MOL   H19038830   1.912   3.480   0.915 -0.2251  0.2075 -0.2164
  121MOL   H19138831   1.826   3.630   0.905 -1.7865 -0.4797  1.3640
  121MOL   H19238832   1.597   3.290   0.967 -0.3154  0.2794 -1.6942
  121MOL   H19338833   1.784   3.277   0.953 -0.9024 -1.5542 -0.3290
  121MOL   C19438834   1.538   3.564   0.719 -0.1218 -0.2984  0.1308
  121MOL   C19538835   1.592   3.704   0.668 -0.4126  0.0107 -0.1901
  121MOL   C19638836   1.388   3.538   0.673 -0.5284  0.0812  0.4120
  121MOL   C19738837   1.336   3.405   0.718 -0.3352  0.1479 -0.4255
  121MOL   C19838838   1.410   3.287   0.663 -0.0432  0.1906  0.5063
  121MOL   C19938839   1.236   3.395   0.808 -0.4934 -0.4522  0.4107
  121MOL   H20038840   1.601   3.498   0.661  2.9696  2.4328  0.2489
  121MOL   H20138841   1.669   3.760   0.721  0.3499 -3.0946  2.1427
  121MOL   H20238842   1.522   3.788   0.662 -0.3943  0.5742  5.2030
  121MOL   H20338843   1.628   3.700   0.565 -2.5236  0.0198 -0.9491
  121MOL   H20438844   1.333   3.614   0.728 -1.0035  1.6875 -2.2350
  121MOL   H20538845   1.379   3.186   0.690  1.4570 -0.1642  0.9794
  121MOL   H20638846   1.514   3.286   0.695 -0.3301 -1.6972  1.4148
  121MOL   H20738847   1.413   3.298   0.554  1.9472  1.6888  0.6758
  121MOL   H20838848   1.186   3.475   0.861 -2.0262 -1.0834 -0.0723
  121MOL   H20938849   1.194   3.301   0.842  2.4678 -2.1356 -0.4251
  121MOL   C21038850   1.349   3.560   0.524 -0.6999 -0.5949  0.0115
  121MOL   C21138851   1.460   3.528   0.418  0.2161 -0.1108  0.4533
  121MOL   C21238852   1.287   3.698   0.486 -0.0858 -0.3232  0.7194
  121MOL   C21338853   1.188   3.748   0.595  0.3082  0.0023  0.1335
  121MOL   C21438854   1.047   3.689   0.600 -0.3729 -0.3367 -0.0838
  121MOL   C21538855   1.214   3.847   0.687  0.2587  0.2329 -0.0284
  121MOL   H21638856   1.265   3.494   0.501 -0.3854 -1.0689  0.2242
  121MOL   H21738857   1.554   3.497   0.464  0.4339  0.9314  0.7127
  121MOL   H21838858   1.485   3.620   0.365  0.4077 -0.6756 -0.4360
  121MOL   H21938859   1.438   3.443   0.354  0.0104 -0.7246  1.3310
  121MOL   H22038860   1.370   3.769   0.489  0.8986 -1.4888  1.3521
  121MOL   H22138861   0.982   3.746   0.666 -0.9894 -0.5592 -0.4952
  121MOL   H22238862   1.067   3.590   0.642 -1.5055 -0.5521 -0.0324
  121MOL   H22338863   1.003   3.674   0.501 -1.8553 -0.8644  0.6321
  121MOL   H22438864   1.313   3.890   0.687 -0.2314  1.3978 -2.2358
  121MOL   H22538865   1.140   3.884   0.757 -0.2114  1.9088 -1.3975
  121MOL   C22638866   1.225   3.731   0.341  0.2166  0.4476 -0.4112
  121MOL   C22738867   1.191   3.598   0.267 -0.1425  0.1708 -0.7250
  121MOL   C22838868   1.316   3.824   0.254  0.9631 -0.4639 -0.0290
  121MOL   C22938869   1.397   3.939   0.317  0.7385  0.8674 -0.0999
  121MOL   C23038870   1.308   4.053   0.361  0.4025 -0.8821 -0.3501
  121MOL   C23138871   1.525   3.924   0.354 -0.6421 -0.1116  0.4646
  121MOL   H23238872   1.136   3.792   0.357 -0.0516  0.1751 -0.8518
  121MOL   H23338873   1.129   3.612   0.178 -0.3697 -2.4117 -1.0020
  121MOL   H23438874   1.134   3.534   0.335 -0.4442  1.0232 -0.1630
  121MOL   H23538875   1.276   3.542   0.227 -0.9169 -0.9186 -0.8686
  121MOL   H23638876   1.403   3.766   0.225  0.3679 -0.5223 -1.7962
  121MOL   H23738877   1.376   4.137   0.379 -0.8963 -0.1312  1.2142
  121MOL   H23838878   1.256   4.039   0.457 -1.2988  2.6212 -0.6534
  121MOL   H23938879   1.246   4.094   0.281  0.8362  1.6401  0.5266
  121MOL   H24038880   1.576   3.832   0.331 -0.8581 -0.5782  1.8210
  121MOL   H24138881   1.582   4.000   0.406 -0.8692  0.1755  0.2991
  121MOL   C24238882   1.258   3.877   0.112  0.2676 -0.0794 -1.0030
  121MOL   C24338883   1.100   3.906   0.122 -0.3441 -0.1197  0.5057
  121MOL   C24438884   1.292   3.784   7.879 -0.0840 -0.5317  0.3471
  121MOL   C24538885   1.442   3.746   7.873 -0.2983  0.4298 -0.2397
  121MOL   C24638886   1.482   3.605   7.855 -0.8061  0.2266  0.0591
  121MOL   C24738887   1.533   3.842   7.873 -1.0766 -0.3685 -0.0994
  121MOL   H24838888   1.300   3.977   0.098  0.7105 -0.4926 -2.7986
  121MOL   H24938889   1.037   3.822   0.093 -1.6967  0.8353  0.6388
  121MOL   H25038890   1.078   3.981   0.046 -1.4654 -3.2838 -2.4703
  121MOL   H25138891   1.065   3.954   0.213 -1.1476 -0.1644  0.2268
  121MOL   H25238892   1.241   3.692   0.017 -1.4010  0.1582  0.2379
  121MOL   H25338893   1.422   3.543   0.029  0.1267  2.1311  2.7307
  121MOL   H25438894   1.585   3.607   7.890 -0.4972  0.2276 -0.8380
  121MOL   H25538895   1.473   3.553   7.759  2.2259  1.0179 -0.7143
  121MOL   H25638896   1.511   3.946   7.890 -0.3453 -0.6111  2.5672
  121MOL   H25738897   1.634   3.810   7.849 -0.8026 -0.2001  0.8219
  121MOL   C25838898   1.243   3.824   7.738 -0.4182 -0.3164 -0.1523
  121MOL   C25938899   1.267   3.978   7.717 -0.4711  0.0684 -0.6365
  121MOL   C26038900   1.099   3.774   7.692 -0.1197 -0.0297 -0.2790
  121MOL   C26138901   1.081   3.621   7.720 -0.1699 -0.4875  0.0526
  121MOL   C26238902   0.949   3.579   7.788 -0.0311 -0.3115 -0.3939
  121MOL   C26338903   1.182   3.536   7.687 -0.0452 -0.3289  0.0428
  121MOL   H26438904   1.304   3.775   7.663 -0.3389  1.8268 -1.5082
  121MOL   H26538905   1.176   4.030   7.746 -1.4035 -0.8150 -1.8962
  121MOL   H26638906   1.285   3.997   7.611 -0.6934 -1.6746 -0.9971
  121MOL   H26738907   1.358   4.022   7.759 -1.0877  1.4788 -0.7475
  121MOL   H26838908   1.027   3.811   7.765  0.8500  1.1539  0.0890
  121MOL   H26938909   0.965   3.511   7.871 -1.6469 -0.3434 -0.0919
  121MOL   H27038910   0.888   3.530   7.712 -1.4458 -1.7462  1.6306
  121MOL   H27138911   0.891   3.660   7.833  1.9417  1.0343 -0.1685
  121MOL   H27238912   1.270   3.567   7.632 -0.2769 -1.7294 -1.1724
  121MOL   H27338913   1.169   3.431   7.709 -0.2653 -0.2520  0.2755
  121MOL   C27438914   1.052   3.808   7.546  0.3225 -0.3546  0.6762
  121MOL   C27538915   1.167   3.782   7.448  0.1299 -0.6144  0.1684
  121MOL   C27638916   0.980   3.951   7.538 -0.4487  0.0061 -0.4085
  121MOL   C27738917   0.861   3.963   7.631  0.1356  0.1890 -0.8176
  121MOL   C27838918   0.866   4.082   7.718 -0.6933  0.2785 -0.0416
  121MOL   C27938919   0.766   3.865   7.652  0.1781  0.3408 -0.1148
  121MOL   H28038920   0.987   3.729   7.508  0.5038 -0.8204  1.3227
  121MOL   H28138921   1.261   3.836   7.457  0.0364 -0.0691 -1.9412
  121MOL   H28238922   1.162   3.797   7.341 -2.0397  2.8494  0.6654
  121MOL   H28338923   1.198   3.680   7.472 -0.5557 -0.5916  1.2076
  121MOL   H28438924   1.060   4.021   7.564 -0.5210  0.4086 -1.2374
  121MOL   H28538925   0.779   4.092   7.783 -0.6604  1.6962 -0.1848
  121MOL   H28638926   0.858   4.175   7.661 -1.3024  0.5672  0.5052
  121MOL   H28738927   0.955   4.088   7.780  0.5715  0.7125 -1.8564
  121MOL   H28838928   0.771   3.779   7.587 -0.3592 -0.4694  0.8990
  121MOL   H28938929   0.688   3.869   7.727 -0.6245  0.6891 -0.9581
  121MOL   C29038930   0.943   4.009   7.401  0.1981  0.6035 -0.3938
  121MOL   C29138931   0.872   3.899   7.317 -0.3416  0.4498  0.1561
  121MOL   C29238932   1.062   4.080   7.318 -0.0948  0.2465 -1.0397
  121MOL   C29338933   1.147   4.177   7.397 -0.3771  0.3567  0.3371
  121MOL   C29438934   1.290   4.177   7.370  0.2770  0.2367  0.1299
  121MOL   C29538935   1.083   4.269   7.474  0.1199  0.2978  0.2178
  121MOL   H29638936   0.862   4.077   7.427 -1.6440 -0.9006 -2.0105
  121MOL   H29738937   0.796   3.858   7.382 -0.3233  1.3195  0.7291
  121MOL   H29838938   0.950   3.830   7.283 -1.4411  0.5081 -2.5953
  121MOL   H29938939   0.807   3.944   7.243 -1.0160  0.6777  0.8846
  121MOL   H30038940   1.122   3.991   7.299  0.1743  0.0467  0.7196
  121MOL   H30138941   1.305   4.096   7.300 -0.4196 -2.4861  3.0381
  121MOL   H30238942   1.350   4.161   7.459 -1.9628 -2.9968  1.1590
  121MOL   H30338943   1.297   4.274   7.321 -3.2372  2.4877  3.7013
  121MOL   H30438944   0.977   4.259   7.487  0.1483 -0.0880  0.1638
  121MOL   H30538945   1.128   4.354   7.524 -2.5590 -0.1036  3.4468
  121MOL   C30638946   1.015   4.141   7.183  0.5720  0.4927 -0.5960
  121MOL   C30738947   0.893   4.239   7.197 -1.5386  0.0585 -0.2064
  121MOL   C30838948   1.000   4.055   7.059 -0.2569  0.2392  0.3177
  121MOL   C30938949   1.064   4.110   6.937 -0.1046 -0.0579  1.2581
  121MOL   C31038950   0.998   4.234   6.874 -0.2792 -0.4739 -0.2956
  121MOL   C31138951   1.175   4.064   6.871 -0.7441  0.3792 -0.3361
  121MOL   H31238952   1.106   4.199   7.167  0.0275  1.1231 -1.5046
  121MOL   H31338953   0.880   4.307   7.113 -2.0003  0.0539 -0.1420
  121MOL   H31438954   0.919   4.304   7.281  1.5745 -1.1955 -0.1257
  121MOL   H31538955   0.805   4.183   7.227 -0.6825  0.2484  2.8146
  121MOL   H31638956   1.045   3.956   7.068 -0.4488  0.1821  0.6812
  121MOL   H31738957   0.892   4.208   6.869 -0.4108 -0.0705  0.3357
  121MOL   H31838958   1.036   4.260   6.775  0.0091 -0.9108 -0.3008
  121MOL   H31938959   1.018   4.320   6.937 -0.2230  0.5106 -1.6262
  121MOL   H32038960   1.220   3.973   6.909  0.4856  0.9294 -0.4615
  121MOL   H32138961   1.228   4.107   6.788  2.5748 -0.5040  1.2234
  121MOL   H32238962   0.898   4.020   7.042  0.8211 -2.4131 -0.8502
  122MOL     C138963   5.201   0.102   6.523 -0.4466  0.0490 -0.0681
  122MOL     C238964   5.146   0.045   6.396  0.7494 -0.1491  0.6879
  122MOL     C338965   5.099   0.137   6.638 -0.8402  0.1973  0.0918
  122MOL     C438966   4.985   0.226   6.591 -0.0479 -0.1126  0.1605
  122MOL     C538967   4.832   0.182   6.616 -0.1164  0.3209  0.0336
  122MOL     C638968   5.001   0.354   6.539  0.5617 -0.5446 -0.9428
  122MOL     H738969   5.282   0.039   6.559 -1.0843  0.1366  1.5465
  122MOL     H838970   5.085   7.850   6.422 -0.0895 -0.3758 -1.9674
  122MOL     H938971   5.229   0.013   6.333 -0.0482  0.0291 -0.4633
  122MOL    H1038972   5.081   0.110   6.338  0.7282  1.3410  2.3191
  122MOL    H1138973   5.054   0.041   6.666  0.3112 -1.1877 -2.6428
  122MOL    H1238974   4.832   0.074   6.597  0.1274 -0.0147  1.8481
  122MOL    H1338975   4.755   0.243   6.569 -1.2466 -1.8599 -1.0675
  122MOL    H1438976   4.816   0.188   6.723 -1.1673 -1.4819 -0.0045
  122MOL    H1538977   5.099   0.396   6.520  0.2888 -0.3659 -1.9442
  122MOL    H1638978   4.917   0.415   6.511 -0.0511 -1.5057 -1.2121
  122MOL    H1738979   5.252   0.195   6.499 -1.6120  0.8504  0.5576
  122MOL    C1838980   5.165   0.192   6.771  0.9445  0.9542 -0.3435
  122MOL    C1938981   5.291   0.275   6.733  0.8813 -0.3554  0.2533
  122MOL    C2038982   5.190   0.087   6.882  0.0203  0.5872  0.0328
  122MOL    C2138983   5.072   7.883   6.913 -0.2534 -0.3537 -0.3051
  122MOL    C2238984   4.951   0.033   6.990  0.0400  0.0663  0.3021
  122MOL    C2338985   5.080   7.752   6.871  0.6730 -0.7933  0.3659
  122MOL    H2438986   5.087   0.249   6.822  2.6215  0.4464  2.9162
  122MOL    H2538987   5.277   0.334   6.642  4.9744 -1.3150 -1.1083
  122MOL    H2638988   5.373   0.210   6.704  0.7274 -0.3257 -0.2430
  122MOL    H2738989   5.313   0.340   6.818 -2.4905 -0.9734  1.6958
  122MOL    H2838990   5.263   0.019   6.839  1.0189  1.0298  1.0008
  122MOL    H2938991   4.964   0.013   7.096 -0.8109  0.1394  0.4200
  122MOL    H3038992   4.871   7.860   6.956  0.0971  0.3463 -0.3731
  122MOL    H3138993   4.916   0.135   6.972  1.0214  0.5405  1.0502
  122MOL    H3238994   5.168   7.724   6.815  0.8369  0.8918 -0.2456
  122MOL    H3338995   5.004   7.679   6.894  1.7529 -1.3301  2.4553
  122MOL    C3438996   5.255   0.150   7.014  0.3641  0.0669  0.8014
  122MOL    C3538997   5.186   0.279   7.068  0.2104  0.0432 -0.1918
  122MOL    C3638998   5.415   0.159   7.018 -0.3211  0.1073  0.3734
  122MOL    C3738999   5.486   0.030   6.968  0.0354  0.4665  0.5433
  122MOL    C3839000   5.445   7.787   7.030  0.2650  0.4940  0.3306
  122MOL    C3939001   5.579   0.021   6.875 -0.3032  0.5868  0.4082
  122MOL    H4039002   5.227   0.068   7.080 -1.7214 -0.9651 -1.2881
  122MOL    H4139003   5.197   0.361   6.998  0.2177  0.7267  0.5959
  122MOL    H4239004   5.221   0.314   7.165  1.1660 -1.7428  0.1254
  122MOL    H4339005   5.083   0.251   7.090  1.2162 -2.4368  1.6778
  122MOL    H4439006   5.449   0.227   6.940  1.5649 -0.7511  0.4277
  122MOL    H4539007   5.468   7.706   6.960 -2.6860  1.2664 -1.6044
  122MOL    H4639008   5.338   7.771   7.039 -0.0386 -0.3005 -3.5814
  122MOL    H4739009   5.488   7.758   7.126  0.0319 -1.1281 -0.0279
  122MOL    H4839010   5.621   0.101   6.816  1.5163 -0.3033  0.4559
  122MOL    H4939011   5.620   7.816   6.852  1.0960  1.1054  0.6386
  122MOL    C5039012   5.487   0.197   7.156 -0.4868 -0.4121 -0.6158
  122MOL    C5139013   5.420   0.128   7.275  0.4055 -0.3472  0.7034
  122MOL    C5239014   5.511   0.348   7.198  0.2749  0.2149  0.2877
  122MOL    C5339015   5.550   0.431   7.078 -0.4735  0.3293  0.2790
  122MOL    C5439016   5.692   0.405   7.029 -0.7162 -0.0197  0.3311
  122MOL    C5539017   5.465   0.517   7.020  0.0427 -0.6548 -0.2060
  122MOL    H5639018   5.586   0.153   7.146 -0.9148 -0.8594 -3.1192
  122MOL    H5739019   5.411   0.021   7.259  1.4952 -0.1126 -1.6283
  122MOL    H5839020   5.315   0.154   7.291  0.8220  1.2183  0.9350
  122MOL    H5939021   5.478   0.139   7.366 -0.2943 -1.2622  1.2778
  122MOL    H6039022   5.409   0.383   7.208  0.2113  0.4729 -1.2011
  122MOL    H6139023   5.709   0.302   6.997 -0.8881  0.4968 -1.5210
  122MOL    H6239024   5.769   0.425   7.103 -0.3826 -2.3954  0.6767
  122MOL    H6339025   5.707   0.478   6.949  0.0790  1.2180  1.6009
  122MOL    H6439026   5.375   0.533   7.077  0.1526  1.1063 -0.4984
  122MOL    H6539027   5.477   0.572   6.928  0.2609 -0.4737 -0.0727
  122MOL    C6639028   5.591   0.386   7.325  0.5925  0.1809  0.3697
  122MOL    C6739029   5.702   0.283   7.349  0.2173 -0.0300 -0.0782
  122MOL    C6839030   5.488   0.416   7.445 -0.4054 -0.7262 -0.5756
  122MOL    C6939031   5.399   0.544   7.406  0.2512 -0.0778 -0.4504
  122MOL    C7039032   5.270   0.553   7.483  0.8725 -0.1732  0.0029
  122MOL    C7139033   5.430   0.645   7.316 -0.2041  1.3209 -0.7952
  122MOL    H7239034   5.641   0.480   7.304  0.1076  0.4735  0.5188
  122MOL    H7339035   5.677   0.181   7.374 -1.0767  0.1879 -0.4589
  122MOL    H7439036   5.758   0.308   7.439 -1.4676 -0.1159  1.0074
  122MOL    H7539037   5.762   0.272   7.259 -0.7647 -0.0656 -0.7360
  122MOL    H7639038   5.415   0.335   7.451  0.8850 -1.8072  0.8400
  122MOL    H7739039   5.216   0.458   7.485  0.0543  0.2740 -0.5132
  122MOL    H7839040   5.202   0.629   7.445  2.2143  0.3591 -1.3862
  122MOL    H7939041   5.278   0.568   7.591 -0.6648  0.9515 -0.0098
  122MOL    H8039042   5.531   0.650   7.278  0.3232  1.2937  0.5930
  122MOL    H8139043   5.354   0.717   7.290 -0.3573  0.8059 -1.8044
  122MOL    C8239044   5.547   0.448   7.586 -0.4561 -0.5051 -0.1006
  122MOL    C8339045   5.665   0.542   7.581 -0.3245  0.2728 -1.1938
  122MOL    C8439046   5.590   0.316   7.666  1.2411 -0.2830  0.3149
  122MOL    C8539047   5.489   0.200   7.660 -0.6411  0.4399 -0.2923
  122MOL    C8639048   5.346   0.226   7.694 -0.0964 -0.1108  0.1339
  122MOL    C8739049   5.531   0.077   7.635  0.2467  0.4043 -0.1907
  122MOL    H8839050   5.466   0.491   7.645 -1.2398  0.4694 -1.8653
  122MOL    H8939051   5.696   0.573   7.681  0.9826  1.2116 -1.8790
  122MOL    H9039052   5.645   0.639   7.537 -0.8282 -0.0585 -1.7071
  122MOL    H9139053   5.752   0.503   7.528  0.2620 -0.9146  0.5887
  122MOL    H9239054   5.668   0.266   7.610  1.3831  2.3706 -1.9497
  122MOL    H9339055   5.325   0.219   7.801 -2.3119  2.0945 -0.1284
  122MOL    H9439056   5.281   0.151   7.649  0.3043 -0.7594  0.6251
  122MOL    H9539057   5.321   0.325   7.658 -0.1857  0.7816  2.5344
  122MOL    H9639058   5.632   0.041   7.622 -0.1441 -0.8044  0.0604
  122MOL    H9739059   5.461   7.887   7.635  1.7710 -0.9325 -1.4991
  122MOL    C9839060   5.650   0.329   7.809 -0.3701  0.1765  0.3811
  122MOL    C9939061   5.572   0.428   0.002  0.6891 -0.6388  0.2252
  122MOL   C10039062   5.809   0.347   7.822 -0.0420 -0.4935 -0.6320
  122MOL   C10139063   5.893   0.255   7.732 -0.2040  0.1411  0.0180
  122MOL   C10239064   5.885   0.106   7.752 -1.1427  0.2761  0.1112
  122MOL   C10339065   5.961   0.303   7.634 -0.4590  0.3014 -0.0971
  122MOL   H10439066   5.624   0.229   7.843  2.4371 -0.6818  0.1643
  122MOL   H10539067   5.594   0.439   0.108 -1.6031  0.8063  0.5973
  122MOL   H10639068   5.472   0.384   0.005  0.1262  0.3004 -2.7873
  122MOL   H10739069   5.575   0.521   7.837  0.3600 -1.4236 -1.0942
  122MOL   H10839070   5.821   0.448   7.783 -3.5940  0.5397  0.6722
  122MOL   H10939071   5.933   0.080   7.846  2.5484  1.4696 -1.3464
  122MOL   H11039072   5.942   0.043   7.684  0.1679  0.4185  1.0645
  122MOL   H11139073   5.781   0.074   7.742 -1.3622  1.3111 -1.1988
  122MOL   H11239074   5.960   0.409   7.612  0.2097  0.5336  0.9466
  122MOL   H11339075   6.031   0.246   7.575  1.5683 -0.4916  2.9545
  122MOL   C11439076   5.869   0.337   0.076  0.0601 -0.9390  0.3068
  122MOL   C11539077   5.800   0.235   0.159  0.2483 -0.9874 -0.6342
  122MOL   C11639078   5.893   0.483   0.138 -0.0832 -0.3392  0.4595
  122MOL   C11739079   5.970   0.587   0.058 -0.1559 -0.3544  0.1682
  122MOL   C11839080   5.924   0.730   0.064 -0.0413 -0.0967  0.1019
  122MOL   C11939081   6.081   0.559   7.884  0.6352  0.2312 -0.2281
  122MOL   H12039082   5.973   0.304   0.068  0.6495  1.1901 -0.9814
  122MOL   H12139083   5.857   0.190   0.240 -2.4548 -1.6010  0.9753
  122MOL   H12239084   5.781   0.154   0.089  1.0412  0.1995 -2.2791
  122MOL   H12339085   5.706   0.266   0.203 -0.1899 -3.1731 -0.0063
  122MOL   H12439086   5.795   0.531   0.137 -1.0258 -2.2294  0.0947
  122MOL   H12539087   5.816   0.740   0.059 -0.2070 -2.3396 -1.5578
  122MOL   H12639088   5.966   0.777   7.868  3.4983 -2.0790  0.6298
  122MOL   H12739089   5.952   0.765   0.163 -0.7047 -0.9895  0.6092
  122MOL   H12839090   6.106   0.454   7.880  1.1484  0.3963 -2.1356
  122MOL   H12939091   6.143   0.625   7.826 -1.4258  1.2369 -1.3784
  122MOL   C13039092   5.927   0.495   0.290  0.6367  0.8107 -0.2657
  122MOL   C13139093   6.060   0.413   0.315 -0.2128  0.2610 -0.0086
  122MOL   C13239094   5.813   0.468   0.403 -0.3272 -0.8054  0.4280
  122MOL   C13339095   5.671   0.519   0.374  0.1986  0.3168 -0.1939
  122MOL   C13439096   5.657   0.675   0.370 -0.1227  0.2570 -0.3675
  122MOL   C13539097   5.559   0.439   0.369 -0.5625  0.6129  0.1888
  122MOL   H13639098   5.947   0.601   0.310 -0.8470  0.9771  0.3848
  122MOL   H13739099   6.131   0.420   0.233 -0.1106  0.4687  0.0969
  122MOL   H13839100   6.039   0.312   0.350  0.7030  0.4134  0.9908
  122MOL   H13939101   6.109   0.450   0.405 -1.1307 -1.2513  1.1512
  122MOL   H14039102   5.787   0.362   0.400  0.0991 -0.9381  1.2877
  122MOL   H14139103   5.735   0.724   0.313  0.2194 -1.2846 -1.2414
  122MOL   H14239104   5.659   0.708   0.474  2.4798  1.7285 -0.8554
  122MOL   H14339105   5.558   0.700   0.332 -0.2225  1.5956  0.7376
  122MOL   H14439106   5.567   0.334   0.392  1.2858  0.8269  0.6002
  122MOL   H14539107   5.457   0.473   0.361 -1.5747 -1.6572  2.6599
  122MOL   C14639108   5.851   0.486   0.556  0.5432  0.4022  0.1126
  122MOL   C14739109   5.927   0.612   0.578  0.0888 -0.0731 -0.0026
  122MOL   C14839110   5.903   0.356   0.636 -0.2381 -0.0690  0.2330
  122MOL   C14939111   5.834   0.225   0.593  0.0055  0.4294  0.2240
  122MOL   C15039112   5.933   0.113   0.562  0.4766 -0.3729  0.2752
  122MOL   C15139113   5.699   0.217   0.596 -0.2863 -0.1555  0.8730
  122MOL   H15239114   5.750   0.496   0.595  1.1004 -1.2692  2.1059
  122MOL   H15339115   5.932   0.656   0.678 -0.1596  0.7252 -0.3386
  122MOL   H15439116   5.869   0.692   0.534 -0.0976 -0.5154 -0.5647
  122MOL   H15539117   6.028   0.624   0.538 -0.4073  1.1878 -0.8988
  122MOL   H15639118   6.009   0.353   0.609  0.1723  2.1759  1.4722
  122MOL   H15739119   6.022   0.137   0.504 -0.2346 -0.7868 -0.9932
  122MOL   H15839120   5.875   0.051   0.494  0.9010 -0.4414 -0.0212
  122MOL   H15939121   5.958   0.072   0.660 -0.3246  0.7370  0.9722
  122MOL   H16039122   5.631   0.298   0.615  0.7264  0.9816 -0.3304
  122MOL   H16139123   5.660   0.122   0.561  2.4976 -0.5491 -1.3301
  122MOL   C16239124   5.903   0.374   0.790 -0.1797  0.7269  0.0587
  122MOL   C16339125   5.795   0.468   0.856 -0.5028  0.4491  0.3638
  122MOL   C16439126   6.040   0.371   0.868 -0.1430 -0.5138  0.8771
  122MOL   C16539127   6.143   0.479   0.823  0.2550  1.1927 -0.3911
  122MOL   C16639128   6.119   0.616   0.891  0.5353  0.0608 -0.1358
  122MOL   C16739129   6.235   0.458   0.732  0.5383 -0.5127  0.0619
  122MOL   H16839130   5.865   0.280   0.829  0.4862  0.2858 -0.3335
  122MOL   H16939131   5.804   0.458   0.964  0.3258 -0.8486  0.1825
  122MOL   H17039132   5.696   0.435   0.824 -0.7840  0.8010  0.8647
  122MOL   H17139133   5.808   0.571   0.824  1.6454  0.8620  2.3941
  122MOL   H17239134   6.011   0.399   0.969 -0.3389  2.7843 -0.0264
  122MOL   H17339135   6.199   0.687   0.868 -3.2542  3.7734 -2.4799
  122MOL   H17439136   6.107   0.615   0.999 -0.3126 -0.0475 -0.2284
  122MOL   H17539137   6.029   0.662   0.852  0.8030 -1.1241 -2.2311
  122MOL   H17639138   6.250   0.363   0.682 -2.6282 -0.8537 -0.3164
  122MOL   H17739139   6.296   0.541   0.701  0.9431 -0.9485 -0.3249
  122MOL   C17839140   6.108   0.223   0.878  0.4786  0.0809 -0.2510
  122MOL   C17939141   6.019   0.119   0.952 -0.0573 -0.1815  0.5742
  122MOL   C18039142   6.254   0.212   0.945  0.6918  0.5170 -0.2889
  122MOL   C18139143   6.315   0.090   0.881  0.2758 -0.1382  0.0456
  122MOL   C18239144   6.344   0.085   0.729  0.4917  0.8502 -0.2602
  122MOL   C18339145   6.344   7.879   0.959 -0.2485  0.2832  0.5818
  122MOL   H18439146   6.125   0.189   0.776  1.6370 -0.7871  0.2224
  122MOL   H18539147   5.962   0.159   1.036  1.0504  0.5108  1.0023
  122MOL   H18639148   6.087   0.043   0.988  1.6486  1.6596  1.3360
  122MOL   H18739149   5.957   0.062   0.883 -0.9089  1.1595  0.2218
  122MOL   H18839150   6.313   0.292   0.899  1.3236 -1.5829 -3.3251
  122MOL   H18939151   6.255   0.080   0.666  0.3453  2.2884 -0.1761
  122MOL   H19039152   6.394   7.883   0.707 -0.8282  0.3114 -1.0168
  122MOL   H19139153   6.384   0.180   0.695 -1.3798  1.2213 -1.5256
  122MOL   H19239154   6.339   7.879   1.067  0.4556  0.0287  0.6158
  122MOL   H19339155   6.381   7.786   0.919 -1.4745  0.4548 -1.0049
  122MOL   C19439156   6.266   0.222   1.105 -0.4634  0.4314 -0.4540
  122MOL   C19539157   6.170   0.334   1.167  0.3247  0.5295  0.5697
  122MOL   C19639158   6.420   0.235   1.154 -0.7706 -0.1844 -0.2378
  122MOL   C19739159   6.441   0.154   1.283 -0.0924  0.1569  0.0676
  122MOL   C19839160   6.374   0.192   1.423 -0.4342  0.0157  0.3649
  122MOL   C19939161   6.504   0.034   1.271 -0.0080 -0.3018  0.2840
  122MOL   H20039162   6.224   0.132   1.149  0.0016 -1.2407 -3.2848
  122MOL   H20139163   6.064   0.313   1.158  0.8936 -1.2512 -3.4276
  122MOL   H20239164   6.175   0.434   1.124 -0.9153  0.1606 -0.4654
  122MOL   H20339165   6.192   0.344   1.273  1.0815  2.8192  0.2217
  122MOL   H20439166   6.480   0.184   1.079 -0.4175 -0.2293  0.0691
  122MOL   H20539167   6.414   0.289   1.454  2.6197 -1.1519  0.2687
  122MOL   H20639168   6.426   0.122   1.488  1.3140  0.2013 -0.8118
  122MOL   H20739169   6.267   0.182   1.442  0.1359  1.3714  4.8386
  122MOL   H20839170   6.545   0.002   1.177 -0.1097 -0.7741  0.4013
  122MOL   H20939171   6.522   7.865   1.359 -0.8969  0.0999  0.7471
  122MOL   C21039172   6.477   0.381   1.170  0.5120 -0.8232  0.8970
  122MOL   C21139173   6.485   0.451   1.030 -0.6337 -0.5715 -0.4786
  122MOL   C21239174   6.619   0.403   1.236 -0.6877  0.0012 -0.4270
  122MOL   C21339175   6.617   0.540   1.296  0.0486  0.1428 -0.2664
  122MOL   C21439176   6.576   0.554   1.440 -0.0903  0.0050  0.4747
  122MOL   C21539177   6.656   0.648   1.221 -0.1796 -0.0369 -0.8352
  122MOL   H21639178   6.399   0.433   1.226 -1.3357 -0.4897 -1.8618
  122MOL   H21739179   6.388   0.470   0.983  0.4766  1.1754 -2.1346
  122MOL   H21839180   6.550   0.399   0.960 -0.1838  0.9720 -1.2060
  122MOL   H21939181   6.514   0.556   1.027 -0.7252 -0.4865  1.1744
  122MOL   H22039182   6.629   0.328   1.314 -0.2559  0.5300  0.0319
  122MOL   H22139183   6.560   0.654   1.480  1.7659  0.1433  0.9328
  122MOL   H22239184   6.647   0.490   1.493 -0.4021 -2.3210 -1.8017
  122MOL   H22339185   6.483   0.498   1.444  1.1352 -2.0313  1.4294
  122MOL   H22439186   6.698   0.658   1.122  1.9484  3.3643  0.3152
  122MOL   H22539187   6.647   0.744   1.270 -2.4893  0.5858 -2.4283
  122MOL   C22639188   6.743   0.374   1.138  0.1793  0.8550 -0.2436
  122MOL   C22739189   6.757   0.232   1.085  0.5434  0.2428 -0.4626
  122MOL   C22839190   6.890   0.420   1.193  0.1815 -0.4518 -0.3093
  122MOL   C22939191   6.974   0.480   1.082  0.4205  0.1257  0.5376
  122MOL   C23039192   7.051   0.387   0.995  0.4253 -0.1678  0.5523
  122MOL   C23139193   6.991   0.609   1.075 -0.7527 -0.3911  0.1915
  122MOL   H23239194   6.741   0.444   1.054 -0.0955  1.2468  0.0902
  122MOL   H23339195   6.752   0.160   1.167  0.1798  0.3778 -0.3655
  122MOL   H23439196   6.849   0.219   1.027 -0.0817  0.7801 -1.6056
  122MOL   H23539197   6.684   0.202   1.009 -1.7046  0.3076  1.6000
  122MOL   H23639198   6.878   0.500   1.266  2.9505 -0.9716  0.7314
  122MOL   H23739199   7.134   0.435   0.944  1.0345  1.0726  2.6653
  122MOL   H23839200   6.981   0.356   0.917  1.6091 -2.8376  0.4827
  122MOL   H23939201   7.086   0.300   1.051 -1.5716  0.8192  3.4732
  122MOL   H24039202   6.960   0.689   1.141 -0.5298  0.5803 -0.8461
  122MOL   H24139203   7.059   0.651   1.002  0.3471  0.8461  1.8589
  122MOL   C24239204   6.960   0.311   1.289  0.3145  0.5300 -0.3145
  122MOL   C24339205   6.874   0.266   1.408 -0.3873 -0.8123 -0.3122
  122MOL   C24439206   7.112   0.344   1.338 -0.6226  0.6919 -0.3424
  122MOL   C24539207   7.198   0.211   1.359 -1.2180 -0.4540 -0.1820
  122MOL   C24639208   7.271   0.162   1.239 -0.1094 -0.2605 -0.0185
  122MOL   C24739209   7.217   0.150   1.483  1.0448 -0.1563  0.9282
  122MOL   H24839210   6.982   0.224   1.227  1.7763  0.9267 -0.3635
  122MOL   H24939211   6.840   0.336   1.484 -1.0586 -2.4809  0.9499
  122MOL   H25039212   6.935   0.193   1.462 -2.1386 -1.5504  0.6814
  122MOL   H25139213   6.783   0.212   1.383 -0.0898 -0.9475 -1.1475
  122MOL   H25239214   7.160   0.391   1.252 -0.4202  0.5303 -0.3196
  122MOL   H25339215   7.311   0.064   1.265 -0.6612 -0.4014  0.3109
  122MOL   H25439216   7.355   0.228   1.218 -0.6531  0.5715  0.3896
  122MOL   H25539217   7.200   0.141   1.159 -1.0007 -2.1044  1.2146
  122MOL   H25639218   7.176   0.187   1.576 -1.5617  0.5231 -0.4346
  122MOL   H25739219   7.270   0.056   1.488  1.8210  0.3231  1.8248
  122MOL   C25839220   7.129   0.439   1.460 -0.8418 -0.8972 -0.3646
  122MOL   C25939221   7.056   0.571   1.448  0.3057  0.3699  0.2395
  122MOL   C26039222   7.279   0.472   1.524 -0.7289  0.2093  0.3812
  122MOL   C26139223   7.280   0.470   1.676 -0.0153  0.6031 -0.1175
  122MOL   C26239224   7.187   0.572   1.739  0.4076 -0.3911  0.5554
  122MOL   C26339225   7.347   0.378   1.746 -0.3836 -0.4433 -0.2108
  122MOL   H26439226   7.078   0.387   1.541  3.8996 -2.0486  2.0672
  122MOL   H26539227   7.088   0.658   1.506 -0.6347  0.3633  0.7862
  122MOL   H26639228   6.951   0.546   1.466  0.4469 -0.9566 -0.7277
  122MOL   H26739229   7.062   0.602   1.344 -1.6316  0.5658  0.1638
  122MOL   H26839230   7.336   0.382   1.503 -1.9395 -0.4940  0.0916
  122MOL   H26939231   7.082   0.557   1.712  0.2682  0.8196  0.4027
  122MOL   H27039232   7.204   0.666   1.687  0.3714 -0.1415  0.9942
  122MOL   H27139233   7.210   0.572   1.846  2.7611 -0.7022  0.0820
  122MOL   H27239234   7.404   0.294   1.710 -0.4711 -0.8899  0.6945
  122MOL   H27339235   7.341   0.381   1.854  1.1791 -0.3093 -0.1154
  122MOL   C27439236   7.362   0.589   1.455 -0.3500  0.3143 -0.5541
  122MOL   C27539237   7.352   0.571   1.297  0.5806 -0.3871 -0.4493
  122MOL   C27639238   7.503   0.607   1.511  0.0280 -0.0426 -0.4244
  122MOL   C27739239   7.525   0.758   1.540  0.1932 -0.9568 -0.7962
  122MOL   C27839240   7.532   0.855   1.425 -0.2337  0.9277  0.3985
  122MOL   C27939241   7.539   0.799   1.665 -0.5744 -0.5642 -0.2782
  122MOL   H28039242   7.306   0.678   1.481 -0.0393 -0.0904  1.5608
  122MOL   H28139243   7.427   0.630   1.244 -0.0570  0.3436 -0.5419
  122MOL   H28239244   7.252   0.596   1.262  0.6780  0.8363  0.1464
  122MOL   H28339245   7.366   0.465   1.272  1.8040 -0.1184 -0.9359
  122MOL   H28439246   7.504   0.560   1.609 -1.5636 -0.6808 -0.7123
  122MOL   H28539247   7.608   0.812   1.359 -1.8120  1.0968 -1.5655
  122MOL   H28639248   7.569   0.952   1.456 -0.0370  0.9721  0.0305
  122MOL   H28739249   7.441   0.869   1.367 -1.0775  0.1470  1.5054
  122MOL   H28839250   7.527   0.734   1.750 -1.7353 -0.3185 -0.2439
  122MOL   H28939251   7.565   0.901   1.690  2.7830 -1.1814 -1.0090
  122MOL   C29039252   7.625   0.539   1.437 -0.2562 -0.3159 -0.2346
  122MOL   C29139253   7.611   0.380   1.434  0.1917  0.3047 -0.1221
  122MOL   C29239254   7.778   0.585   1.480  0.5013 -0.1069  0.4772
  122MOL   C29339255   7.877   0.573   1.355  0.2626 -0.1665  0.6506
  122MOL   C29439256   0.129   0.609   1.389 -0.0790 -0.8647 -0.7468
  122MOL   C29539257   7.853   0.505   1.239  0.1378 -0.2159 -0.8175
  122MOL   H29639258   7.614   0.571   1.333  1.1777 -0.6128 -0.4861
  122MOL   H29739259   7.534   0.352   1.363 -0.4228  0.9661  0.2708
  122MOL   H29839260   7.597   0.328   1.529  1.9690  0.4371  0.2191
  122MOL   H29939261   7.703   0.348   1.387 -0.4757 -0.5200 -0.8725
  122MOL   H30039262   7.783   0.694   1.486  1.1777 -0.1797  1.2831
  122MOL   H30139263   0.135   0.708   1.435 -1.4429 -1.7314  1.3405
  122MOL   H30239264   0.196   0.595   1.304 -1.8513  3.1886 -2.9699
  122MOL   H30339265   0.174   0.538   1.458 -0.7859  1.6892  2.4942
  122MOL   H30439266   7.754   0.467   1.218  0.2421 -0.0436 -1.6404
  122MOL   H30539267   0.038   0.492   1.164 -0.4341 -0.8249 -1.3046
  122MOL   C30639268   7.819   0.547   1.628  0.1907  0.0765 -0.5215
  122MOL   C30739269   0.013   0.663   1.695  0.6108 -0.0895 -0.1076
  122MOL   C30839270   7.885   0.407   1.635 -0.5093  0.6690  0.1156
  122MOL   C30939271   7.874   0.335   1.768 -0.6434  0.1498  0.5333
  122MOL   C31039272   7.734   0.285   1.814  0.7589 -0.1883  0.0993
  122MOL   C31139273   0.089   0.302   1.844  0.1826  0.5033 -0.0069
  122MOL   H31239274   7.732   0.541   1.692  0.9144  1.4605  0.6117
  122MOL   H31339275   0.016   0.659   1.804  0.2810  1.0870 -0.0464
  122MOL   H31439276   7.862   0.758   1.662 -0.1231 -0.6124 -0.6681
  122MOL   H31539277   0.116   0.663   1.661  0.4306  1.1407 -0.7078
  122MOL   H31639278   7.833   0.338   1.568  0.2089  0.0746  0.1591
  122MOL   H31739279   7.658   0.362   1.803  2.5253  1.8714  1.8111
  122MOL   H31839280   7.740   0.256   1.919  2.2352 -2.2148 -0.5235
  122MOL   H31939281   7.699   0.199   1.757  0.1106  1.0293 -1.3773
  122MOL   H32039282   0.185   0.336   1.810 -0.8404  1.6562 -1.8288
  122MOL   H32139283   0.091   0.253   1.940  2.3375  1.7945  0.6258
  122MOL   H32239284   0.094   0.418   1.596  0.0821  1.1575  1.7849
  123MOL     C139285   1.710   5.640   0.955  0.0767  0.5194  0.6010
  123MOL     C239286   1.661   5.536   0.851  0.5543 -0.1794 -0.6318
  123MOL     C339287   1.706   5.783   0.902 -0.0978 -0.2353  0.0651
  123MOL     C439288   1.808   5.815   0.793 -0.3783  0.3653 -0.4670
  123MOL     C539289   1.754   5.913   0.694  0.0103  0.5314 -0.1941
  123MOL     C639290   1.930   5.761   0.777  0.4596  0.2706 -0.4284
  123MOL     H739291   1.641   5.643   1.039 -0.1154  1.2311  0.4228
  123MOL     H839292   1.635   5.437   0.887  2.4409 -1.0669 -1.6372
  123MOL     H939293   1.729   5.519   0.767  1.8798  2.4591 -0.1489
  123MOL    H1039294   1.569   5.572   0.806  2.2391  1.7964 -2.6409
  123MOL    H1139295   1.606   5.793   0.858  0.5563 -1.3146 -1.7122
  123MOL    H1239296   1.820   5.918   0.608 -2.3772 -0.7761 -2.1667
  123MOL    H1339297   1.744   6.019   0.717  0.7478  0.6452 -0.3779
  123MOL    H1439298   1.663   5.869   0.652 -1.1688  0.1517  2.6124
  123MOL    H1539299   1.969   5.688   0.846  0.4412  0.9458  0.2973
  123MOL    H1639300   1.995   5.795   0.697 -0.5062  2.2253 -0.3997
  123MOL    H1739301   1.804   5.608   0.999  1.4881  0.5650 -2.2696
  123MOL    C1839302   1.717   5.896   1.015 -0.6074  0.1444 -0.0537
  123MOL    C1939303   1.861   5.897   1.077  0.1415 -0.2318  0.3095
  123MOL    C2039304   1.603   5.888   1.129  0.0220  0.7869 -0.2606
  123MOL    C2139305   1.465   5.884   1.065 -0.3626 -0.8448 -0.3456
  123MOL    C2239306   1.387   5.764   1.113 -0.3986 -0.3986  0.7309
  123MOL    C2339307   1.416   5.974   0.978 -0.6362 -0.8187  0.1794
  123MOL    H2439308   1.696   5.986   0.957 -0.3402  0.5929  0.5356
  123MOL    H2539309   1.878   5.799   1.122  0.7750 -1.2056 -1.9768
  123MOL    H2639310   1.876   5.982   1.144 -1.5938  0.3359  0.0127
  123MOL    H2739311   1.940   5.909   1.002 -1.2584  3.0048 -0.7555
  123MOL    H2839312   1.614   5.793   1.182  0.3825 -0.1710 -2.0166
  123MOL    H2939313   1.305   5.742   1.044 -0.6870  0.0165  0.9362
  123MOL    H3039314   1.347   5.798   1.209  1.3575 -0.7561  1.6090
  123MOL    H3139315   1.445   5.674   1.130  0.5668  0.1327  0.2937
  123MOL    H3239316   1.486   6.047   0.941  1.3951 -3.3614 -1.1494
  123MOL    H3339317   1.313   5.975   0.945 -0.4635  2.8346 -0.4684
  123MOL    C3439318   1.613   6.010   1.231 -0.0732  0.2268 -0.4189
  123MOL    C3539319   1.663   6.146   1.165  0.1528 -0.1601  0.5310
  123MOL    C3639320   1.679   5.974   1.365 -0.7235  0.3043 -0.0222
  123MOL    C3739321   1.643   5.839   1.425 -0.3129 -0.1761  0.0542
  123MOL    C3839322   1.759   5.739   1.425 -0.0058  0.3546  0.4278
  123MOL    C3939323   1.522   5.792   1.450  0.0887 -0.2821  0.1875
  123MOL    H4039324   1.515   6.030   1.274  0.0061  0.2034 -0.2219
  123MOL    H4139325   1.683   6.236   1.224  1.5178 -0.4411  0.5063
  123MOL    H4239326   1.589   6.180   1.093  0.6705  0.4152  0.2647
  123MOL    H4339327   1.747   6.139   1.096 -0.0313  2.2454  0.0108
  123MOL    H4439328   1.784   5.952   1.343 -1.3490 -4.3043  1.0575
  123MOL    H4539329   1.862   5.775   1.430  0.4615 -1.3101  3.9189
  123MOL    H4639330   1.749   5.686   1.330  0.2456 -4.2934  2.8400
  123MOL    H4739331   1.746   5.661   1.500 -3.9106 -0.6689 -1.1520
  123MOL    H4839332   1.432   5.850   1.435  0.6583  0.0114 -2.2827
  123MOL    H4939333   1.505   5.691   1.484 -1.3567  0.1705  0.8888
  123MOL    C5039334   1.675   6.084   1.478  0.5201 -0.2092 -1.2758
  123MOL    C5139335   1.548   6.168   1.476  0.4377 -0.8361 -0.1265
  123MOL    C5239336   1.815   6.158   1.500 -0.2061  0.3781  0.4945
  123MOL    C5339337   1.931   6.066   1.543  0.3971 -0.2040  0.5349
  123MOL    C5439338   2.071   6.109   1.490  0.0044  0.8602  0.0952
  123MOL    C5539339   1.930   5.965   1.632  0.0261  0.1910  0.0205
  123MOL    H5639340   1.661   6.030   1.571 -0.4866 -2.3033 -2.6041
  123MOL    H5739341   1.534   6.221   1.569 -0.7019  0.3711 -0.9738
  123MOL    H5839342   1.468   6.094   1.465 -0.5838 -0.1399  2.4897
  123MOL    H5939343   1.563   6.240   1.396  0.3447  0.0576  0.6653
  123MOL    H6039344   1.837   6.184   1.397 -0.7390  3.8261  1.1787
  123MOL    H6139345   2.095   6.208   1.529  1.0788 -0.4595  2.9358
  123MOL    H6239346   2.087   6.106   1.382  0.9936  0.1256  0.2503
  123MOL    H6339347   2.147   6.047   1.538 -0.3962  1.6895  1.8325
  123MOL    H6439348   1.844   5.924   1.684  0.9338  0.2535  1.6208
  123MOL    H6539349   2.022   5.915   1.659 -0.0822  0.3379  0.6873
  123MOL    C6639350   1.818   6.294   1.587  0.1520  0.1487 -0.1757
  123MOL    C6739351   1.765   6.276   1.730  0.6005 -0.0120  0.9213
  123MOL    C6839352   1.775   6.422   1.514 -0.3498 -0.4035  0.1018
  123MOL    C6939353   1.834   6.446   1.373 -0.1003  0.4660  0.8833
  123MOL    C7039354   1.737   6.511   1.272  0.5637 -0.2496  0.4169
  123MOL    C7139355   1.957   6.411   1.330 -0.2673  0.4084  0.5118
  123MOL    H7239356   1.923   6.313   1.606 -0.2226  2.1396  0.0114
  123MOL    H7339357   1.657   6.269   1.742  0.0518  1.2047 -2.8269
  123MOL    H7439358   1.789   6.356   1.802 -1.1320  0.5791  0.8570
  123MOL    H7539359   1.819   6.200   1.786 -0.1432  0.2050  1.9606
  123MOL    H7639360   1.672   6.402   1.482 -1.2045 -0.5401  2.8179
  123MOL    H7739361   1.645   6.453   1.265  0.2682  0.4822 -2.0318
  123MOL    H7839362   1.788   6.525   1.177 -0.6502  1.7142  0.0372
  123MOL    H7939363   1.705   6.610   1.305  0.9776 -0.7325  2.3773
  123MOL    H8039364   2.020   6.361   1.402 -1.6512 -2.6311 -0.2970
  123MOL    H8139365   1.993   6.428   1.230  2.2392 -0.1152  1.2825
  123MOL    C8239366   1.777   6.559   1.595  0.0044  0.4818 -0.2139
  123MOL    C8339367   1.905   6.584   1.669  0.2287 -0.2139  0.1253
  123MOL    C8439368   1.649   6.588   1.687  0.3325  0.4246 -0.7127
  123MOL    C8539369   1.522   6.545   1.610  0.8788 -0.2679  0.5474
  123MOL    C8639370   1.481   6.631   1.491  0.5847 -0.4900  0.2385
  123MOL    C8739371   1.442   6.441   1.644 -0.5946  0.3140 -0.4903
  123MOL    H8839372   1.765   6.640   1.522  0.6393  1.0113  0.2611
  123MOL    H8939373   1.913   6.690   1.691  1.2266 -1.0534  4.3597
  123MOL    H9039374   1.986   6.545   1.607  0.9563 -0.7122  1.3709
  123MOL    H9139375   1.918   6.526   1.760 -0.5499  1.1507  1.1167
  123MOL    H9239376   1.651   6.519   1.771 -2.0396  1.6720  0.4025
  123MOL    H9339377   1.373   6.642   1.497  0.6200  0.4596 -0.8274
  123MOL    H9439378   1.507   6.592   1.393 -3.0924  0.0784 -1.0300
  123MOL    H9539379   1.531   6.728   1.494  0.9762 -0.5577 -2.8016
  123MOL    H9639380   1.460   6.373   1.726  0.6582 -0.3049 -1.2772
  123MOL    H9739381   1.351   6.423   1.588 -0.5434 -2.7785  0.3792
  123MOL    C9839382   1.649   6.731   1.756  0.6527  0.0305  0.1205
  123MOL    C9939383   1.725   6.723   1.892  0.0461  0.1721  0.1645
  123MOL   C10039384   1.510   6.803   1.778 -1.2657  0.0401 -0.5893
  123MOL   C10139385   1.530   6.958   1.767  0.0958 -0.3210  0.3109
  123MOL   C10239386   1.510   7.016   1.629  0.0546  0.0134 -0.1333
  123MOL   C10339387   1.566   7.045   1.867  1.0836  0.0479 -0.1143
  123MOL   H10439388   1.712   6.796   1.695  0.1715  1.7453  1.3988
  123MOL   H10539389   1.737   6.829   1.912  1.4142  0.2762 -1.0968
  123MOL   H10639390   1.822   6.674   1.889 -0.5849 -1.1403  1.0629
  123MOL   H10739391   1.671   6.670   1.970  0.9302 -1.5061 -0.3407
  123MOL   H10839392   1.446   6.785   1.692 -0.2877  0.5009 -1.4132
  123MOL   H10939393   1.548   6.948   1.552 -0.0905  0.4368 -0.5784
  123MOL   H11039394   1.552   7.116   1.624 -0.7253  0.3493  0.0914
  123MOL   H11139395   1.406   7.030   1.599  0.0960  0.1825 -0.1965
  123MOL   H11239396   1.580   7.014   1.969  0.5256  1.2487  0.3325
  123MOL   H11339397   1.572   7.150   1.843 -0.2732  0.2094  0.2015
  123MOL   C11439398   1.426   6.768   1.905  0.5871  0.1801  0.2887
  123MOL   C11539399   1.388   6.619   1.921  0.4041  0.6505  0.6645
  123MOL   C11639400   1.300   6.864   1.935  0.3857 -0.2289  0.0576
  123MOL   C11739401   1.298   6.902   2.082  0.3722 -0.4247  0.1554
  123MOL   C11839402   1.368   7.029   2.125 -0.5611 -0.4415  0.3005
  123MOL   C11939403   1.254   6.816   2.175 -0.3071  0.2768  0.5986
  123MOL   H12039404   1.493   6.786   1.990  0.0439  0.8413  0.5882
  123MOL   H12139405   1.332   6.588   1.833  1.7560 -0.2095  0.0854
  123MOL   H12239406   1.334   6.598   2.013  1.9202 -3.9334  0.6438
  123MOL   H12339407   1.476   6.555   1.930 -2.0588 -2.9508  0.3048
  123MOL   H12439408   1.312   6.959   1.883 -1.4857  0.8445  1.5226
  123MOL   H12539409   1.365   7.103   2.045  0.5022 -2.8711 -2.1038
  123MOL   H12639410   1.472   7.014   2.155 -1.5013 -1.2030  3.3173
  123MOL   H12739411   1.317   7.071   2.211  0.3457  3.4168 -0.9508
  123MOL   H12839412   1.216   6.717   2.154  0.8314 -0.3650  1.5329
  123MOL   H12939413   1.267   6.838   2.280 -1.1110  1.3468  0.4908
  123MOL   C13039414   1.160   6.811   1.880  0.0778  0.3704 -0.2812
  123MOL   C13139415   1.169   6.807   1.727 -0.1696  0.2291  0.2003
  123MOL   C13239416   1.033   6.893   1.937 -0.4860  0.4080  0.2008
  123MOL   C13339417   0.916   6.801   1.971 -0.2335 -0.0991  0.2625
  123MOL   C13439418   0.829   6.742   1.853 -0.2252  0.1422  0.7395
  123MOL   C13539419   0.893   6.765   2.098 -0.1933  0.8595  0.1052
  123MOL   H13639420   1.138   6.709   1.910  0.8729 -0.1187 -1.3496
  123MOL   H13739421   1.070   6.805   1.682 -0.2578  2.0668  0.3091
  123MOL   H13839422   1.214   6.728   1.667 -1.2497  1.0045 -1.6772
  123MOL   H13939423   1.223   6.894   1.691 -1.0097  1.0479  0.9075
  123MOL   H14039424   1.063   6.930   2.035 -2.2577 -1.0286  1.3166
  123MOL   H14139425   0.892   6.710   1.770 -0.3515 -0.4109  0.8541
  123MOL   H14239426   0.753   6.816   1.824 -0.9771 -0.6549  0.6467
  123MOL   H14339427   0.776   6.656   1.892  1.4922 -0.8188  0.9884
  123MOL   H14439428   0.953   6.800   2.181  1.5508 -1.0310 -0.3160
  123MOL   H14539429   0.821   6.695   2.135 -0.7141  1.7668  0.8226
  123MOL   C14639430   0.988   7.026   1.862 -0.0923  0.1617 -0.5483
  123MOL   C14739431   1.104   7.124   1.837  0.3106 -0.0673 -0.3983
  123MOL   C14839432   0.859   7.100   1.919  0.5377  0.1664 -0.0019
  123MOL   C14939433   0.781   7.172   1.807 -0.5541  0.4445 -0.0649
  123MOL   C15039434   0.689   7.084   1.724  0.5714  0.6370 -0.2195
  123MOL   C15139435   0.806   7.300   1.771 -0.6030 -0.4045  0.6511
  123MOL   H15239436   0.964   6.999   1.759 -0.8753  1.5381 -0.7392
  123MOL   H15339437   1.168   7.091   1.755  2.2642 -2.1910  1.9031
  123MOL   H15439438   1.167   7.137   1.925  2.4813 -1.3914 -1.7141
  123MOL   H15539439   1.062   7.220   1.806 -1.9237 -0.2964  1.7210
  123MOL   H15639440   0.799   7.014   1.947  0.3768  0.1201 -0.4863
  123MOL   H15739441   0.730   6.993   1.680  0.6676  0.1830  0.7990
  123MOL   H15839442   0.653   7.129   1.631  0.7826  0.3324 -0.4500
  123MOL   H15939443   0.599   7.065   1.783  1.5246 -2.7466  0.2542
  123MOL   H16039444   0.877   7.368   1.817  1.2581 -1.0820 -1.1187
  123MOL   H16139445   0.754   7.353   1.693  0.4925  1.1960  0.9759
  123MOL   C16239446   0.877   7.184   2.051 -0.8395  0.4331 -0.1648
  123MOL   C16339447   0.984   7.142   2.154 -0.4420 -0.3449  0.0601
  123MOL   C16439448   0.748   7.224   2.127  0.6302  0.0328 -0.7016
  123MOL   C16539449   0.622   7.141   2.088  0.4113 -0.2340  0.1876
  123MOL   C16639450   0.612   7.016   2.166 -0.0617  0.4010  0.2123
  123MOL   C16739451   0.524   7.180   2.002 -0.2386  0.5403 -0.0383
  123MOL   H16839452   0.929   7.272   2.014 -0.6150  0.5930  0.5298
  123MOL   H16939453   1.006   7.222   2.224  0.2702  0.5397 -1.1491
  123MOL   H17039454   1.083   7.146   2.109 -0.1220 -1.0712  0.7031
  123MOL   H17139455   0.980   7.045   2.204  0.7569 -0.2131  0.4313
  123MOL   H17239456   0.785   7.195   2.225  1.9354 -0.0541 -1.2056
  123MOL   H17339457   0.619   7.050   2.270 -1.1394  1.8313 -0.1761
  123MOL   H17439458   0.704   6.958   2.154 -1.1573 -1.5404  0.9684
  123MOL   H17539459   0.520   6.962   2.143  0.0294  0.7651 -1.0036
  123MOL   H17639460   0.529   7.268   1.939 -1.1616 -0.5270 -1.6198
  123MOL   H17739461   0.444   7.108   1.990  1.3905 -1.3869  0.4119
  123MOL   C17839462   0.711   7.383   2.124 -0.2438  0.3323  0.2177
  123MOL   C17939463   0.842   7.478   2.130 -0.0410 -0.0114  0.0162
  123MOL   C18039464   0.597   7.429   2.224 -0.0122 -0.3112 -0.6365
  123MOL   C18139465   0.511   7.545   2.170 -0.0461  0.0401  0.2082
  123MOL   C18239466   0.561   7.692   2.197  0.7098  0.3592  0.6527
  123MOL   C18339467   0.404   7.526   2.091  0.5130  0.7786  0.4083
  123MOL   H18439468   0.671   7.415   2.028  0.7705 -0.1379 -0.3701
  123MOL   H18539469   0.829   7.565   2.195  1.5364  1.6639 -1.8358
  123MOL   H18639470   0.870   7.512   2.030  0.8968 -1.6951 -0.3034
  123MOL   H18739471   0.937   7.431   2.157  0.3360  0.6158 -0.2078
  123MOL   H18839472   0.533   7.340   2.224 -1.5544  0.7671 -0.0388
  123MOL   H18939473   0.661   7.704   2.155  0.6712 -1.4097  0.0004
  123MOL   H19039474   0.573   7.711   2.304  2.6715  1.6226  0.2336
  123MOL   H19139475   0.485   7.761   2.161  0.0439 -0.3912  0.5886
  123MOL   H19239476   0.365   7.427   2.073 -0.5196  1.3127 -0.3568
  123MOL   H19339477   0.348   7.607   2.047  1.0571  1.2923  0.6611
  123MOL   C19439478   0.642   7.454   2.377 -0.3295  0.2771 -0.1644
  123MOL   C19539479   0.751   7.348   2.432  0.3755 -0.0680 -0.0974
  123MOL   C19639480   0.526   7.489   2.478 -0.7571 -0.5940 -0.3022
  123MOL   C19739481   0.585   7.546   2.606 -0.9006  0.8818 -0.4695
  123MOL   C19839482   0.631   7.691   2.604  0.4342 -0.1167 -0.6682
  123MOL   C19939483   0.606   7.471   2.714 -0.0909  0.2754 -1.2802
  123MOL   H20039484   0.703   7.543   2.366 -0.3119  0.2048 -0.6911
  123MOL   H20139485   0.847   7.340   2.380 -0.3291 -0.5265 -1.3426
  123MOL   H20239486   0.717   7.244   2.432  1.8362 -0.5626 -1.0971
  123MOL   H20339487   0.773   7.378   2.535 -0.7034  2.0110 -0.4496
  123MOL   H20439488   0.472   7.575   2.437 -0.2505  0.4534  1.1950
  123MOL   H20539489   0.691   7.713   2.516 -0.4537 -0.7143 -1.4504
  123MOL   H20639490   0.670   7.728   2.698 -1.1019 -2.9634  1.1659
  123MOL   H20739491   0.532   7.735   2.589 -0.9554 -2.6694  0.5783
  123MOL   H20839492   0.568   7.369   2.713  0.4361  0.0747 -1.2525
  123MOL   H20939493   0.658   7.509   2.801 -0.0978  0.6693 -1.4476
  123MOL   C21039494   0.408   7.388   2.500  0.0991 -0.2764  0.4045
  123MOL   C21139495   0.451   7.232   2.494 -0.2562  0.0619 -0.4026
  123MOL   C21239496   0.266   7.426   2.438 -0.2937  0.3623 -0.8611
  123MOL   C21339497   0.222   7.572   2.472  0.2110 -0.0942  0.3281
  123MOL   C21439498   0.134   7.640   2.367 -0.0409 -0.7241  0.2244
  123MOL   C21539499   0.240   7.635   2.587  0.0378  0.1766  0.0844
  123MOL   H21639500   0.389   7.393   2.607 -0.3752  0.1645  0.3033
  123MOL   H21739501   0.460   7.209   2.387  0.9459  1.4864 -0.6336
  123MOL   H21839502   0.369   7.171   2.530 -0.2820  0.3880  0.0886
  123MOL   H21939503   0.540   7.206   2.552  0.3323  1.9838 -0.4160
  123MOL   H22039504   0.285   7.416   2.331 -1.3058  1.0452 -1.1085
  123MOL   H22139505   0.185   7.620   2.274 -1.2875  0.3707 -0.7141
  123MOL   H22239506   0.133   7.748   2.384 -0.2825 -0.8118  0.8035
  123MOL   H22339507   0.035   7.594   2.367 -1.1005  1.4536 -0.3610
  123MOL   H22439508   0.310   7.595   2.658  1.6460  0.1283 -1.4958
  123MOL   H22539509   0.188   7.727   2.609 -1.5330 -1.0097  1.4387
  123MOL   C22639510   0.145   7.338   2.476 -1.1744 -1.1120 -0.3849
  123MOL   C22739511   0.126   7.315   2.627 -0.1108 -0.7515 -1.5188
  123MOL   C22839512   0.128   7.210   2.386 -0.1397 -0.0939 -0.2923
  123MOL   C22939513   0.134   7.235   2.234  0.6924 -0.7403  0.6307
  123MOL   C23039514   0.193   7.126   2.138  0.0643  0.2103 -0.5713
  123MOL   C23139515   0.076   7.341   2.176  0.4380  0.9472  0.0384
  123MOL   H23239516   0.061   7.397   2.440  1.1167  1.6658 -1.3660
  123MOL   H23339517   0.163   7.400   2.685 -1.8332 -0.8581 -0.2222
  123MOL   H23439518   0.196   7.236   2.655  0.4718  0.6993  1.2882
  123MOL   H23539519   0.027   7.291   2.666  0.6292 -1.0391  0.2409
  123MOL   H23639520   0.222   7.156   2.389  1.0827  2.0310  1.1491
  123MOL   H23739521   0.289   7.093   2.180 -0.8125 -0.1474  1.2141
  123MOL   H23839522   0.211   7.166   2.038  0.3192 -1.5752 -1.2528
  123MOL   H23939523   0.123   7.045   2.125  1.9793 -1.3472 -1.5002
  123MOL   H24039524   0.018   7.413   2.233 -1.7073 -0.0113 -0.8650
  123MOL   H24139525   0.075   7.354   2.069 -2.4561 -0.6086 -0.1851
  123MOL   C24239526   0.009   7.106   2.411  0.1053  0.4609  0.3160
  123MOL   C24339527   7.771   7.183   2.417  0.7880  0.9990 -0.3171
  123MOL   C24439528   0.025   7.002   2.531 -0.1892  0.2162 -0.7732
  123MOL   C24539529   0.170   6.945   2.539  0.4195 -0.0631 -0.2762
  123MOL   C24639530   0.231   6.931   2.678 -0.1493 -0.2533  0.1145
  123MOL   C24739531   0.225   6.909   2.426  0.4079  0.9935 -0.3871
  123MOL   H24839532   7.889   7.043   2.323 -1.5751  1.1651  0.0303
  123MOL   H24939533   7.771   7.236   2.512  0.4375  0.1612  0.1540
  123MOL   H25039534   7.675   7.131   2.409  0.1336  2.0880  0.2969
  123MOL   H25139535   7.769   7.260   2.340  1.3845 -1.0103 -2.3896
  123MOL   H25239536   0.012   7.061   2.622 -1.0189 -0.1565 -0.6450
  123MOL   H25339537   0.186   6.839   2.715 -0.4291 -0.1521  0.0269
  123MOL   H25439538   0.219   7.014   2.748  1.7996  0.7528 -0.6979
  123MOL   H25539539   0.338   6.916   2.661 -0.0294 -1.3377  1.7004
  123MOL   H25639540   0.172   6.916   2.332  0.6504 -3.0048 -0.9066
  123MOL   H25739541   0.317   6.853   2.418  0.3136  0.8290 -0.3221
  123MOL   C25839542   7.813   6.888   2.550  0.5597 -0.2191  0.2589
  123MOL   C25939543   7.773   6.834   2.411  0.2466 -0.1946 -0.7667
  123MOL   C26039544   7.687   6.927   2.634 -0.2631  0.3604  0.3358
  123MOL   C26139545   7.721   6.972   2.780 -0.1015 -0.1078 -0.3768
  123MOL   C26239546   7.643   7.094   2.833 -0.2343  0.5733 -0.1706
  123MOL   C26339547   7.814   6.921   2.863 -0.1721  0.6448  1.1232
  123MOL   H26439548   7.862   6.800   2.590 -3.0326 -1.9680  0.9370
  123MOL   H26539549   7.736   6.733   2.427  1.9104 -0.9223 -1.4147
  123MOL   H26639550   7.866   6.811   2.360  1.0734  0.3172  0.4831
  123MOL   H26739551   7.707   6.892   2.347  1.0771  1.7798  0.1394
  123MOL   H26839552   7.653   7.023   2.595  0.4283  1.0300  1.3712
  123MOL   H26939553   7.539   7.070   2.855 -0.1005  0.1308 -0.0194
  123MOL   H27039554   7.639   7.170   2.755  1.5458  3.5419  2.5133
  123MOL   H27139555   7.687   7.131   2.926  0.6366  0.0982 -0.3956
  123MOL   H27239556   7.866   6.830   2.838  2.3793  1.8904  1.7865
  123MOL   H27339557   7.829   6.964   2.961 -0.4653  0.5933  1.1906
  123MOL   C27439558   7.559   6.840   2.613 -0.5595 -0.5149 -0.3013
  123MOL   C27539559   7.444   6.924   2.555 -0.8124  0.2127 -0.9139
  123MOL   C27639560   7.522   6.751   2.741  0.5739  0.0125 -0.8517
  123MOL   C27739561   7.635   6.648   2.776 -0.5668  1.0164 -0.3827
  123MOL   C27839562   7.661   6.627   2.925  0.5234 -0.3457 -0.3088
  123MOL   C27939563   7.710   6.585   2.678  0.0299  0.8548 -0.0720
  123MOL   H28039564   7.567   6.768   2.532  0.1769  1.2503 -1.8445
  123MOL   H28139565   7.354   6.865   2.535  0.3139 -1.2818 -1.6459
  123MOL   H28239566   7.470   6.964   2.457  2.3626 -1.7598 -0.9220
  123MOL   H28339567   7.415   7.010   2.616  0.3633 -0.0800  0.0703
  123MOL   H28439568   7.512   6.834   2.810 -2.4416 -2.1776  1.4850
  123MOL   H28539569   7.595   6.547   2.959  3.5437 -2.2985  1.2394
  123MOL   H28639570   7.659   6.726   2.970  0.8258  0.3538 -1.8117
  123MOL   H28739571   7.768   6.606   2.937  0.5991 -0.5732 -1.3278
  123MOL   H28839572   7.687   6.601   2.574 -0.1206  0.4398 -0.1020
  123MOL   H28939573   7.788   6.512   2.694 -2.6553 -2.0696  0.1934
  123MOL   C29039574   7.389   6.676   2.738  0.9013 -0.7440  0.2653
  123MOL   C29139575   7.373   6.595   2.608 -0.3205 -0.4697 -0.5386
  123MOL   C29239576   7.262   6.762   2.780  0.1470 -0.2099 -0.3905
  123MOL   C29339577   7.278   6.863   2.897 -0.0067  0.5146  0.0324
  123MOL   C29439578   7.333   6.791   3.022  0.0245 -0.8056  0.0535
  123MOL   C29539579   7.252   6.994   2.893 -0.1475 -0.1584 -0.1603
  123MOL   H29639580   7.401   6.591   2.805  0.0952 -2.3848 -1.6388
  123MOL   H29739581   7.360   6.654   2.518 -3.8584 -2.1897 -1.2301
  123MOL   H29839582   7.279   6.542   2.621 -1.5804  1.7717 -0.3911
  123MOL   H29939583   7.452   6.522   2.587  1.0840  1.1190 -0.9140
  123MOL   H30039584   7.234   6.823   2.694  1.2323  1.3526  0.3279
  123MOL   H30139585   7.377   6.876   3.074 -0.5506 -0.0574 -0.6733
  123MOL   H30239586   7.410   6.714   3.012  1.7038  0.6878  1.0911
  123MOL   H30339587   7.239   6.754   3.063 -0.7721  1.3351  0.2129
  123MOL   H30439588   7.218   7.042   2.803  1.7209  0.0485 -0.7717
  123MOL   H30539589   7.261   7.059   2.979 -2.6556 -1.5992  1.2549
  123MOL   C30639590   7.133   6.676   2.795 -0.2740 -0.1400  0.3574
  123MOL   C30739591   7.013   6.768   2.804  0.0576  0.1254  0.3413
  123MOL   C30839592   7.137   6.555   2.893 -0.6244  0.3868 -0.0840
  123MOL   C30939593   7.029   6.454   2.856  0.2362 -0.7274  0.2381
  123MOL   C31039594   7.057   6.346   2.757 -0.6666  0.2466  0.6007
  123MOL   C31139595   6.909   6.455   2.914 -0.5082  0.1202 -0.2261
  123MOL   H31239596   7.103   6.640   2.696 -1.0824 -2.1214  1.2781
  123MOL   H31339597   7.040   6.867   2.768  0.5726 -0.1103  0.0832
  123MOL   H31439598   6.987   6.787   2.908 -0.4134 -2.0356  0.6477
  123MOL   H31539599   6.920   6.726   2.766  0.9914 -1.3954 -0.3318
  123MOL   H31639600   7.226   6.494   2.878 -1.8083 -1.0900 -1.3312
  123MOL   H31739601   7.036   6.378   2.655  4.0037 -2.2704 -1.3027
  123MOL   H31839602   6.987   6.264   2.773  0.0170 -0.5144 -0.2817
  123MOL   H31939603   7.153   6.297   2.775 -1.3288 -1.0314  0.6898
  123MOL   H32039604   6.890   6.528   2.992  0.0638  0.1206 -0.0834
  123MOL   H32139605   6.832   6.383   2.888  0.0001 -0.6962  0.4831
  123MOL   H32239606   7.133   6.581   2.998 -0.0930 -0.5564  0.1718
  124MOL     C139607   2.731   0.923   2.218 -0.1895  0.3458  0.0451
  124MOL     C239608   2.832   0.956   2.331 -0.3099  0.0967 -0.5586
  124MOL     C339609   2.653   1.052   2.168 -0.8374 -0.1470 -0.1165
  124MOL     C439610   2.567   1.110   2.279  0.5610  0.3065 -0.2144
  124MOL     C539611   2.479   1.020   2.358 -0.1433 -0.2195 -0.2906
  124MOL     C639612   2.571   1.242   2.318  0.2473  0.0791  0.6066
  124MOL     H739613   2.787   0.878   2.136  1.5481  1.0373  0.8282
  124MOL     H839614   2.783   0.970   2.428  0.7227  0.3839 -0.0679
  124MOL     H939615   2.887   1.046   2.306 -0.9678  0.5480 -0.3885
  124MOL    H1039616   2.898   0.871   2.348 -1.6362 -1.0437 -0.9913
  124MOL    H1139617   2.720   1.135   2.145 -1.0055  0.1998  0.6203
  124MOL    H1239618   2.427   1.078   2.434 -0.6699 -0.5311 -0.4100
  124MOL    H1339619   2.537   0.938   2.400  0.1811 -0.7713 -1.7773
  124MOL    H1439620   2.403   0.984   2.288  1.2283 -2.0505 -0.8709
  124MOL    H1539621   2.619   1.320   2.261 -1.6194 -0.2182 -1.4301
  124MOL    H1639622   2.520   1.281   2.405  0.0383 -0.7782  0.8708
  124MOL    H1739623   2.662   0.846   2.253  0.5264 -1.2531 -1.9134
  124MOL    C1839624   2.560   1.024   2.040  0.7024 -0.0375 -0.5449
  124MOL    C1939625   2.629   0.939   1.926  0.3568  0.0417  0.8098
  124MOL    C2039626   2.482   1.148   1.980 -0.0799  0.0972  0.4474
  124MOL    C2139627   2.349   1.097   1.917  0.6368  0.9416 -0.4824
  124MOL    C2239628   2.231   1.100   2.009 -0.2733  0.1422 -0.2519
  124MOL    C2339629   2.339   1.080   1.784  0.3730 -0.1593  0.7764
  124MOL    H2439630   2.485   0.959   2.084  0.8690  1.0053  1.3397
  124MOL    H2539631   2.649   0.835   1.954  1.7434  0.7594  2.5365
  124MOL    H2639632   2.723   0.989   1.903  0.0432  1.0901  1.7949
  124MOL    H2739633   2.572   0.938   1.833 -0.1187 -2.5567  1.0748
  124MOL    H2839634   2.441   1.205   2.064 -0.5994  0.3486  0.0283
  124MOL    H2939635   2.211   1.205   2.031  1.1467  0.4964 -0.6106
  124MOL    H3039636   2.245   1.031   2.093  0.3432 -1.2748 -1.5049
  124MOL    H3139637   2.138   1.071   1.959 -0.4563  1.3963 -0.6499
  124MOL    H3239638   2.437   1.086   1.738  0.5410 -1.4261  0.9547
  124MOL    H3339639   2.248   1.061   1.729 -0.3234 -2.9255  2.7850
  124MOL    C3439640   2.551   1.260   1.890 -0.1133  0.0014  0.1696
  124MOL    C3539641   2.689   1.298   1.945 -0.5514  0.0458 -0.4177
  124MOL    C3639642   2.462   1.374   1.846 -0.0429 -0.5511  0.3661
  124MOL    C3739643   2.460   1.390   1.695  0.2318  0.4585  1.1764
  124MOL    C3839644   2.585   1.451   1.634  0.1615 -0.6634  0.3635
  124MOL    C3939645   2.365   1.342   1.613  0.1241  0.8211 -0.3263
  124MOL    H4039646   2.581   1.208   1.799 -0.9125  0.6131 -0.4558
  124MOL    H4139647   2.675   1.333   2.047 -1.1483 -0.8756 -0.1774
  124MOL    H4239648   2.736   1.385   1.898 -2.2265  2.7490  2.7260
  124MOL    H4339649   2.758   1.215   1.932  1.3511  1.4557  0.4614
  124MOL    H4439650   2.356   1.356   1.858 -0.2301 -0.0786 -0.5084
  124MOL    H4539651   2.577   1.463   1.526 -1.5642 -2.5270  0.2652
  124MOL    H4639652   2.667   1.380   1.648 -0.3890 -1.5195 -0.6758
  124MOL    H4739653   2.620   1.542   1.682 -1.3776 -0.3295  0.8478
  124MOL    H4839654   2.266   1.305   1.636  0.8581 -0.5899  0.6553
  124MOL    H4939655   2.375   1.356   1.507  0.0960  2.6494 -0.0930
  124MOL    C5039656   2.472   1.513   1.931 -0.4673 -0.0214 -0.0468
  124MOL    C5139657   2.424   1.489   2.080 -0.2056  0.3445  0.5357
  124MOL    C5239658   2.413   1.640   1.871 -0.7904 -0.6058 -0.5861
  124MOL    C5339659   2.502   1.762   1.906 -0.0632 -0.8997  0.3982
  124MOL    C5439660   2.505   1.807   2.049 -0.4738  0.5975 -0.2089
  124MOL    C5539661   2.573   1.826   1.809  0.3833 -0.6237 -0.4161
  124MOL    H5639662   2.579   1.531   1.944 -0.8247  0.9407  1.6644
  124MOL    H5739663   2.346   1.413   2.089  0.3133 -0.3238 -0.5420
  124MOL    H5839664   2.383   1.577   2.129 -0.2344  1.4777 -1.4815
  124MOL    H5939665   2.498   1.445   2.147  1.2105 -0.2563 -1.3990
  124MOL    H6039666   2.422   1.634   1.763  2.5683  0.8053 -0.4300
  124MOL    H6139667   2.555   1.903   2.042  1.0621 -0.2888 -1.7793
  124MOL    H6239668   2.554   1.733   2.112  1.5116  0.9344 -1.3159
  124MOL    H6339669   2.408   1.835   2.091 -0.0736 -2.3511  2.8816
  124MOL    H6439670   2.561   1.795   1.706 -0.4432 -1.4888 -0.0678
  124MOL    H6539671   2.635   1.910   1.833  0.5416 -1.0510  0.6947
  124MOL    C6639672   2.259   1.670   1.897  0.2880 -0.3772  0.3648
  124MOL    C6739673   2.168   1.548   1.880  0.7768  0.0276  0.4152
  124MOL    C6839674   2.208   1.806   1.829  0.5688  0.0388  0.0807
  124MOL    C6939675   2.123   1.877   1.940 -0.9511  0.6724 -0.0288
  124MOL    C7039676   1.990   1.818   1.973  0.1571 -0.4830  0.4652
  124MOL    C7139677   2.177   1.977   2.016  0.2074  0.4319  0.5922
  124MOL    H7239678   2.251   1.692   2.003 -0.4489 -1.3848  0.5280
  124MOL    H7339679   2.066   1.573   1.909  1.1604  1.0230  0.9312
  124MOL    H7439680   2.184   1.465   1.949 -0.6111 -1.4564 -1.0058
  124MOL    H7539681   2.170   1.508   1.778 -1.3053  2.4550 -0.6246
  124MOL    H7639682   2.296   1.869   1.827  0.9917 -0.5277  0.6579
  124MOL    H7739683   2.006   1.746   2.054  0.4462 -2.4191 -1.2844
  124MOL    H7839684   1.955   1.759   1.889  1.0750 -0.7800  0.2797
  124MOL    H7939685   1.921   1.894   2.011  0.1516 -0.9040  1.3114
  124MOL    H8039686   2.273   2.017   1.985  0.0429 -0.1921 -0.7515
  124MOL    H8139687   2.135   2.020   2.106  1.6424 -1.4426  2.2156
  124MOL    C8239688   2.152   1.794   1.682  0.0692 -0.4234 -0.6622
  124MOL    C8339689   2.257   1.720   1.593 -0.7390 -0.6086  0.1364
  124MOL    C8439690   2.117   1.938   1.629 -0.3214 -0.6680  0.5329
  124MOL    C8539691   1.977   1.991   1.684 -0.1099 -0.2052  0.2328
  124MOL    C8639692   1.860   1.902   1.647 -0.2176  0.0333 -0.2172
  124MOL    C8739693   1.961   2.089   1.776 -0.2553  0.3406  0.3437
  124MOL    H8839694   2.068   1.724   1.689 -0.1325  0.0113  1.3992
  124MOL    H8939695   2.235   1.713   1.487 -1.7129 -0.7014  0.3463
  124MOL    H9039696   2.262   1.613   1.615 -0.2739 -0.8561 -1.1406
  124MOL    H9139697   2.354   1.768   1.607 -0.6835  0.0133 -2.2720
  124MOL    H9239698   2.196   2.000   1.672 -0.7417  0.0975  0.2225
  124MOL    H9339699   1.879   1.795   1.642  0.7569  0.2182 -0.5659
  124MOL    H9439700   1.809   1.939   1.559 -0.3183 -1.8150 -0.9495
  124MOL    H9539701   1.785   1.916   1.725  0.6521 -3.1429  1.3006
  124MOL    H9639702   2.052   2.138   1.807 -0.1098  1.5456 -1.9521
  124MOL    H9739703   1.867   2.124   1.816 -0.8107 -0.1622 -0.4987
  124MOL    C9839704   2.135   1.979   1.479 -0.0363 -0.7390  0.1508
  124MOL    C9939705   2.047   1.909   1.367  0.3623 -0.2338 -0.0381
  124MOL   C10039706   2.285   2.004   1.425  0.5389  0.2209  0.2852
  124MOL   C10139707   2.373   2.086   1.525  0.5631  0.1958  0.4415
  124MOL   C10239708   2.521   2.040   1.524 -0.2379  0.1484 -0.2367
  124MOL   C10339709   2.325   2.192   1.594 -0.2649  0.0430  0.4557
  124MOL   H10439710   2.084   2.074   1.469 -3.3048 -2.4823 -0.4352
  124MOL   H10539711   1.945   1.902   1.406  0.2270  0.2874 -0.2852
  124MOL   H10639712   2.084   1.808   1.350 -0.9716 -1.0031  1.4818
  124MOL   H10739713   2.033   1.965   1.274 -1.9706  1.6435  1.3786
  124MOL   H10839714   2.327   1.904   1.432 -0.5867 -0.1760  1.7976
  124MOL   H10939715   2.581   2.131   1.525 -1.4319  0.9370  0.1342
  124MOL   H11039716   2.554   1.970   1.447  0.6883 -0.8861  1.0618
  124MOL   H11139717   2.541   1.987   1.617  1.2553 -0.2225 -0.7407
  124MOL   H11239718   2.223   2.223   1.577 -0.8587 -2.0218  0.1370
  124MOL   H11339719   2.383   2.246   1.667  2.2516 -1.8307 -0.0667
  124MOL   C11439720   2.321   2.054   1.278  0.3869 -0.0452  0.0464
  124MOL   C11539721   2.239   2.184   1.245 -0.2201 -0.5659 -0.1497
  124MOL   C11639722   2.321   1.953   1.157 -0.3738 -0.0810 -0.4139
  124MOL   C11739723   2.378   1.815   1.194 -0.6333  0.5478  0.3066
  124MOL   C11839724   2.526   1.811   1.228  0.4340  0.0331  0.7230
  124MOL   C11939725   2.313   1.698   1.173 -0.4930 -0.2813  0.8325
  124MOL   H12039726   2.423   2.091   1.269  0.1715  0.4588 -0.3492
  124MOL   H12139727   2.300   2.235   1.171 -1.0204  0.0312 -0.4085
  124MOL   H12239728   2.219   2.248   1.330  1.3093  0.1689 -0.3248
  124MOL   H12339729   2.144   2.154   1.200  0.0234  0.1183 -1.1559
  124MOL   H12439730   2.219   1.916   1.140 -0.7662  0.8700 -0.1219
  124MOL   H12539731   2.542   1.751   1.318 -0.2090 -1.6714 -0.2867
  124MOL   H12639732   2.562   1.913   1.244  3.2299 -0.8297  0.2173
  124MOL   H12739733   2.580   1.776   1.141  1.9590 -0.1203  1.7126
  124MOL   H12839734   2.211   1.691   1.138 -0.6743 -1.6137  1.5750
  124MOL   H12939735   2.363   1.603   1.186 -3.9410 -2.2080  0.9072
  124MOL   C13039736   2.375   1.999   1.014  0.1126 -0.2700  0.2541
  124MOL   C13139737   2.504   2.082   1.019 -0.5983  0.0911  0.1291
  124MOL   C13239738   2.261   2.061   0.926 -0.3233  0.0831 -0.0906
  124MOL   C13339739   2.137   1.974   0.901  0.4778 -0.4408  0.2828
  124MOL   C13439740   2.005   2.053   0.919  0.1604  1.0231 -0.0815
  124MOL   C13539741   2.139   1.841   0.878  0.3422  0.3362  0.3035
  124MOL   H13639742   2.413   1.910   0.965  0.1207  0.4154 -1.0009
  124MOL   H13739743   2.480   2.182   1.056 -3.2076 -0.0500 -1.0192
  124MOL   H13839744   2.559   2.084   0.925  1.1305  0.8645  1.1494
  124MOL   H13939745   2.572   2.033   1.088 -0.0400 -0.7720 -1.0082
  124MOL   H14039746   2.220   2.130   1.000 -1.4813 -0.6670 -0.0243
  124MOL   H14139747   2.000   2.081   1.024 -0.9953 -0.0099  0.1472
  124MOL   H14239748   1.928   1.982   0.891  0.4191  0.2631  1.1251
  124MOL   H14339749   1.997   2.146   0.862  0.5430  1.0818 -0.0427
  124MOL   H14439750   2.238   1.800   0.875  0.2969  0.2126  0.5426
  124MOL   H14539751   2.055   1.774   0.869  0.1192  0.7349 -0.6694
  124MOL   C14639752   2.302   2.133   0.792  0.0519 -0.6084 -0.0950
  124MOL   C14739753   2.371   2.032   0.696  0.8131 -0.3950 -0.0873
  124MOL   C14839754   2.369   2.278   0.796  0.0786  0.0056 -0.5256
  124MOL   C14939755   2.291   2.383   0.877 -0.5694  0.5385 -0.2377
  124MOL   C15039756   2.375   2.470   0.968 -0.0420  0.2351 -0.8443
  124MOL   C15139757   2.155   2.403   0.872 -0.4766  0.2412 -0.2842
  124MOL   H15239758   2.207   2.158   0.744  0.4680  1.1500 -0.0098
  124MOL   H15339759   2.478   2.032   0.717  0.4601  2.6875  2.0278
  124MOL   H15439760   2.348   2.046   0.590 -1.5860  0.7331  0.5318
  124MOL   H15539761   2.346   1.929   0.722  0.7065 -0.2744  0.2925
  124MOL   H15639762   2.462   2.261   0.850  0.5995  0.6434 -1.2144
  124MOL   H15739763   2.314   2.556   0.995  2.6059  1.2514  2.2782
  124MOL   H15839764   2.458   2.511   0.911  1.6568  1.0715  2.0901
  124MOL   H15939765   2.415   2.413   1.053 -0.6556 -0.5498 -1.0785
  124MOL   H16039766   2.105   2.329   0.812  1.5744 -1.8844  0.5575
  124MOL   H16139767   2.098   2.474   0.931  0.1234  0.0550  0.5261
  124MOL   C16239768   2.415   2.348   0.659  0.3477 -0.0996 -0.5456
  124MOL   C16339769   2.298   2.339   0.561 -0.0077  0.3657 -0.3216
  124MOL   C16439770   2.556   2.297   0.594 -0.3170 -0.0489  0.0713
  124MOL   C16539771   2.668   2.264   0.695 -0.1867  0.4287  0.3510
  124MOL   C16639772   2.739   2.129   0.682 -0.2241 -0.4465 -0.5232
  124MOL   C16739773   2.707   2.343   0.791  0.2367 -0.2281 -0.8104
  124MOL   H16839774   2.423   2.455   0.677 -0.4247  0.0572 -1.1019
  124MOL   H16939775   2.203   2.351   0.613  0.5537 -0.7356  0.9819
  124MOL   H17039776   2.304   2.241   0.514  3.6736  1.3597 -2.1216
  124MOL   H17139777   2.312   2.415   0.484 -1.9329 -1.9846 -3.0771
  124MOL   H17239778   2.524   2.196   0.567  1.5395 -1.0204  1.4005
  124MOL   H17339779   2.810   2.135   0.600  0.4887 -2.1121 -0.0444
  124MOL   H17439780   2.675   2.054   0.636 -1.6701  0.1157  0.5117
  124MOL   H17539781   2.781   2.086   0.773  1.0729  0.6834 -0.5655
  124MOL   H17639782   2.663   2.441   0.806  0.3499 -0.3063  0.0482
  124MOL   H17739783   2.792   2.306   0.846 -0.4493  0.5220  0.7983
  124MOL   C17839784   2.619   2.370   0.470  0.1987 -0.9347 -0.5256
  124MOL   C17939785   2.615   2.524   0.499  0.0027 -0.3497 -0.1140
  124MOL   C18039786   2.552   2.322   0.329  0.2383  0.2072 -0.2488
  124MOL   C18139787   2.568   2.168   0.301  0.8713 -0.7623  0.3431
  124MOL   C18239788   2.456   2.113   0.214 -0.5294  0.3727  0.5962
  124MOL   C18339789   2.674   2.096   0.345 -0.1543 -0.4916  0.0716
  124MOL   H18439790   2.726   2.353   0.474  1.4363  5.4304 -0.2295
  124MOL   H18539791   2.682   2.584   0.437 -0.3088 -1.1492 -1.2269
  124MOL   H18639792   2.661   2.546   0.596  0.2844  1.1509 -0.5768
  124MOL   H18739793   2.512   2.554   0.483  0.2501 -0.2147 -1.5535
  124MOL   H18839794   2.444   2.338   0.332  0.2175 -0.1307  1.6537
  124MOL   H18939795   2.492   2.011   0.197  1.5987  1.1752  0.1579
  124MOL   H19039796   2.451   2.171   0.122 -0.3534  1.3429  1.1945
  124MOL   H19139797   2.360   2.119   0.266 -0.4268  1.0316  0.7023
  124MOL   H19239798   2.757   2.144   0.394 -0.9546  0.3359  0.6495
  124MOL   H19339799   2.677   1.988   0.340  0.8013 -0.3813 -1.8539
  124MOL   C19439800   2.598   2.394   0.204  0.2725 -0.2274 -0.3733
  124MOL   C19539801   2.750   2.390   0.173 -0.4751 -0.2549 -0.1779
  124MOL   C19639802   2.542   2.540   0.168 -0.4748 -0.2863 -0.1460
  124MOL   C19739803   2.386   2.553   0.208  0.5382  0.5627 -0.0645
  124MOL   C19839804   2.284   2.454   0.137  0.2878  0.4270  0.1340
  124MOL   C19939805   2.341   2.649   0.296 -0.6117  0.5515  0.3825
  124MOL   H20039806   2.564   2.331   0.122  0.2296  0.6428 -1.0342
  124MOL   H20139807   2.798   2.298   0.207 -2.4461 -1.8556 -1.5373
  124MOL   H20239808   2.795   2.478   0.219  1.2161 -0.6861 -0.9787
  124MOL   H20339809   2.778   2.407   0.069  0.5188  2.1476  0.4459
  124MOL   H20439810   2.582   2.616   0.236 -1.7952  0.7141 -0.4595
  124MOL   H20539811   2.251   2.464   0.034 -0.8662  1.7929  0.6189
  124MOL   H20639812   2.188   2.470   0.187  0.0520  0.7297 -0.4119
  124MOL   H20739813   2.294   2.351   0.173 -1.8992  0.1721  0.0750
  124MOL   H20839814   2.401   2.731   0.332  0.0711 -0.0082  0.5326
  124MOL   H20939815   2.234   2.645   0.315 -0.9709  2.3404 -1.1204
  124MOL   C21039816   2.567   2.597   0.024 -0.5846  0.4907  1.1014
  124MOL   C21139817   2.533   2.490   7.818  0.8436  0.0459  0.4295
  124MOL   C21239818   2.692   2.684   7.879 -0.0989 -0.1523 -0.5574
  124MOL   C21339819   2.739   2.772   0.099 -0.3921  0.6261  0.1165
  124MOL   C21439820   2.648   2.882   0.147  0.0357 -0.2307  0.3566
  124MOL   C21539821   2.867   2.771   0.143 -0.1588  0.1465 -0.2650
  124MOL   H21639822   2.493   2.677   0.026  0.6161  1.7507 -2.2457
  124MOL   H21739823   2.460   2.412   7.840  1.4852 -0.7130 -0.1277
  124MOL   H21839824   2.622   2.431   7.801  0.5811 -1.0228  2.5985
  124MOL   H21939825   2.504   2.527   7.720  0.3179  2.0414  1.3142
  124MOL   H22039826   2.775   2.613   7.872  0.4892  0.4745 -0.0807
  124MOL   H22139827   2.679   2.944   0.232 -2.4622 -0.6726  1.6461
  124MOL   H22239828   2.549   2.837   0.148 -0.9408  1.8280 -0.4731
  124MOL   H22339829   2.653   2.954   0.066 -1.7776 -0.6892 -0.1721
  124MOL   H22439830   2.945   2.710   0.101 -0.2733 -1.0105  1.1666
  124MOL   H22539831   2.895   2.834   0.226  1.0231  0.4282 -0.8728
  124MOL   C22639832   2.677   2.768   7.745  0.0645  0.3734 -0.1310
  124MOL   C22739833   2.536   2.820   7.724 -0.3644 -0.6266  0.5800
  124MOL   C22839834   2.746   2.699   7.623 -1.0686  0.3528  0.1027
  124MOL   C22939835   2.890   2.651   7.648  0.0854  0.4188  0.1673
  124MOL   C23039836   2.921   2.515   7.590 -0.3221 -0.0638 -0.3287
  124MOL   C23139837   2.982   2.709   7.722  0.2746 -0.7400 -0.4729
  124MOL   H23239838   2.735   2.861   7.746  0.2456  0.3661 -3.7602
  124MOL   H23339839   2.539   2.895   7.644 -1.2692 -0.1588  0.9720
  124MOL   H23439840   2.497   2.873   7.811  2.6658 -0.7601  2.0775
  124MOL   H23539841   2.473   2.739   7.689 -1.0994 -0.2828  1.0999
  124MOL   H23639842   2.675   2.617   7.616 -2.8790  1.8103  1.0381
  124MOL   H23739843   2.901   2.515   7.483 -2.2204  0.7964  0.0159
  124MOL   H23839844   2.858   2.443   7.643 -1.7030  0.8561 -0.7190
  124MOL   H23939845   3.025   2.484   7.600 -0.3284  0.2699  0.8485
  124MOL   H24039846   2.950   2.808   7.751  0.4789 -0.2362 -1.9849
  124MOL   H24139847   3.077   2.670   7.757  1.1383  0.5061 -1.4130
  124MOL   C24239848   2.737   2.766   7.481  0.0935  1.2034  0.7552
  124MOL   C24339849   2.807   2.904   7.488 -0.0745  0.1212 -0.0462
  124MOL   C24439850   2.604   2.768   7.396 -0.2640 -0.3068 -0.1195
  124MOL   C24539851   2.547   2.625   7.382  0.2889  0.3715  0.9228
  124MOL   C24639852   2.395   2.622   7.399  0.1485  0.1289 -0.0566
  124MOL   C24739853   2.620   2.509   7.365 -0.2238 -0.1695  0.3848
  124MOL   H24839854   2.803   2.702   7.424 -2.2419  0.9601 -1.7795
  124MOL   H24939855   2.763   2.965   7.566 -2.0432  1.1235 -1.8768
  124MOL   H25039856   2.822   2.949   7.389  1.5265 -1.4604 -0.5509
  124MOL   H25139857   2.908   2.888   7.524 -1.1109 -0.8932  2.5302
  124MOL   H25239858   2.532   2.823   7.457  0.6209  0.3091  0.3797
  124MOL   H25339859   2.356   2.667   7.490 -1.1408 -0.3440 -0.3628
  124MOL   H25439860   2.351   2.522   7.396 -0.5534  0.4618 -0.9045
  124MOL   H25539861   2.346   2.687   7.327  2.6632  2.6420  0.3948
  124MOL   H25639862   2.728   2.505   7.356 -0.3907 -1.8098 -1.2224
  124MOL   H25739863   2.575   2.410   7.363 -1.1070  0.2118  0.9671
  124MOL   C25839864   2.612   2.837   7.259 -0.3361  0.0996  1.2611
  124MOL   C25939865   2.745   2.796   7.183  0.2231  0.2218  0.4547
  124MOL   C26039866   2.583   2.994   7.253  0.5599 -0.4956 -0.2301
  124MOL   C26139867   2.444   3.026   7.313 -0.3061  0.1738  0.2356
  124MOL   C26239868   2.443   3.143   7.411  0.3097  0.1698  0.1330
  124MOL   C26339869   2.332   2.953   7.290 -0.1054 -0.2530  0.1976
  124MOL   H26439870   2.541   2.793   7.189  2.0071 -1.2846 -0.3538
  124MOL   H26539871   2.753   2.688   7.173 -2.0282 -0.2228  2.8995
  124MOL   H26639872   2.838   2.844   7.213 -0.7372  1.3145  1.8063
  124MOL   H26739873   2.735   2.834   7.081 -1.6889 -0.3732  0.4069
  124MOL   H26839874   2.657   3.025   7.327  1.0207  0.6244 -1.1546
  124MOL   H26939875   2.343   3.131   7.453 -1.3930  0.6313 -3.6466
  124MOL   H27039876   2.443   3.240   7.362 -0.1313  0.8185  1.3963
  124MOL   H27139877   2.518   3.139   7.490  1.5800  0.8183 -1.0200
  124MOL   H27239878   2.340   2.874   7.217  0.4999  0.0674 -0.0941
  124MOL   H27339879   2.237   2.972   7.337 -0.2080 -1.6852  0.5647
  124MOL   C27439880   2.593   3.072   7.121 -0.0215  1.0362 -0.2521
  124MOL   C27539881   2.516   3.011   7.000  1.0096 -0.0534 -0.1814
  124MOL   C27639882   2.743   3.111   7.085  0.0158  0.0773  0.8883
  124MOL   C27739883   2.819   3.181   7.203  0.3602 -0.8624 -0.3903
  124MOL   C27839884   2.967   3.144   7.221  1.0517  0.4890 -0.0491
  124MOL   C27939885   2.764   3.263   7.292  0.2797 -0.2251 -0.1451
  124MOL   H28039886   2.558   3.173   7.145 -1.2734  0.5467  0.0484
  124MOL   H28139887   2.425   2.963   7.037  0.9184  0.5017  0.3125
  124MOL   H28239888   2.573   2.929   6.956 -0.7743 -0.5658 -1.6426
  124MOL   H28339889   2.499   3.084   6.921 -0.7008  0.2797  0.4670
  124MOL   H28439890   2.804   3.020   7.079  1.3078  0.9840 -0.0672
  124MOL   H28539891   2.971   3.037   7.237 -0.8816  0.1858 -1.3699
  124MOL   H28639892   3.014   3.193   7.306  0.3597 -0.8838  1.1405
  124MOL   H28739893   3.020   3.163   7.127 -0.4209  1.7432 -0.6484
  124MOL   H28839894   2.662   3.296   7.282  0.8077  0.8155 -2.5924
  124MOL   H28939895   2.811   3.304   7.380 -0.1312 -0.2255  0.0737
  124MOL   C29039896   2.779   3.186   6.953 -0.0122 -0.8834 -0.6004
  124MOL   C29139897   2.683   3.310   6.942 -0.6459  0.3531 -0.1100
  124MOL   C29239898   2.790   3.101   6.824  0.7629 -0.2853 -0.1167
  124MOL   C29339899   2.874   2.979   6.842  0.0774 -0.0209 -0.4560
  124MOL   C29439900   3.023   2.986   6.875  0.0065 -0.2744 -0.4488
  124MOL   C29539901   2.818   2.861   6.812 -0.9486  0.1302 -0.2406
  124MOL   H29639902   2.884   3.213   6.963 -0.1023 -0.9304  0.5243
  124MOL   H29739903   2.663   3.354   7.039  1.3279 -0.4306  0.6774
  124MOL   H29839904   2.588   3.279   6.899  0.2394 -3.1487  0.3152
  124MOL   H29939905   2.720   3.393   6.881 -0.4535  0.3807  0.0437
  124MOL   H30039906   2.688   3.070   6.802  0.8551 -0.8715  0.2836
  124MOL   H30139907   3.063   2.886   6.859 -2.9473 -1.7432  0.8543
  124MOL   H30239908   3.020   3.010   6.982 -1.4741  0.9478 -0.7462
  124MOL   H30339909   3.090   3.046   6.814  1.9888  0.7217  2.5600
  124MOL   H30439910   2.711   2.858   6.794 -0.8400  0.0126 -0.8704
  124MOL   H30539911   2.877   2.771   6.809  0.3903  1.0018 -0.2786
  124MOL   C30639912   2.818   3.180   6.688 -0.8510 -0.2629  0.5770
  124MOL   C30739913   2.924   3.298   6.703 -0.0755  0.1323 -0.2325
  124MOL   C30839914   2.688   3.225   6.614 -0.2463 -0.2331 -0.0867
  124MOL   C30939915   2.711   3.251   6.465 -0.4699  0.0010 -0.2454
  124MOL   C31039916   2.730   3.396   6.431  0.0070 -1.1164 -0.1407
  124MOL   C31139917   2.721   3.154   6.368  0.6720  0.5622  0.7444
  124MOL   H31239918   2.870   3.107   6.626  1.6370  3.4709 -1.9181
  124MOL   H31339919   2.872   3.394   6.710 -0.9664 -0.2654 -1.2972
  124MOL   H31439920   2.981   3.305   6.611  1.1177 -1.8192  0.3441
  124MOL   H31539921   2.999   3.287   6.781  1.6393 -1.4560 -2.0662
  124MOL   H31639922   2.616   3.143   6.619  1.1795 -1.4862  0.1875
  124MOL   H31739923   2.786   3.416   6.340 -1.1145 -1.8365 -1.0029
  124MOL   H31839924   2.784   3.458   6.503 -0.4964 -0.3983 -0.3714
  124MOL   H31939925   2.636   3.448   6.414  0.4487 -0.0500  0.6302
  124MOL   H32039926   2.700   3.049   6.382 -0.2824  0.3599 -1.9054
  124MOL   H32139927   2.735   3.179   6.264 -0.0212  2.5323  1.1027
  124MOL   H32239928   2.631   3.299   6.671 -2.3734 -2.3021  0.5405
  125MOL     C139929   3.287   1.859   3.157  0.1053 -0.6855 -0.3593
  125MOL     C239930   3.408   1.810   3.226 -0.1791 -0.0869  0.1285
  125MOL     C339931   3.186   1.744   3.127 -0.3107 -0.7935 -0.4962
  125MOL     C439932   3.241   1.638   3.037 -0.0384 -0.1657  0.0304
  125MOL     C539933   3.175   1.500   3.045 -0.6541 -0.8723  0.3919
  125MOL     C639934   3.335   1.660   2.947  0.1830  0.1323  0.8139
  125MOL     H739935   3.237   1.939   3.211 -0.5474 -0.7279 -0.8933
  125MOL     H839936   3.482   1.886   3.246 -1.6239  1.4796 -0.3490
  125MOL     H939937   3.458   1.728   3.175  0.7104 -1.6876  3.4394
  125MOL    H1039938   3.370   1.776   3.323 -0.3101  2.7496  1.1225
  125MOL    H1139939   3.174   1.688   3.219  2.7133  2.2489  1.8993
  125MOL    H1239940   3.190   1.459   3.145 -3.8013  0.3135  1.4063
  125MOL    H1339941   3.215   1.432   2.970  1.4436 -2.2164  2.6615
  125MOL    H1439942   3.068   1.500   3.025 -0.8432 -2.7044  1.2755
  125MOL    H1539943   3.371   1.760   2.926 -0.8360  0.8285  2.2626
  125MOL    H1639944   3.379   1.577   2.894 -3.0054 -2.1953  1.6464
  125MOL    H1739945   3.322   1.903   3.064 -0.1367 -2.6894 -1.4167
  125MOL    C1839946   3.044   1.802   3.093  0.2398 -0.1392  0.4355
  125MOL    C1939947   3.056   1.911   2.982 -0.0269  0.0755 -0.1920
  125MOL    C2039948   2.967   1.852   3.228  0.1356  0.1029 -0.0904
  125MOL    C2139949   2.940   1.730   3.315  0.6840  0.4137  0.2628
  125MOL    C2239950   2.856   1.616   3.259 -0.5687  0.6253  0.0807
  125MOL    C2339951   2.990   1.731   3.444 -0.0329 -0.2275  0.1541
  125MOL    H2439952   2.990   1.717   3.051 -0.1660  0.5438 -0.4175
  125MOL    H2539953   2.963   1.923   2.926  0.0994  1.2969 -0.1639
  125MOL    H2639954   3.126   1.868   2.910 -0.4911  1.3413 -1.4349
  125MOL    H2739955   3.099   2.005   3.016  1.2452  0.0869 -1.7765
  125MOL    H2839956   3.046   1.902   3.283 -0.5663 -1.3007  2.2360
  125MOL    H2939957   2.889   1.586   3.159  0.4520  2.4281 -0.1343
  125MOL    H3039958   2.754   1.654   3.259 -0.2335  1.5400  1.3913
  125MOL    H3139959   2.877   1.531   3.325 -2.2807 -0.0493 -0.2311
  125MOL    H3239960   3.044   1.807   3.499 -0.4240 -1.0315  1.6975
  125MOL    H3339961   2.981   1.643   3.506 -0.0849 -0.7137 -0.5357
  125MOL    C3439962   2.834   1.935   3.218  0.1094  0.5028  0.1255
  125MOL    C3539963   2.742   1.883   3.102  0.1299  0.5903 -0.7230
  125MOL    C3639964   2.845   2.087   3.218  0.1163  1.0268  0.0464
  125MOL    C3739965   2.953   2.155   3.304 -0.4809  0.6758  0.5287
  125MOL    C3839966   2.930   2.156   3.457 -0.6626 -0.0418  0.0781
  125MOL    C3939967   3.072   2.204   3.250  0.3665 -0.4753  0.5469
  125MOL    H4039968   2.763   1.921   3.299  1.5469 -0.2004  1.3026
  125MOL    H4139969   2.638   1.903   3.127  0.7248 -0.3389  2.8917
  125MOL    H4239970   2.742   1.777   3.078 -2.4534  0.6343 -0.9713
  125MOL    H4339971   2.779   1.921   3.007  1.6702  0.2596 -0.2844
  125MOL    H4439972   2.891   2.110   3.121  2.9544  0.3579  1.1813
  125MOL    H4539973   2.884   2.063   3.489 -0.7920 -0.5042 -1.4019
  125MOL    H4639974   2.864   2.241   3.479  0.2253  0.3587  1.2295
  125MOL    H4739975   3.021   2.171   3.514 -0.7695 -0.2424  0.3011
  125MOL    H4839976   3.091   2.205   3.144  1.6338 -2.5721  0.7153
  125MOL    H4939977   3.148   2.248   3.313 -1.2160  2.5231  0.4652
  125MOL    C5039978   2.721   2.183   3.213  0.2646 -0.6058 -0.7560
  125MOL    C5139979   2.616   2.134   3.313 -0.2112  0.3622 -0.4354
  125MOL    C5239980   2.662   2.213   3.065  0.1698  0.0147 -0.4876
  125MOL    C5339981   2.760   2.247   2.951 -0.3415  0.5533  0.1772
  125MOL    C5439982   2.840   2.377   2.959  0.0950  0.2728 -0.2090
  125MOL    C5539983   2.776   2.161   2.846 -0.3851  0.1451 -0.1812
  125MOL    H5639984   2.754   2.281   3.248  1.0397 -0.1264 -2.7501
  125MOL    H5739985   2.657   2.093   3.405 -0.6900  1.0029  0.0713
  125MOL    H5839986   2.561   2.047   3.277  1.4452 -1.2035  0.7620
  125MOL    H5939987   2.543   2.208   3.347 -0.0506 -0.0882  0.9158
  125MOL    H6039988   2.626   2.112   3.047  2.3911 -0.8319 -0.3463
  125MOL    H6139989   2.917   2.382   2.881  0.7812  1.0428  0.5137
  125MOL    H6239990   2.885   2.390   3.057 -3.0214  0.1305  1.3005
  125MOL    H6339991   2.774   2.463   2.950 -1.0175 -0.7149 -1.7781
  125MOL    H6439992   2.724   2.067   2.836  0.6810 -0.5263  0.4770
  125MOL    H6539993   2.847   2.182   2.767 -0.6025 -0.0603 -0.4311
  125MOL    C6639994   2.535   2.311   3.053 -0.0651 -0.0554 -0.0135
  125MOL    C6739995   2.557   2.436   3.146 -0.0100  0.4599 -0.1268
  125MOL    C6839996   2.390   2.251   3.061 -0.1397  0.2730 -0.0518
  125MOL    C6939997   2.388   2.113   2.983 -0.1807  0.3147  0.2316
  125MOL    C7039998   2.311   1.998   3.049 -0.3059 -0.3547  0.3752
  125MOL    C7139999   2.449   2.090   2.865  1.0895 -0.4652  0.1559
  125MOL    H7240000   2.543   2.349   2.951 -2.8771  2.3930  0.6065
  125MOL    H7340001   2.507   2.410   3.239  0.6155  1.1596  0.4091
  125MOL    H7440002   2.504   2.522   3.105  2.6865  1.1044 -2.4023
  125MOL    H7540003   2.661   2.466   3.160  0.4330 -0.9799 -0.2837
  125MOL    H7640004   2.376   2.215   3.163  1.0884  1.3056  0.5067
  125MOL    H7740005   2.368   1.948   3.128  0.2174 -0.9338 -0.3602
  125MOL    H7840006   2.268   1.931   2.975  1.5599 -0.7463 -0.3766
  125MOL    H7940007   2.215   2.024   3.092  0.4097  0.6123  1.4203
  125MOL    H8040008   2.497   2.176   2.820 -0.3850  1.0649  1.4176
  125MOL    H8140009   2.442   1.992   2.819  2.1721 -0.2843 -0.4126
  125MOL    C8240010   2.272   2.345   3.030  0.4979  0.4516 -0.0867
  125MOL    C8340011   2.305   2.414   2.897 -0.5036 -0.2222  0.4186
  125MOL    C8440012   2.218   2.429   3.143 -0.4218  0.1485 -0.1029
  125MOL    C8540013   2.197   2.365   3.281 -0.0406 -0.0249  0.2277
  125MOL    C8640014   2.103   2.250   3.294  0.5480 -0.7554 -0.0572
  125MOL    C8740015   2.258   2.402   3.396  0.1569 -0.5298  0.1966
  125MOL    H8840016   2.188   2.279   3.009 -0.6568  1.5776  0.9723
  125MOL    H8940017   2.378   2.493   2.911 -0.2226 -0.6603  1.4413
  125MOL    H9040018   2.216   2.453   2.847 -0.0772 -1.9312 -1.7816
  125MOL    H9140019   2.343   2.341   2.826  1.7775  1.1068  0.2241
  125MOL    H9240020   2.302   2.494   3.169 -0.9620  0.4662  0.8920
  125MOL    H9340021   2.119   2.197   3.388  0.2956  0.6689  0.8062
  125MOL    H9440022   2.119   2.183   3.209 -1.2484 -1.6490  0.2943
  125MOL    H9540023   2.008   2.302   3.296  0.1295 -1.4594 -1.1237
  125MOL    H9640024   2.324   2.485   3.416  0.6334 -1.8931  4.9195
  125MOL    H9740025   2.239   2.343   3.484 -0.2285  0.2738  0.6554
  125MOL    C9840026   2.097   2.521   3.097  0.3164 -0.1726  0.2750
  125MOL    C9940027   1.992   2.433   3.021  0.0566 -0.4066 -0.6288
  125MOL   C10040028   2.145   2.653   3.034 -0.2514 -0.6212 -0.1758
  125MOL   C10140029   2.242   2.730   3.128  0.4372  0.6459 -0.4593
  125MOL   C10240030   2.358   2.805   3.059  0.8576 -0.3140 -0.0991
  125MOL   C10340031   2.238   2.728   3.264  0.0302  0.1420 -0.0591
  125MOL   H10440032   2.047   2.548   3.190 -2.6104  0.7396 -1.4874
  125MOL   H10540033   1.970   2.341   3.075 -1.8062 -0.1125 -0.8486
  125MOL   H10640034   2.030   2.412   2.921  0.9253  1.0020 -0.6124
  125MOL   H10740035   1.900   2.492   3.010  0.8954  0.9470 -0.4398
  125MOL   H10840036   2.203   2.628   2.945  0.4063  0.1662  0.0284
  125MOL   H10940037   2.443   2.837   3.120  0.2671  1.4588 -0.2012
  125MOL   H11040038   2.327   2.901   3.018 -1.7718 -1.6876 -1.4491
  125MOL   H11140039   2.395   2.737   2.982 -0.2783 -0.7074 -0.3038
  125MOL   H11240040   2.157   2.676   3.313  0.1620 -0.8440 -0.8718
  125MOL   H11340041   2.310   2.775   3.329 -0.8493  1.1108  0.2328
  125MOL   C11440042   2.031   2.751   2.992  0.3018  0.2995 -0.5944
  125MOL   C11540043   1.918   2.769   3.101  0.9285 -0.0005 -0.6771
  125MOL   C11640044   1.972   2.741   2.848  0.1951 -0.2530  0.0431
  125MOL   C11740045   2.087   2.716   2.744  0.3296  1.0706 -0.3026
  125MOL   C11840046   2.050   2.606   2.634 -0.4644  0.8239 -0.0834
  125MOL   C11940047   2.199   2.788   2.731 -0.2111  0.2330 -0.4510
  125MOL   H12040048   2.086   2.845   2.988  0.6191  0.1122 -0.6224
  125MOL   H12140049   1.852   2.686   3.124  0.9254  0.7407  2.0522
  125MOL   H12240050   1.872   2.867   3.088  2.8507  0.8135 -1.5904
  125MOL   H12340051   1.974   2.767   3.194 -0.7458  0.7123  0.3673
  125MOL   H12440052   1.908   2.653   2.841  1.3885 -1.3613  2.3332
  125MOL   H12540053   2.139   2.576   2.578 -0.7697 -0.0690 -0.1045
  125MOL   H12640054   1.965   2.631   2.570 -0.1218  1.4860 -0.2762
  125MOL   H12740055   2.026   2.510   2.680 -1.0532  0.9718 -0.0798
  125MOL   H12840056   2.221   2.872   2.795  4.0861 -0.8316 -0.3850
  125MOL   H12940057   2.276   2.759   2.660  0.1818  0.3705 -0.0821
  125MOL   C13040058   1.882   2.858   2.798 -0.0676 -0.2876  0.8464
  125MOL   C13140059   1.944   2.991   2.823  0.0720  0.0812 -0.1578
  125MOL   C13240060   1.725   2.842   2.835  0.4813 -0.0010 -0.2621
  125MOL   C13340061   1.670   2.702   2.836 -0.2898 -0.0797  1.3108
  125MOL   C13440062   1.645   2.630   2.702  0.4526  0.3519 -0.4025
  125MOL   C13540063   1.624   2.645   2.949  0.5107  0.0301 -0.0943
  125MOL   H13640064   1.876   2.846   2.690  0.1934 -0.5124  0.8555
  125MOL   H13740065   1.977   2.995   2.927  1.9523  1.0694 -0.7613
  125MOL   H13840066   1.883   3.081   2.814 -0.1533 -0.1126 -0.5756
  125MOL   H13940067   2.037   3.004   2.767  1.0683  1.1254  1.6796
  125MOL   H14040068   1.721   2.866   2.941 -2.9152  2.9419 -0.9746
  125MOL   H14140069   1.614   2.526   2.713 -1.8931  0.8877 -1.7367
  125MOL   H14240070   1.747   2.621   2.663  1.0539 -1.6115  1.4766
  125MOL   H14340071   1.582   2.686   2.634 -0.7122  0.3069  0.6230
  125MOL   H14440072   1.634   2.692   3.046  0.4845  1.8495 -0.9684
  125MOL   H14540073   1.579   2.547   2.945 -1.1766  0.6954  1.5312
  125MOL   C14640074   1.630   2.933   2.763 -0.5414  0.1551 -0.2329
  125MOL   C14740075   1.673   2.979   2.627 -0.0463  0.1077 -0.2323
  125MOL   C14840076   1.576   3.044   2.853  0.2499  0.2510 -0.2580
  125MOL   C14940077   1.505   2.994   2.978 -0.1489  0.4771  0.5216
  125MOL   C15040078   1.565   3.060   3.095  0.4881  0.0658  0.1084
  125MOL   C15140079   1.413   2.895   2.977 -0.4318 -0.4159  0.1820
  125MOL   H15240080   1.546   2.868   2.737  1.0841 -2.3997  0.7500
  125MOL   H15340081   1.692   2.897   2.557 -1.5746  1.3923 -2.2239
  125MOL   H15440082   1.755   3.049   2.638  0.4707 -0.6908  1.1247
  125MOL   H15540083   1.594   3.034   2.575 -0.7966 -1.1652 -0.4970
  125MOL   H15640084   1.660   3.103   2.888 -0.1134  0.4686  0.2602
  125MOL   H15740085   1.671   3.088   3.095  0.6759 -0.6256  0.5352
  125MOL   H15840086   1.549   2.984   3.172  1.5061 -0.9159 -0.6268
  125MOL   H15940087   1.517   3.155   3.118 -1.3266 -0.7602 -0.2283
  125MOL   H16040088   1.379   2.846   2.887  0.6075  0.4124 -0.6802
  125MOL   H16140089   1.387   2.861   3.076  0.5458  0.3858  0.7150
  125MOL   C16240090   1.472   3.151   2.782  0.2584  0.2183 -0.6679
  125MOL   C16340091   1.357   3.077   2.706 -0.1723 -0.1108  0.4848
  125MOL   C16440092   1.534   3.275   2.703  0.5813  0.2407  0.8923
  125MOL   C16540093   1.649   3.345   2.783 -0.4870  0.5497  0.0020
  125MOL   C16640094   1.776   3.364   2.696 -0.3456 -0.4018 -0.1243
  125MOL   C16740095   1.646   3.380   2.913 -0.1722 -0.0260 -0.2493
  125MOL   H16840096   1.424   3.206   2.864  1.2608 -0.5216  0.4313
  125MOL   H16940097   1.388   3.006   2.630 -1.2097 -0.2922  0.2228
  125MOL   H17040098   1.289   3.140   2.648 -0.6828 -1.6868 -0.6458
  125MOL   H17140099   1.290   3.029   2.777  1.8258 -3.3561  0.2633
  125MOL   H17240100   1.593   3.243   2.617 -0.9388 -1.1966  0.3589
  125MOL   H17340101   1.779   3.303   2.605 -0.6240 -0.0007 -0.4000
  125MOL   H17440102   1.860   3.337   2.761 -0.3859 -0.8281 -0.2451
  125MOL   H17540103   1.797   3.465   2.662 -0.2362 -0.3601  0.0673
  125MOL   H17640104   1.554   3.365   2.968 -0.6974 -0.6399 -1.2740
  125MOL   H17740105   1.730   3.421   2.967  0.5839 -0.7284 -0.8637
  125MOL   C17840106   1.444   3.381   2.629  0.4521 -0.4052 -0.2798
  125MOL   C17940107   1.326   3.417   2.720  0.8087 -0.3198  0.1013
  125MOL   C18040108   1.403   3.355   2.480  0.3607 -1.0191  0.4587
  125MOL   C18140109   1.517   3.315   2.380 -0.1945 -0.0289  0.7287
  125MOL   C18240110   1.488   3.197   2.290  0.3198 -0.6630 -0.0762
  125MOL   C18340111   1.631   3.384   2.366  0.2117 -0.4302  0.5815
  125MOL   H18440112   1.504   3.471   2.635 -0.9431  0.4066  2.0659
  125MOL   H18540113   1.358   3.404   2.823  2.0912  1.8183 -0.0147
  125MOL   H18640114   1.237   3.354   2.713  0.6829 -0.1735  0.3890
  125MOL   H18740115   1.287   3.516   2.695  1.2611 -0.3450 -0.7465
  125MOL   H18840116   1.347   3.262   2.487 -0.2404 -1.0087 -3.3776
  125MOL   H18940117   1.456   3.114   2.353  0.2675 -2.7439 -2.7454
  125MOL   H19040118   1.568   3.182   2.218  1.9910 -1.7684  1.9750
  125MOL   H19140119   1.401   3.224   2.230 -0.7103 -0.3160  1.5528
  125MOL   H19240120   1.657   3.470   2.427 -0.9959  1.3614 -1.3959
  125MOL   H19340121   1.705   3.363   2.291 -0.8674 -2.8366  0.1647
  125MOL   C19440122   1.307   3.462   2.413 -0.1957 -0.2208  0.0542
  125MOL   C19540123   1.367   3.596   2.434 -1.1957  0.2202  0.0501
  125MOL   C19640124   1.143   3.467   2.435  0.0945  0.0856  0.0859
  125MOL   C19740125   1.076   3.326   2.456 -0.3074 -0.0646  0.6762
  125MOL   C19840126   0.967   3.314   2.562  0.4069  0.0293  0.1492
  125MOL   C19940127   1.117   3.217   2.388 -0.1502 -0.2203  0.3013
  125MOL   H20040128   1.319   3.451   2.305  0.8780 -2.1795  0.3383
  125MOL   H20140129   1.357   3.659   2.345  0.3771  0.7022  0.2003
  125MOL   H20240130   1.473   3.588   2.455 -1.0870  0.7217 -0.3163
  125MOL   H20340131   1.338   3.660   2.517  0.7852  0.2022  0.7742
  125MOL   H20440132   1.127   3.515   2.532  1.4986  0.0786  0.3336
  125MOL   H20540133   1.016   3.338   2.657  2.8691 -2.0660 -0.5414
  125MOL   H20640134   0.937   3.210   2.566  3.7185 -0.9869  0.4673
  125MOL   H20740135   0.883   3.379   2.538 -0.1974 -1.4141 -1.7407
  125MOL   H20840136   1.191   3.239   2.313 -1.4364  1.0097 -0.6409
  125MOL   H20940137   1.073   3.119   2.398  2.5361 -1.5329 -0.2809
  125MOL   C21040138   1.051   3.544   2.334  0.1358 -0.2461  0.8304
  125MOL   C21140139   1.121   3.538   2.191 -0.0980 -0.4628  0.9311
  125MOL   C21240140   1.010   3.685   2.380  0.6907  0.2553 -0.3231
  125MOL   C21340141   0.940   3.695   2.523 -0.3437  0.2344 -0.0349
  125MOL   C21440142   1.017   3.788   2.619 -0.3128 -0.3719  0.3936
  125MOL   C21540143   0.827   3.626   2.558 -0.7612  0.5116 -0.3596
  125MOL   H21640144   0.956   3.490   2.331  0.1739 -0.2845  0.2353
  125MOL   H21740145   1.206   3.606   2.197  0.2758 -0.6947 -1.4420
  125MOL   H21840146   1.055   3.570   2.111  1.5308  1.1055  0.1737
  125MOL   H21940147   1.154   3.436   2.169  3.1695  1.3401 -3.2350
  125MOL   H22040148   1.108   3.731   2.392  1.4211 -1.9092  2.6755
  125MOL   H22140149   1.126   3.783   2.625 -0.1822  1.0149 -0.4346
  125MOL   H22240150   0.985   3.767   2.721 -0.7634 -2.0106 -0.0816
  125MOL   H22340151   1.005   3.894   2.593  0.7375 -0.9594 -2.7920
  125MOL   H22440152   0.763   3.575   2.487  0.9239 -0.2434 -1.3861
  125MOL   H22540153   0.798   3.634   2.661  2.5649 -1.0847  0.7601
  125MOL   C22640154   0.922   3.774   2.283 -0.2561  0.3710 -0.2811
  125MOL   C22740155   0.808   3.699   2.210  0.7367 -0.7617 -0.0987
  125MOL   C22840156   1.022   3.856   2.197 -0.6427  0.1231  0.4015
  125MOL   C22940157   1.109   3.953   2.268 -0.0177 -0.1757  0.0376
  125MOL   C23040158   1.252   3.952   2.224 -0.4816  0.4143  0.3187
  125MOL   C23140159   1.068   4.028   2.376 -0.1659  0.6690  0.2389
  125MOL   H23240160   0.866   3.846   2.343 -3.7399 -1.1119 -1.6320
  125MOL   H23340161   0.858   3.624   2.150  0.2200 -0.0954 -1.3802
  125MOL   H23440162   0.753   3.763   2.141 -0.6057 -2.1842 -0.3679
  125MOL   H23540163   0.732   3.656   2.276 -1.0421  0.9466 -0.9600
  125MOL   H23640164   1.091   3.794   2.139  0.2029  2.6390 -1.3584
  125MOL   H23740165   1.311   4.035   2.264 -2.1156  2.4591 -1.3596
  125MOL   H23840166   1.255   3.975   2.117 -0.8354  0.6801  0.3654
  125MOL   H23940167   1.295   3.855   2.248  0.4862  0.4113 -1.3220
  125MOL   H24040168   0.968   4.033   2.417 -0.1082  0.8832  0.3518
  125MOL   H24140169   1.145   4.094   2.412 -0.4964  0.6597  0.9812
  125MOL   C24240170   0.955   3.945   2.081 -0.4571 -0.5844  0.7701
  125MOL   C24340171   0.835   4.034   2.128 -0.8267  0.3868 -0.4093
  125MOL   C24440172   0.911   3.867   1.942 -0.2993  0.5493 -0.5430
  125MOL   C24540173   0.995   3.740   1.902  0.1015  0.2339  0.2806
  125MOL   C24640174   1.147   3.759   1.870  0.5555 -0.2935 -0.0448
  125MOL   C24740175   0.935   3.618   1.893  0.2925 -0.0531  0.6381
  125MOL   H24840176   1.032   4.019   2.061 -1.5027  0.0407 -1.1107
  125MOL   H24940177   0.841   4.065   2.232 -1.8291  0.3062 -0.3272
  125MOL   H25040178   0.738   3.986   2.112 -0.5039 -1.0708  1.8537
  125MOL   H25140179   0.833   4.126   2.069  0.3749  0.5969 -0.1414
  125MOL   H25240180   0.811   3.827   1.958 -0.9095  0.9192 -3.1664
  125MOL   H25340181   1.194   3.663   1.887 -1.3118 -0.7713  2.7994
  125MOL   H25440182   1.199   3.829   1.936  1.7020 -0.2687 -0.9553
  125MOL   H25540183   1.164   3.790   1.767 -2.3117  2.7903  0.3155
  125MOL   H25640184   0.830   3.600   1.908  0.3525 -0.9215  0.0338
  125MOL   H25740185   0.986   3.525   1.873 -1.8509 -0.9781 -0.6869
  125MOL   C25840186   0.891   3.961   1.820 -0.6349 -0.5638 -0.1337
  125MOL   C25940187   1.004   4.068   1.822  0.2062  0.3642  0.0102
  125MOL   C26040188   0.739   4.017   1.800  0.2048 -0.6344 -0.9878
  125MOL   C26140189   0.637   3.902   1.797 -0.1364  0.5002 -0.8760
  125MOL   C26240190   0.502   3.938   1.852  0.7651  0.5454 -0.2018
  125MOL   C26340191   0.660   3.781   1.758  0.4178  0.6414 -0.6502
  125MOL   H26440192   0.918   3.902   1.733 -0.8606 -0.6072 -0.1735
  125MOL   H26540193   1.100   4.022   1.844 -0.7359 -1.2650  0.7580
  125MOL   H26640194   0.974   4.155   1.880 -0.3280  0.4412 -0.3810
  125MOL   H26740195   1.020   4.102   1.720 -2.2092  2.0357  0.1486
  125MOL   H26840196   0.722   4.070   1.893 -2.6120  0.9785 -2.3800
  125MOL   H26940197   0.451   3.991   1.772 -1.6639 -1.8850 -0.3558
  125MOL   H27040198   0.498   3.999   1.942 -1.7093  1.4802 -0.9000
  125MOL   H27140199   0.445   3.857   1.897  0.8319 -0.7902 -2.4348
  125MOL   H27240200   0.755   3.754   1.714  0.3320 -0.9511  0.1357
  125MOL   H27340201   0.600   3.691   1.761  0.5314  0.5818 -0.2670
  125MOL   C27440202   0.714   4.120   1.683 -0.5122  0.1280 -0.4820
  125MOL   C27540203   0.752   4.065   1.542 -0.3133  0.2255  0.5209
  125MOL   C27640204   0.757   4.270   1.710  0.1835 -0.0447  0.0442
  125MOL   C27740205   0.729   4.325   1.849 -0.0101  0.2803  0.5438
  125MOL   C27840206   0.821   4.424   1.910  0.1748 -0.1048  0.9523
  125MOL   C27940207   0.611   4.297   1.910  0.0327  0.0087  0.0483
  125MOL   H28040208   0.606   4.112   1.683 -0.4538 -0.7526 -0.3105
  125MOL   H28140209   0.852   4.105   1.529 -0.1598  0.1555  1.4319
  125MOL   H28240210   0.674   4.089   1.470  1.0063  0.6311 -0.8081
  125MOL   H28340211   0.752   3.956   1.542 -0.5442  0.2112  1.7546
  125MOL   H28440212   0.866   4.278   1.705  0.2864 -1.7451 -0.7529
  125MOL   H28540213   0.903   4.365   1.950 -0.5439 -2.0554 -0.3868
  125MOL   H28640214   0.779   4.487   1.989 -2.2023 -0.3996 -0.0201
  125MOL   H28740215   0.860   4.499   1.841 -1.2859 -0.2318 -0.0520
  125MOL   H28840216   0.532   4.230   1.880 -1.1753  1.4779 -0.1577
  125MOL   H28940217   0.589   4.337   2.007 -1.9841  0.0028 -0.3796
  125MOL   C29040218   0.717   4.381   1.599  0.4781  0.1496  0.4053
  125MOL   C29140219   0.567   4.365   1.558 -0.3110 -0.4628  0.1290
  125MOL   C29240220   0.819   4.402   1.480 -0.3028 -0.5761 -0.2975
  125MOL   C29340221   0.948   4.461   1.532 -0.6492  0.3005  0.8749
  125MOL   C29440222   0.949   4.603   1.577 -0.8043  0.3647  0.8263
  125MOL   C29540223   1.065   4.392   1.538  0.0735  0.2205 -0.3333
  125MOL   H29640224   0.711   4.474   1.657  1.9001  0.2878  0.3650
  125MOL   H29740225   0.557   4.275   1.497  2.9310 -0.7722 -0.0829
  125MOL   H29840226   0.511   4.449   1.519  0.5615  0.1968  0.2715
  125MOL   H29940227   0.515   4.346   1.652  1.9077  1.5712  1.8449
  125MOL   H30040228   0.850   4.300   1.454 -2.1772 -1.2546  0.0439
  125MOL   H30140229   0.847   4.628   1.607 -0.4410 -0.1228  2.4923
  125MOL   H30240230   0.979   4.675   1.500 -1.8611  1.8709  1.7889
  125MOL   H30340231   1.016   4.627   1.660 -1.5747 -0.2157  1.6186
  125MOL   H30440232   1.083   4.290   1.509 -2.6828  0.7014 -4.1507
  125MOL   H30540233   1.143   4.456   1.577  0.8872 -0.7167 -0.4020
  125MOL   C30640234   0.766   4.472   1.346 -0.5334  0.5115 -0.5353
  125MOL   C30740235   0.874   4.467   1.232  0.2112  0.7018  0.2922
  125MOL   C30840236   0.695   4.604   1.358  0.5593 -0.3171  0.1229
  125MOL   C30940237   0.600   4.633   1.239  0.6129  0.0715  0.3264
  125MOL   C31040238   0.461   4.565   1.260 -0.4648 -0.4023  0.7002
  125MOL   C31140239   0.627   4.709   1.135 -0.0364 -1.1661 -0.1137
  125MOL   H31240240   0.694   4.395   1.316  1.8890 -0.5571 -4.0266
  125MOL   H31340241   0.945   4.548   1.252  0.4204  0.1795  1.7739
  125MOL   H31440242   0.820   4.485   1.139  0.3183 -0.1114  0.0711
  125MOL   H31540243   0.928   4.373   1.233  0.1603  0.6641 -0.5679
  125MOL   H31640244   0.653   4.624   1.456  3.1918  0.7571  1.0757
  125MOL   H31740245   0.426   4.610   1.353  0.1400  0.0657  0.7059
  125MOL   H31840246   0.474   4.457   1.266  0.5626 -0.4687 -2.0394
  125MOL   H31940247   0.388   4.588   1.183 -0.4943 -0.9301  0.5697
  125MOL   H32040248   0.729   4.743   1.136 -0.3309 -0.3151  1.7633
  125MOL   H32140249   0.562   4.734   1.052 -0.8109 -2.0748  0.2037
  125MOL   H32240250   0.772   4.681   1.352  1.5612 -1.2368  0.9170
  126MOL     C140251   5.657   2.640   3.114 -0.1792  0.8130 -0.0598
  126MOL     C240252   5.729   2.689   2.992  0.2766 -0.6309 -0.2686
  126MOL     C340253   5.514   2.601   3.097 -0.6430 -0.0285  0.5364
  126MOL     C440254   5.436   2.574   3.231  0.5938  0.4836  0.2138
  126MOL     C540255   5.497   2.488   3.335 -0.4398  0.4049 -0.5311
  126MOL     C640256   5.328   2.647   3.257 -0.1178 -0.3293 -0.3868
  126MOL     H740257   5.711   2.552   3.149 -1.3883  0.2345  0.3865
  126MOL     H840258   5.666   2.755   2.933 -1.4238 -2.6427 -0.7690
  126MOL     H940259   5.748   2.599   2.934 -0.2154 -1.0520  0.2163
  126MOL    H1040260   5.819   2.747   3.013 -1.6543  2.2477  0.2658
  126MOL    H1140261   5.472   2.690   3.049  2.1071  0.7042 -0.6386
  126MOL    H1240262   5.552   2.551   3.404 -1.6712  0.9053  0.0169
  126MOL    H1340263   5.548   2.407   3.283 -2.2225 -0.8842 -0.3321
  126MOL    H1440264   5.426   2.437   3.401  1.0419 -2.0885 -0.8022
  126MOL    H1540265   5.282   2.720   3.191  0.3184 -0.1086 -0.4458
  126MOL    H1640266   5.278   2.633   3.352  0.0757 -0.8338 -0.3617
  126MOL    H1740267   5.675   2.704   3.200 -1.6570 -0.1002  0.9492
  126MOL    C1840268   5.490   2.479   2.997  0.1533 -0.4997 -0.0232
  126MOL    C1940269   5.610   2.377   3.006 -0.1266 -0.5270 -0.4431
  126MOL    C2040270   5.462   2.531   2.852  0.2102 -0.0858 -0.4492
  126MOL    C2140271   5.357   2.635   2.840 -0.5382  0.3132 -0.2259
  126MOL    C2240272   5.221   2.613   2.895 -0.1899 -0.0425  0.0380
  126MOL    C2340273   5.382   2.750   2.775 -0.5746 -0.3653  0.0485
  126MOL    H2440274   5.397   2.433   3.030  0.8127  0.2303  2.9654
  126MOL    H2540275   5.699   2.393   2.946 -0.0655 -0.0513 -0.2334
  126MOL    H2640276   5.575   2.283   2.963  0.0087 -0.4967 -0.6156
  126MOL    H2740277   5.613   2.342   3.109 -0.2585 -1.4568 -0.7514
  126MOL    H2840278   5.550   2.586   2.820 -1.1740  3.0400  0.8807
  126MOL    H2940279   5.230   2.557   2.988 -1.6384  0.6059  0.5816
  126MOL    H3040280   5.145   2.562   2.836 -0.8589  0.3168  0.5699
  126MOL    H3140281   5.180   2.711   2.919  0.9582  0.5371 -0.3831
  126MOL    H3240282   5.480   2.771   2.733 -0.6656  0.4429  0.2311
  126MOL    H3340283   5.308   2.828   2.762  1.3025  1.4133 -0.3461
  126MOL    C3440284   5.423   2.414   2.746 -0.1881 -0.1208 -0.5142
  126MOL    C3540285   5.328   2.302   2.813 -0.3288 -0.1695  0.4790
  126MOL    C3640286   5.541   2.358   2.666  0.2022 -0.1413 -0.3552
  126MOL    C3740287   5.631   2.471   2.611  0.3805 -0.0374  0.3126
  126MOL    C3840288   5.780   2.466   2.658 -0.3951  0.0689  0.5060
  126MOL    C3940289   5.589   2.574   2.536 -0.4767 -0.0267  0.4749
  126MOL    H4040290   5.346   2.448   2.678  1.2924  1.4843 -1.4192
  126MOL    H4140291   5.262   2.255   2.740 -0.5497 -0.0392  0.5914
  126MOL    H4240292   5.256   2.357   2.875 -0.3378 -0.2670  0.5554
  126MOL    H4340293   5.389   2.247   2.885 -0.6153 -1.6146 -0.3674
  126MOL    H4440294   5.612   2.306   2.731 -0.3755 -0.6394 -0.1240
  126MOL    H4540295   5.809   2.422   2.753 -1.1945 -0.5167  0.4834
  126MOL    H4640296   5.815   2.568   2.667  1.4209 -0.3958 -0.8603
  126MOL    H4740297   5.844   2.423   2.581 -1.9411  2.5379 -2.2605
  126MOL    H4840298   5.489   2.586   2.500  0.2909 -1.4196 -2.2102
  126MOL    H4940299   5.658   2.651   2.503 -3.4321  2.1012 -0.9798
  126MOL    C5040300   5.508   2.254   2.549 -0.7251  0.3222  0.0590
  126MOL    C5140301   5.375   2.292   2.473 -0.2197 -0.3619  0.1680
  126MOL    C5240302   5.523   2.101   2.593 -0.1865  0.3047  0.5526
  126MOL    C5340303   5.661   2.071   2.667 -0.1004  0.3551 -0.3222
  126MOL    C5440304   5.662   2.012   2.805 -0.3331  0.1612 -1.2202
  126MOL    C5540305   5.780   2.106   2.612  0.4649 -0.3500 -0.0845
  126MOL    H5640306   5.581   2.275   2.471 -0.9447  0.9593  0.0168
  126MOL    H5740307   5.285   2.272   2.532 -0.7104  0.5132 -0.2721
  126MOL    H5840308   5.358   2.240   2.379  1.6586  1.0655 -1.0094
  126MOL    H5940309   5.369   2.396   2.443 -0.5143 -0.0133  1.4076
  126MOL    H6040310   5.449   2.080   2.670  1.1794  0.0777  1.8134
  126MOL    H6140311   5.576   1.948   2.827 -1.1550  1.7795  0.3814
  126MOL    H6240312   5.655   2.094   2.876  0.0445 -2.0902  1.5090
  126MOL    H6340313   5.750   1.950   2.822 -0.0464  0.9330  0.0860
  126MOL    H6440314   5.773   2.146   2.511 -0.5331  0.4864  0.3071
  126MOL    H6540315   5.875   2.090   2.659 -0.4625 -2.4472  1.1520
  126MOL    C6640316   5.498   1.991   2.486  0.4735 -0.0613 -0.2335
  126MOL    C6740317   5.541   2.033   2.343  0.1344 -0.1696  0.4014
  126MOL    C6840318   5.357   1.916   2.508  0.3483  0.0829 -0.5437
  126MOL    C6940319   5.368   1.830   2.631 -0.5330  0.1633  0.3291
  126MOL    C7040320   5.462   1.715   2.627 -0.7731  0.4283 -0.0030
  126MOL    C7140321   5.310   1.857   2.748 -0.8416  0.1275  0.5542
  126MOL    H7240322   5.569   1.910   2.504  2.7979  2.1688  0.9066
  126MOL    H7340323   5.633   2.092   2.348 -0.2591  0.7821 -2.6262
  126MOL    H7440324   5.476   2.103   2.290  2.7291  2.5175  0.6417
  126MOL    H7540325   5.573   1.948   2.283 -0.9217  0.3148 -0.8837
  126MOL    H7640326   5.288   2.000   2.517  0.9115  0.4105  0.8732
  126MOL    H7740327   5.494   1.688   2.526  0.6032 -0.0392  0.5520
  126MOL    H7840328   5.412   1.630   2.674  0.2077 -0.4591 -0.5439
  126MOL    H7940329   5.554   1.720   2.685  0.0838  0.5141 -1.3336
  126MOL    H8040330   5.242   1.938   2.768 -2.3805 -0.6862 -1.2917
  126MOL    H8140331   5.335   1.806   2.840  0.5258 -1.3265 -0.5903
  126MOL    C8240332   5.291   1.840   2.384 -0.0660  0.0502 -0.3298
  126MOL    C8340333   5.250   1.934   2.269 -0.1344 -0.1970 -0.0006
  126MOL    C8440334   5.178   1.733   2.410 -0.0206 -0.6731  0.7181
  126MOL    C8540335   5.204   1.611   2.323 -0.0302 -0.3617 -0.4844
  126MOL    C8640336   5.157   1.611   2.179 -0.2090 -0.6068  0.3201
  126MOL    C8740337   5.283   1.507   2.365  0.4858 -0.4005 -0.8112
  126MOL    H8840338   5.378   1.782   2.352 -0.0096 -1.2914  2.1238
  126MOL    H8940339   5.319   1.917   2.186 -1.7278  0.1659 -1.4284
  126MOL    H9040340   5.257   2.037   2.305 -0.1549 -0.4317  0.6802
  126MOL    H9140341   5.147   1.912   2.240 -0.8299  2.8334 -0.0919
  126MOL    H9240342   5.201   1.692   2.509 -0.2981  1.8968  1.9042
  126MOL    H9340343   5.221   1.549   2.116 -0.1532 -1.2984  1.0500
  126MOL    H9440344   5.144   1.714   2.144 -0.3298 -0.6508  0.2329
  126MOL    H9540345   5.057   1.571   2.163 -0.6536  0.7480 -0.4311
  126MOL    H9640346   5.331   1.507   2.462  0.5159 -2.4041 -0.8110
  126MOL    H9740347   5.307   1.431   2.293 -1.1519  0.1351 -1.9419
  126MOL    C9840348   5.030   1.766   2.428  0.3675  0.1958 -0.5088
  126MOL    C9940349   5.014   1.884   2.524 -0.5990  0.0414  0.1599
  126MOL   C10040350   4.942   1.643   2.473  0.0858 -1.2024  0.7935
  126MOL   C10140351   4.821   1.638   2.388  0.0802  0.1024 -0.3618
  126MOL   C10240352   4.723   1.749   2.411  0.2568 -0.0371  0.4563
  126MOL   C10340353   4.807   1.539   2.301  0.4293  1.1935  1.2933
  126MOL   H10440354   4.999   1.786   2.325  1.3557 -2.5283 -1.3863
  126MOL   H10540355   4.915   1.911   2.560  0.7438  2.4979  2.1077
  126MOL   H10640356   5.044   1.979   2.481 -0.3463  0.5534  1.4691
  126MOL   H10740357   5.067   1.872   2.618  0.0874  1.1184 -0.0862
  126MOL   H10840358   4.998   1.557   2.435 -0.6223 -1.1863 -0.3222
  126MOL   H10940359   4.645   1.746   2.334 -1.2902 -1.8330  2.0358
  126MOL   H11040360   4.774   1.845   2.401 -0.1807  0.2570  1.0092
  126MOL   H11140361   4.670   1.741   2.506 -1.1107 -0.4911 -0.3284
  126MOL   H11240362   4.875   1.455   2.295  0.7215  1.5729 -0.9489
  126MOL   H11340363   4.721   1.536   2.237  0.6921  1.5221  0.9223
  126MOL   C11440364   4.928   1.608   2.625 -0.0645  0.7032 -1.0070
  126MOL   C11540365   5.069   1.560   2.683  0.2627  0.0186  0.2581
  126MOL   C11640366   4.805   1.528   2.673  0.4499 -0.1225  0.8332
  126MOL   C11740367   4.758   1.573   2.813 -0.0747 -0.1042  0.3371
  126MOL   C11840368   4.854   1.579   2.930 -0.3870 -0.2726 -0.2892
  126MOL   C11940369   4.629   1.610   2.822  0.1751  0.3863 -0.3996
  126MOL   H12040370   4.918   1.705   2.675 -1.1032 -0.9572  2.1279
  126MOL   H12140371   5.133   1.640   2.720  1.9311 -0.7247 -0.9459
  126MOL   H12240372   5.121   1.500   2.608  0.5452 -1.2016  1.4129
  126MOL   H12340373   5.058   1.508   2.778 -2.5841  0.2863  0.1210
  126MOL   H12440374   4.724   1.553   2.605 -0.4201 -2.4239  0.9923
  126MOL   H12540375   4.938   1.647   2.920  0.7447 -1.6931 -0.7670
  126MOL   H12640376   4.896   1.479   2.945 -0.1196  0.2246  2.6685
  126MOL   H12740377   4.799   1.591   3.024 -0.2538  0.0376 -0.2538
  126MOL   H12840378   4.547   1.606   2.751  0.3366 -3.4048 -0.4835
  126MOL   H12940379   4.592   1.649   2.916 -0.9557 -2.2093  0.2755
  126MOL   C13040380   4.818   1.372   2.684  0.4365 -0.2320 -0.2699
  126MOL   C13140381   4.893   1.307   2.566  0.4924 -0.2604 -0.1107
  126MOL   C13240382   4.694   1.292   2.732 -0.5870 -0.4319  0.0794
  126MOL   C13340383   4.745   1.166   2.806  0.5237 -0.4637  0.5799
  126MOL   C13440384   4.773   1.196   2.954 -0.6418  0.6357  0.5983
  126MOL   C13540385   4.769   1.042   2.751 -0.6641  0.3520  0.4774
  126MOL   H13640386   4.892   1.355   2.762  0.0352  0.0143  0.1685
  126MOL   H13740387   4.823   1.320   2.484  1.6841  0.2156 -1.0555
  126MOL   H13840388   4.895   1.198   2.561 -0.0986 -0.1867 -2.7065
  126MOL   H13940389   4.987   1.349   2.533  1.8158 -2.3599  0.8699
  126MOL   H14040390   4.650   1.356   2.809 -0.4588 -1.4251  0.9995
  126MOL   H14140391   4.826   1.290   2.967  0.9761 -0.1861  0.1160
  126MOL   H14240392   4.834   1.115   2.995  1.4760  1.5687 -0.6308
  126MOL   H14340393   4.683   1.203   3.016 -1.3281  0.9605 -0.4346
  126MOL   H14440394   4.755   1.031   2.645 -1.1394 -0.3402  0.6126
  126MOL   H14540395   4.812   0.959   2.805  0.8484 -0.4176 -1.8729
  126MOL   C14640396   4.584   1.251   2.631  0.1786  0.2014  0.2418
  126MOL   C14740397   4.543   1.357   2.528 -0.8061 -0.2706  0.7121
  126MOL   C14840398   4.466   1.151   2.677  0.5730  0.2903  0.1448
  126MOL   C14940399   4.415   1.069   2.551 -0.5095 -0.8336  0.2481
  126MOL   C15040400   4.489   0.945   2.512 -0.0232  0.3957  0.3655
  126MOL   C15140401   4.306   1.109   2.493  0.4817 -0.2001  0.3064
  126MOL   H15240402   4.640   1.186   2.563  0.8540 -0.3942  1.3556
  126MOL   H15340403   4.446   1.343   2.479 -1.0403  0.0440  1.0740
  126MOL   H15440404   4.613   1.386   2.450 -2.5334  1.8302 -0.1215
  126MOL   H15540405   4.532   1.452   2.582 -1.9457  0.7640 -1.2954
  126MOL   H15640406   4.510   1.066   2.728 -0.2558 -0.4761 -0.3902
  126MOL   H15740407   4.591   0.975   2.488 -0.2590  0.4657 -0.5760
  126MOL   H15840408   4.452   0.904   2.418  2.7560  0.4496 -0.8065
  126MOL   H15940409   4.474   0.873   2.593  1.2075 -1.8465 -1.3489
  126MOL   H16040410   4.254   1.198   2.524 -0.0139 -0.1348 -0.7156
  126MOL   H16140411   4.263   1.049   2.414  0.7386  0.3372 -0.2410
  126MOL   C16240412   4.357   1.215   2.773 -0.0426  0.5059 -0.6676
  126MOL   C16340413   4.342   1.365   2.767 -1.0197 -0.5920 -0.2177
  126MOL   C16440414   4.371   1.169   2.929  0.4517 -0.1135  0.2065
  126MOL   C16540415   4.398   1.023   2.948  0.1501  0.1340  0.0394
  126MOL   C16640416   4.298   0.927   2.881  0.1545 -0.1592 -0.3602
  126MOL   C16740417   4.502   0.979   3.024 -0.8702  0.5527 -0.2323
  126MOL   H16840418   4.266   1.173   2.728  1.6549 -2.4103 -1.4943
  126MOL   H16940419   4.320   1.400   2.666  1.2720  0.4131 -0.3858
  126MOL   H17040420   4.436   1.414   2.790  0.2608 -2.9238 -0.2569
  126MOL   H17140421   4.266   1.411   2.830  0.8085  0.9943  0.8552
  126MOL   H17240422   4.460   1.221   2.965  0.9624  0.7471 -2.1668
  126MOL   H17340423   4.216   0.911   2.951  0.2417 -2.4761 -0.7136
  126MOL   H17440424   4.342   0.828   2.865  0.8498  0.0796  0.0842
  126MOL   H17540425   4.249   0.954   2.787 -0.1264  2.2746  0.4706
  126MOL   H17640426   4.566   1.053   3.070  2.3237 -2.5128  0.3832
  126MOL   H17740427   4.530   0.875   3.030  0.6627  0.8830 -1.2531
  126MOL   C17840428   4.261   1.224   3.032 -0.0792 -0.0905 -0.4248
  126MOL   C17940429   4.118   1.220   2.973  0.7113 -0.2790  0.0605
  126MOL   C18040430   4.302   1.353   3.114  0.6114  0.0505 -0.1435
  126MOL   C18140431   4.431   1.329   3.191 -0.0550 -0.2395 -0.5167
  126MOL   C18240432   4.530   1.444   3.197  0.5195  0.2332  0.5434
  126MOL   C18340433   4.454   1.214   3.262  0.5545 -0.6000 -0.1216
  126MOL   H18440434   4.247   1.152   3.112 -2.4029  1.0340  0.2203
  126MOL   H18540435   4.101   1.288   2.889 -1.3392  0.2494  0.8586
  126MOL   H18640436   4.044   1.234   3.052  0.0334  2.0832 -0.9412
  126MOL   H18740437   4.093   1.119   2.939 -3.0005  0.3122  0.7330
  126MOL   H18840438   4.338   1.425   3.041 -1.5360  2.1286  0.7801
  126MOL   H18940439   4.477   1.538   3.185 -1.8143 -0.7464  2.8881
  126MOL   H19040440   4.610   1.440   3.123  0.4623  1.6185  0.3961
  126MOL   H19140441   4.577   1.444   3.296 -1.7515 -0.3423  1.6557
  126MOL   H19240442   4.379   1.137   3.267 -0.1032 -0.1477 -2.3191
  126MOL   H19340443   4.543   1.198   3.321  0.9524  1.3617 -0.1457
  126MOL   C19440444   4.196   1.432   3.206 -0.6924 -0.6242 -0.1122
  126MOL   C19540445   4.149   1.349   3.323 -0.4705 -0.0553  0.1418
  126MOL   C19640446   4.080   1.511   3.131 -0.7433 -0.5530 -0.2387
  126MOL   C19740447   4.121   1.580   2.995 -0.1153  0.0879  0.3705
  126MOL   C19840448   4.237   1.677   2.989 -0.4965 -0.1587  0.1774
  126MOL   C19940449   4.041   1.565   2.890  1.2125 -0.2760  0.1667
  126MOL   H20040450   4.260   1.504   3.258 -0.8796 -1.7874  1.7823
  126MOL   H20140451   4.088   1.409   3.391  3.6818  1.5864  2.5784
  126MOL   H20240452   4.228   1.320   3.392  0.1982 -2.1618 -1.4680
  126MOL   H20340453   4.083   1.268   3.293  0.1770 -1.2829  1.9964
  126MOL   H20440454   4.006   1.435   3.104 -1.7226  0.7493 -1.3295
  126MOL   H20540455   4.325   1.626   3.029 -2.1938 -1.7419  2.0293
  126MOL   H20640456   4.222   1.770   3.044  0.3776 -0.2382  0.5568
  126MOL   H20740457   4.279   1.704   2.892 -0.5849  1.3963  0.5584
  126MOL   H20840458   3.954   1.501   2.887 -0.0306  1.3416  0.9282
  126MOL   H20940459   4.060   1.619   2.798 -1.3384 -0.4138 -0.4929
  126MOL   C21040460   3.993   1.615   3.222  0.5485 -0.4290  0.1259
  126MOL   C21140461   4.084   1.679   3.331  0.5155  0.1596 -0.4102
  126MOL   C21240462   3.860   1.554   3.288  0.1064 -0.3442 -0.7318
  126MOL   C21340463   3.770   1.484   3.182 -0.5283  0.4570 -0.5928
  126MOL   C21440464   3.699   1.563   3.071 -0.2317  0.8511 -0.3435
  126MOL   C21540465   3.754   1.354   3.199 -0.0385 -0.7160  0.6402
  126MOL   H21640466   3.960   1.696   3.157  2.0196  0.8599  0.9548
  126MOL   H21740467   4.179   1.705   3.284  1.1572 -0.2701  0.6434
  126MOL   H21840468   4.101   1.621   3.421 -1.0168  1.1999  0.5814
  126MOL   H21940469   4.048   1.776   3.366 -1.4460 -0.5162 -0.4986
  126MOL   H22040470   3.893   1.478   3.358 -0.4895 -1.2909 -1.4620
  126MOL   H22140471   3.621   1.622   3.121 -0.4799 -0.6721  1.1176
  126MOL   H22240472   3.658   1.493   2.999 -1.9668  3.1765 -1.7099
  126MOL   H22340473   3.773   1.631   3.029 -1.5283  2.1017 -0.6636
  126MOL   H22440474   3.796   1.305   3.286  0.2104 -0.2139  0.8043
  126MOL   H22540475   3.690   1.303   3.127  2.4718 -0.3977 -1.9029
  126MOL   C22640476   3.768   1.640   3.377  0.5424 -0.7310 -0.4280
  126MOL   C22740477   3.762   1.788   3.315  0.0637 -0.6455  0.0554
  126MOL   C22840478   3.808   1.659   3.520  0.5899  0.1062  0.2632
  126MOL   C22940479   3.826   1.522   3.588  0.0624 -0.0825 -0.3323
  126MOL   C23040480   3.716   1.420   3.570  0.4378 -0.3791  0.2624
  126MOL   C23140481   3.944   1.495   3.645 -0.6327  0.3548 -0.2196
  126MOL   H23240482   3.664   1.607   3.376 -0.2378  1.5922 -3.5611
  126MOL   H23340483   3.780   1.788   3.208  1.3437 -1.8626  0.2523
  126MOL   H23440484   3.845   1.841   3.361  0.9469 -1.3700 -0.7039
  126MOL   H23540485   3.672   1.846   3.335 -0.6929 -1.6270 -0.4550
  126MOL   H23640486   3.908   1.701   3.510 -0.1663  1.5291 -1.6622
  126MOL   H23740487   3.708   1.375   3.471  0.9880  0.1043 -0.0037
  126MOL   H23840488   3.617   1.455   3.600 -0.2692 -1.2490 -1.0254
  126MOL   H23940489   3.746   1.341   3.639 -1.1235 -1.5504 -0.3503
  126MOL   H24040490   4.024   1.567   3.653 -0.9759  0.7554 -0.3389
  126MOL   H24140491   3.959   1.393   3.675  2.6949  0.2672 -1.9242
  126MOL   C24240492   3.721   1.751   3.618  0.5266 -0.0546  0.2331
  126MOL   C24340493   3.569   1.746   3.587 -0.3235  0.1518 -0.1769
  126MOL   C24440494   3.782   1.898   3.645  0.5670  0.5538  0.5272
  126MOL   C24540495   3.931   1.885   3.670  0.4941 -0.2474 -0.6139
  126MOL   C24640496   4.021   1.987   3.595  0.0851 -0.6200 -0.0933
  126MOL   C24740497   3.979   1.803   3.766  0.7660  0.1540  0.1383
  126MOL   H24840498   3.712   1.707   3.717  0.7074 -2.3724 -0.7375
  126MOL   H24940499   3.506   1.774   3.672 -1.1469 -0.2960 -0.6332
  126MOL   H25040500   3.524   1.649   3.567 -1.5408  1.0247 -1.8369
  126MOL   H25140501   3.541   1.814   3.506  0.3774 -1.0782 -1.4689
  126MOL   H25240502   3.769   1.946   3.549  2.5764 -0.6466 -0.3790
  126MOL   H25340503   4.026   1.964   3.488 -1.9335 -0.9081 -0.1382
  126MOL   H25440504   4.118   1.970   3.640  1.1625 -0.6461 -2.3231
  126MOL   H25540505   4.004   2.092   3.618 -1.0369 -0.9114  0.4399
  126MOL   H25640506   3.910   1.737   3.817  1.1072 -0.6440 -0.4274
  126MOL   H25740507   4.081   1.800   3.801  1.2387  0.1277 -1.2043
  126MOL   C25840508   3.715   1.996   3.749 -0.0400  0.5698  0.6128
  126MOL   C25940509   3.681   1.922   3.879  0.6050  0.0143 -0.0469
  126MOL   C26040510   3.612   2.093   3.689 -0.6340 -0.0045  0.5501
  126MOL   C26140511   3.682   2.202   3.605  0.3891  0.0964  0.3294
  126MOL   C26240512   3.773   2.301   3.675  0.2143 -0.3656  0.2374
  126MOL   C26340513   3.692   2.188   3.475 -0.1898 -0.5014  0.7885
  126MOL   H26440514   3.792   2.057   3.797  0.5886  0.7031 -0.5530
  126MOL   H26540515   3.595   1.856   3.863 -0.9762  1.5837  1.6465
  126MOL   H26640516   3.676   1.981   3.971  1.2479  2.3709 -1.4821
  126MOL   H26740517   3.757   1.852   3.912  0.9181  0.1597 -0.4593
  126MOL   H26840518   3.554   2.036   3.617 -2.3729  0.1271  1.8169
  126MOL   H26940519   3.725   2.358   3.755  0.1619  0.8275 -0.6195
  126MOL   H27040520   3.814   2.366   3.598 -1.5018  0.0983 -0.3150
  126MOL   H27140521   3.855   2.244   3.717  0.8014  0.1194 -0.2438
  126MOL   H27240522   3.648   2.103   3.424 -0.8437  1.1563 -1.4817
  126MOL   H27340523   3.744   2.259   3.412  0.4136 -1.3407  0.3249
  126MOL   C27440524   3.490   2.154   3.775 -0.5307 -0.0813 -0.2284
  126MOL   C27540525   3.548   2.202   3.911 -0.6636 -0.0879 -0.3568
  126MOL   C27640526   3.352   2.073   3.767 -0.4410 -0.4017  0.0425
  126MOL   C27740527   3.310   2.035   3.627 -0.5554 -0.0129 -0.1156
  126MOL   C27840528   3.309   2.149   3.527  0.8407  0.0359 -0.1795
  126MOL   C27940529   3.265   1.914   3.596 -0.0983  0.4183 -0.1257
  126MOL   H28040530   3.466   2.242   3.714 -1.5456 -1.9967 -2.6800
  126MOL   H28140531   3.509   2.141   3.992  0.0803  0.7873  0.6558
  126MOL   H28240532   3.512   2.303   3.930 -2.2314 -0.8712  0.9808
  126MOL   H28340533   3.656   2.204   3.920 -0.3351  1.3476 -3.9087
  126MOL   H28440534   3.365   1.976   3.815  1.5181 -0.7490 -1.1239
  126MOL   H28540535   3.225   2.214   3.552  0.1292 -1.2181  0.7175
  126MOL   H28640536   3.310   2.112   3.424  1.3608 -0.3139 -0.0504
  126MOL   H28740537   3.401   2.207   3.535  0.7886 -0.0311  1.0189
  126MOL   H28840538   3.260   1.838   3.673 -0.1634 -0.4033 -0.9370
  126MOL   H28940539   3.233   1.890   3.496  0.6403 -0.3783 -0.1791
  126MOL   C29040540   3.228   2.140   3.850 -0.1902  0.4806  0.5621
  126MOL   C29140541   3.240   2.297   3.831  0.5720  0.1172 -0.0504
  126MOL   C29240542   3.215   2.104   3.998 -0.1055  0.2484 -0.4536
  126MOL   C29340543   3.218   1.951   4.016 -0.4806 -0.3590  1.0577
  126MOL   C29440544   3.327   1.891   4.099  0.1038 -0.1755 -0.2227
  126MOL   C29540545   3.131   1.877   3.945 -0.4308 -0.4651  0.1141
  126MOL   H29640546   3.138   2.109   3.798 -1.0604  0.0604  2.2559
  126MOL   H29740547   3.251   2.312   3.724 -2.1500  1.1882 -0.2226
  126MOL   H29840548   3.323   2.349   3.880 -0.1384  0.9328  0.2972
  126MOL   H29940549   3.152   2.355   3.860 -0.3169 -0.0703 -2.3281
  126MOL   H30040550   3.313   2.140   4.030 -0.3993  1.5984 -1.0072
  126MOL   H30140551   3.307   1.785   4.116  0.9771 -0.1423  1.0636
  126MOL   H30240552   3.337   1.935   4.198  1.5169 -0.5105 -0.2154
  126MOL   H30340553   3.426   1.901   4.055 -0.0858 -1.3304 -0.9302
  126MOL   H30440554   3.063   1.929   3.879  0.7208  3.5063  1.9085
  126MOL   H30540555   3.135   1.769   3.949 -1.2350 -0.4878  0.3379
  126MOL   C30640556   3.103   2.167   4.089  0.1663  0.6174 -0.6728
  126MOL   C30740557   2.965   2.165   4.031 -0.0599 -0.5129 -0.1584
  126MOL   C30840558   3.143   2.308   4.147  0.3640  0.1754  0.0469
  126MOL   C30940559   3.127   2.321   4.295 -0.5020  0.1839 -0.9459
  126MOL   C31040560   3.228   2.264   4.385 -0.8578 -0.2720  0.0207
  126MOL   C31140561   3.023   2.381   4.354  0.2210 -0.2630 -0.1381
  126MOL   H31240562   3.089   2.095   4.170  1.7577 -0.5459 -1.4094
  126MOL   H31340563   2.890   2.194   4.104 -1.5063  1.0983 -2.2509
  126MOL   H31440564   2.934   2.067   3.995  0.5177 -0.4687 -0.7902
  126MOL   H31540565   2.960   2.227   3.942 -2.5223  1.3405  1.2304
  126MOL   H31640566   3.245   2.336   4.120  0.2305 -0.4142 -1.0789
  126MOL   H31740567   3.295   2.212   4.317  0.1484  2.5707 -1.2174
  126MOL   H31840568   3.184   2.191   4.453  0.2503  0.8431  1.9710
  126MOL   H31940569   3.287   2.334   4.444 -0.8964 -0.4486  0.2671
  126MOL   H32040570   2.947   2.424   4.290 -0.9952 -1.7141  0.3296
  126MOL   H32140571   3.010   2.389   4.461 -1.1884  1.5130 -0.4155
  126MOL   H32240572   3.084   2.386   4.099 -0.4926  1.3033  2.8111
  127MOL     C140573   1.956   4.989   6.830  0.0983 -0.3822  0.5586
  127MOL     C240574   1.839   4.965   6.939  0.0029 -0.3493 -0.7224
  127MOL     C340575   1.919   5.093   6.712  0.7653 -0.0084  0.5188
  127MOL     C440576   1.805   5.039   6.633 -0.4387  0.3529  0.3252
  127MOL     C540577   1.822   4.916   6.548 -0.1668  0.0105  0.8978
  127MOL     C640578   1.696   5.106   6.610 -0.2113  0.9872 -0.5399
  127MOL     H740579   2.048   5.027   6.872 -0.3869  2.3997 -0.7700
  127MOL     H840580   1.744   4.941   6.891  0.1255 -1.6797 -0.3083
  127MOL     H940581   1.821   5.043   7.013 -1.4661 -0.7320 -0.6523
  127MOL    H1040582   1.856   4.881   7.006  2.1828  1.4532  1.0618
  127MOL    H1140583   1.882   5.181   6.765  1.2205 -0.1586  1.0878
  127MOL    H1240584   1.928   4.914   6.520 -1.0531 -0.6134 -2.7044
  127MOL    H1340585   1.771   4.922   6.452  1.3870  2.1091  0.1596
  127MOL    H1440586   1.812   4.817   6.593 -0.6720 -0.9081 -1.1401
  127MOL    H1540587   1.671   5.207   6.639  2.1451  1.9837 -1.8393
  127MOL    H1640588   1.621   5.055   6.552  2.0771 -1.4060 -1.4926
  127MOL    H1740589   1.986   4.898   6.779 -0.0857 -0.4917  0.6447
  127MOL    C1840590   2.039   5.138   6.624  0.5634  0.3001 -0.0554
  127MOL    C1940591   2.159   5.031   6.612 -0.2303  0.5862 -0.5781
  127MOL    C2040592   2.103   5.274   6.654 -0.2073 -0.3503 -0.3868
  127MOL    C2140593   2.197   5.286   6.779 -0.2281  0.2110 -0.1890
  127MOL    C2240594   2.133   5.297   6.919  0.2223  0.1569 -0.2963
  127MOL    C2340595   2.326   5.275   6.766 -0.3635  0.7124  0.1076
  127MOL    H2440596   2.014   5.124   6.519 -0.0640 -2.2508  0.4164
  127MOL    H2540597   2.229   5.071   6.539 -0.7078 -1.2153 -2.0700
  127MOL    H2640598   2.115   4.940   6.571 -0.3569  0.5435 -0.3514
  127MOL    H2740599   2.214   5.023   6.706  0.2709 -1.7658 -1.0537
  127MOL    H2840600   2.170   5.289   6.569  0.0187 -0.8028 -0.2871
  127MOL    H2940601   2.032   5.255   6.922 -0.5195  1.8617 -0.9419
  127MOL    H3040602   2.130   5.401   6.951 -2.9129 -0.3914  1.3583
  127MOL    H3140603   2.187   5.233   6.988 -1.3214 -0.9358 -0.0793
  127MOL    H3240604   2.362   5.264   6.665  1.8128 -1.4684  1.0829
  127MOL    H3340605   2.390   5.278   6.852  1.7266  0.3445 -1.4032
  127MOL    C3440606   1.996   5.391   6.634  0.0542 -0.5400 -0.1913
  127MOL    C3540607   1.924   5.385   6.497 -0.1920 -0.2094  0.3363
  127MOL    C3640608   2.055   5.537   6.653 -0.1782  0.1943  0.1911
  127MOL    C3740609   1.943   5.628   6.697 -0.1747  0.1851  1.5106
  127MOL    C3840610   1.902   5.618   6.847 -1.0552  0.2896 -0.3342
  127MOL    C3940611   1.885   5.722   6.620 -0.2097  0.3321 -0.7995
  127MOL    H4040612   1.922   5.383   6.714 -0.3401 -1.0207 -0.5964
  127MOL    H4140613   1.993   5.377   6.414  1.5635  0.0284  1.7343
  127MOL    H4240614   1.865   5.475   6.485 -0.4999 -0.0858  2.4805
  127MOL    H4340615   1.844   5.310   6.496  0.6763 -1.1367 -0.6259
  127MOL    H4440616   2.122   5.523   6.738 -0.7324 -1.7463  0.3283
  127MOL    H4540617   1.830   5.696   6.871  3.3393  3.1657  4.5781
  127MOL    H4640618   1.995   5.622   6.904  0.0581 -0.9014 -2.0522
  127MOL    H4740619   1.860   5.519   6.866  2.3121 -0.5599  3.5786
  127MOL    H4840620   1.914   5.731   6.516 -0.4906  0.6918 -0.8476
  127MOL    H4940621   1.807   5.787   6.658 -1.4489 -2.3249  1.3192
  127MOL    C5040622   2.146   5.605   6.541  0.0207 -0.2856 -0.3521
  127MOL    C5140623   2.254   5.507   6.479 -0.5518  0.4384  0.1810
  127MOL    C5240624   2.209   5.739   6.586 -0.2764  0.5855  0.2522
  127MOL    C5340625   2.202   5.849   6.466 -0.3228 -0.7802 -0.2215
  127MOL    C5440626   2.304   5.832   6.362  0.6345 -0.4762  0.5179
  127MOL    C5540627   2.107   5.941   6.458  0.0966 -1.2777  0.1152
  127MOL    H5640628   2.091   5.628   6.450  0.4829  0.7500 -0.3769
  127MOL    H5740629   2.315   5.444   6.544 -0.7254 -1.3150 -1.2874
  127MOL    H5840630   2.325   5.550   6.408 -0.6643 -0.0710 -0.2418
  127MOL    H5940631   2.207   5.437   6.410  2.5095 -0.9846 -0.5348
  127MOL    H6040632   2.137   5.782   6.655 -0.4229 -1.6023  1.5027
  127MOL    H6140633   2.359   5.925   6.348 -1.3037  0.4546 -1.2547
  127MOL    H6240634   2.254   5.811   6.268 -1.5614 -2.1502  1.9893
  127MOL    H6340635   2.378   5.754   6.378 -0.3891 -1.3315  1.1986
  127MOL    H6440636   2.027   5.959   6.528 -1.0649  1.8211 -1.8964
  127MOL    H6540637   2.110   6.006   6.372  1.7185 -0.5118  0.7478
  127MOL    C6640638   2.350   5.724   6.666  0.0644  0.7999 -0.2262
  127MOL    C6740639   2.340   5.645   6.793 -0.3193  0.2656  0.0319
  127MOL    C6840640   2.435   5.854   6.682  0.2922  0.0640  0.0674
  127MOL    C6940641   2.588   5.815   6.690  0.2616  0.5841  0.3270
  127MOL    C7040642   2.646   5.789   6.552  0.3347  0.2335  0.0599
  127MOL    C7140643   2.660   5.803   6.802 -0.4072  0.4377  1.2333
  127MOL    H7240644   2.416   5.661   6.608  0.9337  0.4240  1.1442
  127MOL    H7340645   2.395   5.692   6.875 -0.9881 -2.3858  2.0813
  127MOL    H7440646   2.379   5.543   6.789 -1.8178 -0.4852  3.0815
  127MOL    H7540647   2.241   5.641   6.839 -0.8945  0.1559 -1.1940
  127MOL    H7640648   2.428   5.902   6.584 -1.0138 -1.2346 -0.4971
  127MOL    H7740649   2.726   5.715   6.547 -0.7967 -1.2953  3.1030
  127MOL    H7840650   2.693   5.879   6.513 -1.3919 -0.3305 -3.4937
  127MOL    H7940651   2.569   5.749   6.486 -2.3449  3.8192  0.8654
  127MOL    H8040652   2.615   5.813   6.900  1.1842 -1.4589  2.1957
  127MOL    H8140653   2.765   5.781   6.796  0.0166  2.5156  0.7001
  127MOL    C8240654   2.388   5.957   6.794 -0.3050 -0.0236  0.0867
  127MOL    C8340655   2.236   5.990   6.784  0.4189  0.4072  0.4567
  127MOL    C8440656   2.479   6.077   6.816  0.3221  0.1387  0.2150
  127MOL    C8540657   2.485   6.119   6.969 -0.6007 -0.3862 -0.3130
  127MOL    C8640658   2.598   6.056   7.058 -0.0339  0.3664  0.1157
  127MOL    C8740659   2.394   6.206   7.017 -0.6311  0.3517 -0.1804
  127MOL    H8840660   2.381   5.904   6.889  3.0286 -2.3280 -0.8990
  127MOL    H8940661   2.174   5.902   6.799  1.1569  0.3991  3.9426
  127MOL    H9040662   2.202   6.035   6.691  2.5928  0.4670 -0.3441
  127MOL    H9140663   2.210   6.059   6.864  0.7072  0.0241  0.8839
  127MOL    H9240664   2.583   6.044   6.805 -0.3741 -3.2811  2.8724
  127MOL    H9340665   2.575   6.082   7.162 -2.9270 -1.9956  0.1600
  127MOL    H9440666   2.699   6.084   7.031 -0.1451  0.1036 -0.5916
  127MOL    H9540667   2.599   5.947   7.052  0.9673  0.3967 -0.4142
  127MOL    H9640668   2.309   6.240   6.960 -1.6499 -0.7206  0.6724
  127MOL    H9740669   2.395   6.242   7.118  2.3143  1.8883 -0.7170
  127MOL    C9840670   2.474   6.204   6.715 -0.0861  0.2692 -0.0718
  127MOL    C9940671   2.476   6.173   6.564 -0.5886  0.1868 -0.0613
  127MOL   C10040672   2.581   6.321   6.752 -0.6768  0.2777  0.1321
  127MOL   C10140673   2.504   6.455   6.753 -0.0996 -0.0854 -0.3043
  127MOL   C10240674   2.464   6.521   6.622 -0.5355 -0.2185 -0.2840
  127MOL   C10340675   2.455   6.510   6.866 -0.3940 -0.4562  0.1805
  127MOL   H10440676   2.376   6.242   6.741  0.6280  0.3821  2.6539
  127MOL   H10540677   2.474   6.268   6.511  0.9663  0.7253  0.8303
  127MOL   H10640678   2.387   6.113   6.544 -0.1959 -0.7801  0.9988
  127MOL   H10740679   2.562   6.114   6.533 -2.2391 -0.6670 -3.2351
  127MOL   H10840680   2.620   6.300   6.852 -1.6720 -2.2038  0.0405
  127MOL   H10940681   2.389   6.456   6.578  0.6470 -0.5419 -1.8899
  127MOL   H11040682   2.549   6.521   6.554 -0.0873  1.8714  0.2346
  127MOL   H11140683   2.435   6.625   6.634  0.7725  0.1791 -0.4610
  127MOL   H11240684   2.465   6.468   6.965 -1.0831  0.0341  0.4616
  127MOL   H11340685   2.396   6.600   6.870  0.8615  0.3561  0.8432
  127MOL   C11440686   2.711   6.320   6.665  0.2018  0.0133  0.0296
  127MOL   C11540687   2.793   6.181   6.683  0.6141 -0.5283  0.0204
  127MOL   C11640688   2.808   6.443   6.671  0.0216  0.1847 -0.2276
  127MOL   C11740689   2.881   6.471   6.538 -0.0583  0.4211 -0.6739
  127MOL   C11840690   3.010   6.394   6.502  0.5331 -0.9279 -0.3692
  127MOL   C11940691   2.836   6.564   6.458  0.2938  0.5433 -0.5507
  127MOL   H12040692   2.684   6.328   6.560 -0.3677 -0.1531  0.1599
  127MOL   H12140693   2.893   6.193   6.642  0.7845  2.2704  1.2067
  127MOL   H12240694   2.750   6.102   6.620 -1.8886  2.3604 -2.0493
  127MOL   H12340695   2.808   6.144   6.784  1.6225 -2.1179 -0.6939
  127MOL   H12440696   2.746   6.532   6.684 -0.1864  0.0502 -0.2980
  127MOL   H12540697   3.093   6.415   6.569 -1.2012  1.8294  1.0086
  127MOL   H12640698   3.036   6.426   6.401 -1.2217  0.8102 -0.3093
  127MOL   H12740699   3.000   6.286   6.490  0.1858 -0.7409 -1.9171
  127MOL   H12840700   2.752   6.629   6.478  0.2881  0.8036 -1.3898
  127MOL   H12940701   2.891   6.584   6.367 -0.7965  0.9608 -1.1330
  127MOL   C13040702   2.898   6.466   6.799  0.0882 -0.2107 -0.7329
  127MOL   C13140703   2.825   6.420   6.931 -0.3787  0.2098  0.2310
  127MOL   C13240704   2.988   6.591   6.817 -0.4613  0.1762 -0.4517
  127MOL   C13340705   3.101   6.584   6.923 -0.1062  0.5291  0.5334
  127MOL   C13440706   3.231   6.519   6.878  0.5682  0.0047 -0.3467
  127MOL   C13540707   3.087   6.623   7.053  0.8443  0.1447  0.2241
  127MOL   H13640708   2.976   6.393   6.774 -0.1566 -0.3912 -0.9612
  127MOL   H13740709   2.828   6.311   6.934  0.2916  0.2356  0.6331
  127MOL   H13840710   2.724   6.460   6.940 -0.5840 -0.4766  1.0076
  127MOL   H13940711   2.879   6.455   7.018 -1.3301  1.0186  0.4959
  127MOL   H14040712   3.051   6.582   6.729 -0.3108 -0.3049 -0.2927
  127MOL   H14140713   3.272   6.584   6.802  0.5280  0.5470  0.0951
  127MOL   H14240714   3.216   6.424   6.826 -0.6094  0.3723 -0.7035
  127MOL   H14340715   3.315   6.527   6.947  1.1389 -0.5769 -0.9702
  127MOL   H14440716   2.993   6.673   7.070  0.7480 -0.1429  0.5304
  127MOL   H14540717   3.157   6.614   7.135  1.4261 -0.5843 -0.3422
  127MOL   C14640718   2.925   6.734   6.809 -0.2759  0.0210  0.4883
  127MOL   C14740719   2.785   6.753   6.876  0.6069  0.1160  0.3779
  127MOL   C14840720   2.939   6.821   6.674 -0.6347 -0.4428  0.6166
  127MOL   C14940721   3.091   6.855   6.650 -0.4828 -0.2090  0.5967
  127MOL   C15040722   3.156   6.940   6.751 -0.5291 -0.2727 -0.8576
  127MOL   C15140723   3.155   6.797   6.551  0.8694  0.2353  0.0878
  127MOL   H15240724   2.989   6.795   6.873  3.4840 -3.0619 -0.1366
  127MOL   H15340725   2.706   6.692   6.832 -1.4930  1.9410  1.5178
  127MOL   H15440726   2.757   6.858   6.865  0.9585  0.2649  0.8673
  127MOL   H15540727   2.805   6.751   6.984  0.3800  3.0041  0.5065
  127MOL   H15640728   2.908   6.752   6.595 -1.3683 -0.3918  0.8600
  127MOL   H15740729   3.088   7.022   6.775  2.4222  2.4155 -1.2947
  127MOL   H15840730   3.252   6.981   6.720 -0.5002 -1.1577 -1.9917
  127MOL   H15940731   3.167   6.883   6.843  0.2199 -1.0038 -1.3926
  127MOL   H16040732   3.099   6.731   6.487  0.2791  1.2427 -0.4302
  127MOL   H16140733   3.260   6.821   6.537  1.3380 -0.8389  1.6576
  127MOL   C16240734   2.851   6.958   6.657  0.3917 -0.5864 -0.0313
  127MOL   C16340735   2.699   6.931   6.648 -0.8873  0.5591  0.3133
  127MOL   C16440736   2.898   7.057   6.547 -0.0644 -0.1336  0.4759
  127MOL   C16540737   2.843   7.193   6.582  0.8223  0.0312 -1.1928
  127MOL   C16640738   2.934   7.285   6.659  0.2061  0.2026 -0.5942
  127MOL   C16740739   2.718   7.235   6.547  0.0069  0.3495  0.3862
  127MOL   H16840740   2.864   7.021   6.745 -2.6042  0.9410 -0.6038
  127MOL   H16940741   2.639   6.974   6.729  1.4753  0.4829  2.1657
  127MOL   H17040742   2.669   6.826   6.647 -0.6962  0.4812  1.4613
  127MOL   H17140743   2.658   6.967   6.554  0.8764 -1.7493 -1.4065
  127MOL   H17240744   3.003   7.082   6.565 -0.0064 -0.1921  0.2191
  127MOL   H17340745   2.883   7.371   6.704  2.5284  1.0835  0.4246
  127MOL   H17440746   3.009   7.323   6.589  0.0631  2.2776  0.3400
  127MOL   H17540747   2.981   7.228   6.739  0.2608 -2.0312 -2.1766
  127MOL   H17640748   2.650   7.178   6.485 -0.4605  2.1296 -0.7851
  127MOL   H17740749   2.677   7.334   6.559 -0.4653  0.2516 -0.3451
  127MOL   C17840750   2.900   7.028   6.394  0.1476 -0.1759  0.2486
  127MOL   C17940751   2.847   6.889   6.356 -0.3548  0.7818  0.2645
  127MOL   C18040752   3.036   7.054   6.327  0.8859  1.1084  0.5713
  127MOL   C18140753   3.109   7.179   6.380  0.8388  0.0954  0.5183
  127MOL   C18240754   3.068   7.321   6.346 -0.2226 -0.0348  1.0254
  127MOL   C18340755   3.227   7.166   6.443 -0.3409  0.6964 -0.2101
  127MOL   H18440756   2.837   7.098   6.338 -0.8995 -1.2129  0.1008
  127MOL   H18540757   2.824   6.873   6.250 -1.5923 -2.6882  0.9823
  127MOL   H18640758   2.744   6.874   6.390 -0.1627  0.1735  0.5918
  127MOL   H18740759   2.915   6.814   6.395 -0.1828  2.3210  3.0085
  127MOL   H18840760   3.098   6.973   6.367 -1.5961 -0.6639  1.0049
  127MOL   H18940761   3.075   7.351   6.241 -1.1090  2.1720  1.5662
  127MOL   H19040762   3.138   7.394   6.387 -0.8895  0.2836  1.6012
  127MOL   H19140763   2.966   7.340   6.379 -0.7132  0.7460 -0.8127
  127MOL   H19240764   3.278   7.071   6.453 -1.2861  0.3358  1.4565
  127MOL   H19340765   3.274   7.254   6.483  1.7832 -0.8535  0.8490
  127MOL   C19440766   3.061   7.050   6.172  0.6436  0.3083 -0.3961
  127MOL   C19540767   2.950   7.130   6.108  0.0707 -0.2033 -0.5877
  127MOL   C19640768   3.090   6.907   6.106  1.0025 -0.9752 -0.3648
  127MOL   C19740769   3.203   6.824   6.171  0.1405  0.4062  0.0094
  127MOL   C19840770   3.176   6.674   6.187 -0.4682  0.6163  0.0511
  127MOL   C19940771   3.312   6.874   6.236 -0.5767  0.4645  0.4845
  127MOL   H20040772   3.145   7.113   6.144  0.5299 -0.3308 -2.2999
  127MOL   H20140773   2.972   7.182   6.015  2.4562 -0.2194 -0.0825
  127MOL   H20240774   2.922   7.215   6.169 -2.1778 -0.2304 -1.5402
  127MOL   H20340775   2.863   7.064   6.103 -0.4132  0.3338  0.6651
  127MOL   H20440776   3.004   6.844   6.126 -0.4094  1.4322  1.3196
  127MOL   H20540777   3.271   6.628   6.216 -0.1602 -0.1311 -2.0513
  127MOL   H20640778   3.161   6.622   6.092 -2.2476  3.6852 -1.4131
  127MOL   H20740779   3.101   6.649   6.263  0.0216  1.7828  0.9360
  127MOL   H20840780   3.326   6.981   6.239  3.6700 -0.0422  1.5816
  127MOL   H20940781   3.393   6.812   6.273  0.6230  2.1924  0.7829
  127MOL   C21040782   3.116   6.909   5.953  0.2095  0.1041 -0.0608
  127MOL   C21140783   3.249   6.993   5.907  0.1555 -0.4851  0.2904
  127MOL   C21240784   2.998   6.932   5.850 -0.3023  0.0041 -0.0993
  127MOL   C21340785   2.859   6.866   5.889 -0.5465  0.3436 -0.3049
  127MOL   C21440786   2.854   6.714   5.893 -0.2826  0.4459  0.4062
  127MOL   C21540787   2.751   6.932   5.906  0.6579 -0.6766  0.2773
  127MOL   H21640788   3.142   6.804   5.937 -1.0974 -0.4261  1.1802
  127MOL   H21740789   3.340   6.979   5.966 -0.4816 -1.2769  1.0962
  127MOL   H21840790   3.234   7.100   5.918 -1.7772 -0.7362  0.1741
  127MOL   H21940791   3.272   6.970   5.803 -1.3397  0.4870 -0.2626
  127MOL   H22040792   2.982   7.040   5.852  0.0211  0.0527 -0.1145
  127MOL   H22140793   2.754   6.690   5.929 -1.0343  1.5145 -0.9090
  127MOL   H22240794   2.933   6.665   5.950 -1.0974 -0.7207  0.5598
  127MOL   H22340795   2.871   6.668   5.796 -0.6488  0.2319  0.4405
  127MOL   H22440796   2.751   7.040   5.902 -0.0626 -0.7362 -1.3617
  127MOL   H22540797   2.654   6.894   5.934 -0.1297  2.3353  1.8334
  127MOL   C22640798   3.021   6.895   5.702  0.4553 -0.0034 -0.6211
  127MOL   C22740799   3.109   6.770   5.689  0.7412  0.0639 -0.8610
  127MOL   C22840800   3.058   7.013   5.606 -0.5043 -0.4246  0.1513
  127MOL   C22940801   2.965   7.137   5.618 -0.8783 -0.1424  0.4932
  127MOL   C23040802   3.035   7.268   5.641  0.5841 -0.1533 -0.0158
  127MOL   C23140803   2.831   7.127   5.630  0.0103 -1.1204  0.3903
  127MOL   H23240804   2.922   6.867   5.666 -1.2508  2.9925  1.4521
  127MOL   H23340805   3.080   6.688   5.754  1.6212 -0.0733 -0.6225
  127MOL   H23440806   3.213   6.791   5.717  0.2229  1.4938  0.0146
  127MOL   H23540807   3.106   6.733   5.586  0.8088 -1.1362 -0.4414
  127MOL   H23640808   3.157   7.052   5.631 -1.1558  1.3211  0.0676
  127MOL   H23740809   3.098   7.266   5.730  1.6048 -0.1762 -0.7307
  127MOL   H23840810   2.966   7.352   5.653 -1.0215 -1.4043 -0.2523
  127MOL   H23940811   3.105   7.293   5.562  1.2996  2.1679  1.3253
  127MOL   H24040812   2.775   7.035   5.629 -1.2032 -0.3950 -0.0030
  127MOL   H24140813   2.783   7.224   5.633 -0.0428 -1.0177 -2.4002
  127MOL   C24240814   3.062   6.972   5.457  0.6951 -0.1398 -0.1581
  127MOL   C24340815   2.943   6.889   5.399  0.4732 -0.6666 -0.7555
  127MOL   C24440816   3.200   6.919   5.410  0.9291  0.0974 -0.9167
  127MOL   C24540817   3.319   7.004   5.451 -0.5125 -0.1107  0.1899
  127MOL   C24640818   3.325   7.154   5.424 -0.3516 -0.2415 -0.2651
  127MOL   C24740819   3.430   6.947   5.504  0.2736  0.0634  0.0240
  127MOL   H24840820   3.050   7.063   5.398 -0.7062 -0.1102  0.1476
  127MOL   H24940821   2.916   6.883   5.294  1.8488 -1.3245 -1.0883
  127MOL   H25040822   2.847   6.932   5.429  2.0481  1.2565  1.7748
  127MOL   H25140823   2.950   6.786   5.435  2.4266  0.4929  2.4439
  127MOL   H25240824   3.219   6.821   5.453  1.0994  0.0483 -1.1001
  127MOL   H25340825   3.397   7.195   5.353  1.2119 -0.5357  1.1337
  127MOL   H25440826   3.351   7.200   5.519 -1.7229 -1.5211  0.7558
  127MOL   H25540827   3.227   7.191   5.392 -1.2561 -3.2351 -1.0677
  127MOL   H25640828   3.433   6.840   5.519  0.8776 -0.1596 -1.5864
  127MOL   H25740829   3.514   7.004   5.542  0.8618  0.2474 -1.5130
  127MOL   C25840830   3.212   6.889   5.251 -0.4824  0.0062  0.3886
  127MOL   C25940831   3.144   7.007   5.173  0.3251 -0.4483 -0.0280
  127MOL   C26040832   3.168   6.749   5.197  0.0723 -0.1847  1.4090
  127MOL   C26140833   3.234   6.636   5.278  0.2145  0.0678 -0.2272
  127MOL   C26240834   3.141   6.543   5.354 -0.0932  0.0221  0.0936
  127MOL   C26340835   3.361   6.636   5.308  0.2099 -0.6967 -0.8037
  127MOL   H26440836   3.318   6.905   5.234 -0.6222 -1.5913 -2.3943
  127MOL   H26540837   3.036   7.000   5.163  0.0995  2.0717  0.5033
  127MOL   H26640838   3.181   7.017   5.070  0.3528  0.1883  0.0458
  127MOL   H26740839   3.161   7.105   5.217 -1.4994 -1.0689  2.1133
  127MOL   H26840840   3.065   6.726   5.221 -0.1459 -2.4951 -1.4849
  127MOL   H26940841   3.187   6.510   5.447 -2.7721  0.6210  1.6636
  127MOL   H27040842   3.122   6.459   5.287  1.7931 -1.8541  1.8104
  127MOL   H27140843   3.040   6.582   5.367 -0.1183 -0.5832  1.7895
  127MOL   H27240844   3.429   6.708   5.264 -0.7296  0.3167 -0.6054
  127MOL   H27340845   3.409   6.559   5.367 -1.8796 -0.3011  1.5211
  127MOL   C27440846   3.187   6.720   5.038 -0.3035  0.0706 -0.6875
  127MOL   C27540847   3.316   6.775   4.974  0.1578 -0.1608  0.1343
  127MOL   C27640848   3.064   6.748   4.939  0.5336  0.3533 -0.3650
  127MOL   C27740849   2.934   6.694   4.994  0.5602  0.3928 -0.5651
  127MOL   C27840850   2.909   6.545   5.030 -0.0834 -0.0106 -0.0306
  127MOL   C27940851   2.841   6.782   5.021  0.0358 -0.1570  0.7428
  127MOL   H28040852   3.197   6.611   5.040 -0.4878  0.0733  0.2246
  127MOL   H28140853   3.313   6.884   4.971 -0.0040 -0.1165  1.5334
  127MOL   H28240854   3.342   6.728   4.879 -0.0933 -0.6097  0.2845
  127MOL   H28340855   3.398   6.747   5.040 -0.2134  0.3767  0.8299
  127MOL   H28440856   3.040   6.855   4.937 -1.2353 -0.0256 -0.1597
  127MOL   H28540857   2.809   6.528   5.070 -0.0260 -0.4749 -0.0884
  127MOL   H28640858   2.986   6.517   5.101  1.8381 -0.8347 -2.3620
  127MOL   H28740859   2.911   6.479   4.943  2.2060 -1.9920  1.4746
  127MOL   H28840860   2.859   6.887   5.001 -0.7094 -0.5225 -2.0563
  127MOL   H28940861   2.744   6.752   5.059 -1.8250  2.4950 -1.7390
  127MOL   C29040862   3.073   6.719   4.791 -0.3503 -0.0394  0.2281
  127MOL   C29140863   3.134   6.583   4.764 -0.2470 -0.6680 -0.2242
  127MOL   C29240864   3.132   6.836   4.696  0.1306 -0.4512 -0.0134
  127MOL   C29340865   3.079   6.976   4.733  0.4757 -0.5237  0.2397
  127MOL   C29440866   2.923   6.996   4.721  0.2549  0.2429 -0.2709
  127MOL   C29540867   3.155   7.082   4.767 -0.2417 -0.3285  0.3135
  127MOL   H29640868   2.971   6.718   4.752  0.1366 -0.6085 -1.0653
  127MOL   H29740869   3.123   6.522   4.854  0.9633 -1.1585 -0.3962
  127MOL   H29840870   3.238   6.602   4.738 -0.2295 -0.2353  0.1499
  127MOL   H29940871   3.094   6.535   4.675  0.0971 -1.3574 -0.0204
  127MOL   H30040872   3.237   6.839   4.725  0.6999  0.8531 -2.1035
  127MOL   H30140873   2.876   6.899   4.730  0.0319  0.3820  0.0442
  127MOL   H30240874   2.915   7.038   4.620 -1.1385  1.2554  0.2470
  127MOL   H30340875   2.884   7.069   4.791  2.4583 -1.6397  3.0379
  127MOL   H30440876   3.263   7.085   4.765 -0.1867 -0.8947  1.6094
  127MOL   H30540877   3.112   7.173   4.806  0.2365  0.9872 -2.1462
  127MOL   C30640878   3.147   6.824   4.536 -0.1636  0.1343  0.4950
  127MOL   C30740879   3.241   6.943   4.489 -0.3866 -0.4638 -0.2851
  127MOL   C30840880   3.009   6.815   4.460 -0.3896 -0.5036 -0.0467
  127MOL   C30940881   3.027   6.753   4.323  0.9311 -0.0304  0.6470
  127MOL   C31040882   3.025   6.855   4.205  0.2995 -0.1899  0.2281
  127MOL   C31140883   3.030   6.619   4.298  0.3000 -0.2164  0.6729
  127MOL   H31240884   3.209   6.736   4.521  0.6251  0.4327  1.9737
  127MOL   H31340885   3.187   7.035   4.467 -1.1758 -0.3680  1.9175
  127MOL   H31440886   3.275   6.916   4.389  0.8043  1.0938 -0.3200
  127MOL   H31540887   3.325   6.970   4.553 -1.6215 -1.1167  1.6368
  127MOL   H31640888   2.941   6.753   4.518 -1.5423  0.7992  0.0211
  127MOL   H31740889   3.078   6.942   4.245  0.3331  0.0807 -0.3960
  127MOL   H31840890   2.925   6.892   4.182  1.0735  2.3174  0.6561
  127MOL   H31940891   3.085   6.825   4.119  1.6840 -0.0967  1.1327
  127MOL   H32040892   3.023   6.549   4.380  0.4647 -1.1728 -0.1150
  127MOL   H32140893   3.031   6.586   4.195 -0.0957 -1.1459  0.9634
  127MOL   H32240894   2.962   6.911   4.438  1.2865 -0.0547 -1.8208
  128MOL     C140895   3.607   6.512   4.651  0.5683  0.6108 -0.3678
  128MOL     C240896   3.605   6.663   4.618 -0.2278  0.9726 -0.6032
  128MOL     C340897   3.628   6.440   4.519 -0.8443  0.4688  0.3141
  128MOL     C440898   3.499   6.450   4.433  0.0430  0.6340 -0.4569
  128MOL     C540899   3.369   6.395   4.496  0.2356 -1.0990  0.0661
  128MOL     C640900   3.488   6.524   4.313 -0.2289 -0.9663  0.3342
  128MOL     H740901   3.692   6.500   4.718 -1.6986  2.3324  2.9460
  128MOL     H840902   3.592   6.714   4.713 -0.8545  0.3592 -0.3532
  128MOL     H940903   3.528   6.690   4.546 -1.6374  2.6249  1.4960
  128MOL    H1040904   3.698   6.698   4.573  0.3953 -2.3595 -2.1308
  128MOL    H1140905   3.711   6.484   4.462  0.0183 -1.9137 -0.3616
  128MOL    H1240906   3.385   6.293   4.529  0.7399 -0.7315  0.9770
  128MOL    H1340907   3.283   6.389   4.429  3.5513 -1.9251 -4.3701
  128MOL    H1440908   3.335   6.462   4.575  0.9491 -1.9015  1.0506
  128MOL    H1540909   3.579   6.564   4.272  0.2242 -0.7830  1.4955
  128MOL    H1640910   3.392   6.553   4.273  0.6322  1.0360 -0.3462
  128MOL    H1740911   3.517   6.484   4.705 -1.2916  2.8028 -2.2211
  128MOL    C1840912   3.670   6.288   4.529 -0.8624 -0.0326  0.5542
  128MOL    C1940913   3.616   6.215   4.655 -0.4786 -0.7115 -0.0395
  128MOL    C2040914   3.826   6.247   4.509 -0.4391 -0.3105  0.3750
  128MOL    C2140915   3.918   6.299   4.628  0.4929  0.5353 -0.1840
  128MOL    C2240916   3.977   6.438   4.621 -0.4063 -0.8091 -0.5548
  128MOL    C2340917   3.962   6.218   4.727 -0.2045 -0.9548  0.0399
  128MOL    H2440918   3.621   6.240   4.445  1.5124 -1.4631 -0.0536
  128MOL    H2540919   3.514   6.243   4.682 -0.7054 -1.5281 -0.0341
  128MOL    H2640920   3.678   6.226   4.743  0.1528 -3.0016 -0.1874
  128MOL    H2740921   3.624   6.108   4.640  2.1047 -0.2585 -2.4239
  128MOL    H2840922   3.832   6.139   4.502  1.2826 -0.1112 -1.6188
  128MOL    H2940923   4.070   6.435   4.564  0.8795  1.8199  1.3452
  128MOL    H3040924   4.015   6.467   4.718  1.6205  0.1950 -1.6082
  128MOL    H3140925   3.911   6.512   4.577  0.0878 -0.4318 -0.6633
  128MOL    H3240926   3.922   6.118   4.730 -1.2070 -0.5650 -0.0388
  128MOL    H3340927   4.021   6.265   4.804 -1.9927  1.4420  0.0128
  128MOL    C3440928   3.882   6.297   4.371 -0.3545  0.1525 -0.5933
  128MOL    C3540929   3.788   6.262   4.253 -0.2415  0.6754 -0.2041
  128MOL    C3640930   4.033   6.265   4.337 -0.2707 -0.6008 -0.0501
  128MOL    C3740931   4.091   6.384   4.262 -0.1285 -0.7006 -0.3375
  128MOL    C3840932   4.043   6.414   4.118  0.3404  0.5155 -0.0899
  128MOL    C3940933   4.193   6.461   4.306  0.7012 -0.5627 -0.2747
  128MOL    H4040934   3.867   6.405   4.368 -1.7750 -0.0609 -1.6878
  128MOL    H4140935   3.842   6.240   4.161 -0.9326 -1.3063 -0.1656
  128MOL    H4240936   3.713   6.338   4.234 -0.4797  0.8278  1.2861
  128MOL    H4340937   3.737   6.167   4.267  2.8369 -1.2616 -1.7376
  128MOL    H4440938   4.093   6.267   4.428  0.7244  0.2387 -0.7103
  128MOL    H4540939   4.073   6.329   4.057  0.5666  2.1031 -2.2808
  128MOL    H4640940   4.098   6.500   4.078  0.7611 -0.3713 -1.4687
  128MOL    H4740941   3.934   6.422   4.121  0.2935  0.1492 -0.7377
  128MOL    H4840942   4.223   6.438   4.407 -1.9416 -0.5243  0.5586
  128MOL    H4940943   4.244   6.543   4.257  1.2276 -0.9450 -0.3701
  128MOL    C5040944   4.060   6.112   4.284  0.2892 -0.6081 -0.2970
  128MOL    C5140945   4.081   6.022   4.410  0.4114 -0.1377 -0.6010
  128MOL    C5240946   4.170   6.076   4.175 -0.5729  1.1671 -0.2661
  128MOL    C5340947   4.105   5.977   4.089  0.0450 -0.2012  0.2453
  128MOL    C5440948   4.006   6.025   3.983 -0.1225 -0.4503 -0.0840
  128MOL    C5540949   4.121   5.847   4.110  0.6307  0.2228  0.9559
  128MOL    H5640950   3.968   6.072   4.241  0.0360 -0.1387 -0.1883
  128MOL    H5740951   3.982   6.009   4.453  0.8580 -0.6317  0.3036
  128MOL    H5840952   4.145   6.062   4.489 -0.8423  0.6940 -0.0029
  128MOL    H5940953   4.095   5.920   4.374 -0.0135  0.1234 -1.5131
  128MOL    H6040954   4.179   6.157   4.103  0.8541 -0.5253 -2.0729
  128MOL    H6140955   3.976   6.129   3.991 -0.2905 -0.5515  0.5737
  128MOL    H6240956   3.917   5.962   3.990 -0.6545  0.4525  1.2388
  128MOL    H6340957   4.045   6.026   3.881  1.5168  0.4413  0.5294
  128MOL    H6440958   4.184   5.807   4.189  2.6291  0.2193 -0.5872
  128MOL    H6540959   4.064   5.776   4.053 -0.0782  1.7968 -0.3107
  128MOL    C6640960   4.314   6.038   4.226  0.1432  0.0523  0.8015
  128MOL    C6740961   4.379   6.135   4.329 -0.1216  0.1765  0.5072
  128MOL    C6840962   4.414   6.006   4.103 -0.0702  0.1397  0.8265
  128MOL    C6940963   4.503   5.884   4.136  0.9108  0.4002 -0.2291
  128MOL    C7040964   4.609   5.911   4.244 -0.3980 -0.0732 -0.0104
  128MOL    C7140965   4.487   5.768   4.075  0.5804  0.1635 -0.0680
  128MOL    H7240966   4.302   5.945   4.282  0.5295 -0.1931  0.4804
  128MOL    H7340967   4.325   6.151   4.423  0.8351  0.4527  1.0206
  128MOL    H7440968   4.405   6.233   4.289 -3.0732  0.5868 -0.5568
  128MOL    H7540969   4.476   6.103   4.366  1.9486  4.1478 -1.2545
  128MOL    H7640970   4.351   5.969   4.022  0.1266  2.7774 -0.5791
  128MOL    H7740971   4.574   5.897   4.347  0.0613  0.7629  0.2594
  128MOL    H7840972   4.640   6.015   4.246  0.9694 -0.4476 -1.1861
  128MOL    H7940973   4.703   5.856   4.234  0.5666  1.6710 -0.7641
  128MOL    H8040974   4.403   5.758   4.008  0.7661 -0.4533 -0.2130
  128MOL    H8140975   4.555   5.685   4.084  1.2648  0.7281 -0.0315
  128MOL    C8240976   4.488   6.122   4.025  0.9687  0.3929  0.9104
  128MOL    C8340977   4.400   6.250   3.988  0.5070 -0.8703 -0.3198
  128MOL    C8440978   4.584   6.076   3.909  0.9105 -0.3132  0.1611
  128MOL    C8540979   4.716   6.157   3.916  0.1429  0.1623 -0.1123
  128MOL    C8640980   4.833   6.088   3.979  0.0689  0.0848 -0.4424
  128MOL    C8740981   4.724   6.286   3.887  0.3608  0.2561 -0.2423
  128MOL    H8840982   4.562   6.155   4.098  1.0466  0.9275  0.5874
  128MOL    H8940983   4.450   6.343   3.962 -0.6746 -0.1865 -0.1724
  128MOL    H9040984   4.353   6.293   4.077 -0.4828  1.8485 -2.0857
  128MOL    H9140985   4.312   6.239   3.925  0.7940 -0.6795 -0.7539
  128MOL    H9240986   4.613   5.978   3.944  0.6940  0.2625  2.0136
  128MOL    H9340987   4.846   6.000   3.916 -1.7278  0.5319 -1.4539
  128MOL    H9440988   4.802   6.060   4.079 -0.0866  1.5248 -0.0685
  128MOL    H9540989   4.923   6.149   3.988 -0.0265  0.2880 -0.8093
  128MOL    H9640990   4.638   6.337   3.846  1.0764 -0.5225 -2.8328
  128MOL    H9740991   4.813   6.344   3.903  0.0381  0.6211  0.2586
  128MOL    C9840992   4.522   6.087   3.763  0.7183 -0.1288  0.0381
  128MOL    C9940993   4.390   6.018   3.747  0.5174  0.6091  0.0937
  128MOL   C10040994   4.619   6.033   3.649  0.3531  0.5053  0.2807
  128MOL   C10140995   4.606   6.119   3.522 -0.2884  1.1210  0.5144
  128MOL   C10240996   4.713   6.234   3.514 -0.2209  0.2427 -0.7712
  128MOL   C10340997   4.510   6.097   3.431  0.3218  0.2151 -0.6512
  128MOL   H10440998   4.486   6.188   3.743 -1.7907 -1.1191 -0.5434
  128MOL   H10540999   4.394   5.912   3.771 -2.1013  0.4415 -0.0211
  128MOL   H10641000   4.354   6.019   3.644 -0.1882 -2.4754  0.2611
  128MOL   H10741001   4.316   6.071   3.807 -0.0276  0.9444 -0.8617
  128MOL   H10841002   4.715   6.046   3.700 -0.2946  2.9622  0.9337
  128MOL   H10941003   4.718   6.287   3.419 -1.4289  0.7949 -0.5338
  128MOL   H11041004   4.816   6.201   3.532 -0.7524 -1.9417 -1.5285
  128MOL   H11141005   4.693   6.309   3.590 -2.0898  1.1078 -2.0639
  128MOL   H11241006   4.433   6.023   3.447  0.5809  0.1528  0.3515
  128MOL   H11341007   4.505   6.154   3.339  3.3535  0.0277 -0.9750
  128MOL   C11441008   4.605   5.875   3.610  1.1337  0.2943 -0.0731
  128MOL   C11541009   4.623   5.775   3.736  0.5194 -0.6955  0.6085
  128MOL   C11641010   4.663   5.810   3.478  0.0857  0.5012 -0.2542
  128MOL   C11741011   4.575   5.685   3.444  0.0303  0.0099  0.2442
  128MOL   C11841012   4.442   5.722   3.381  0.1373 -0.1378 -0.2168
  128MOL   C11941013   4.592   5.554   3.484  0.4053  0.2026 -0.2744
  128MOL   H12041014   4.500   5.864   3.584  1.2149  0.6624 -0.5633
  128MOL   H12141015   4.726   5.752   3.763  1.1831  1.0779 -0.3054
  128MOL   H12241016   4.566   5.687   3.709 -1.2195  0.8781 -0.9820
  128MOL   H12341017   4.580   5.816   3.828 -3.1492  2.4459 -2.3369
  128MOL   H12441018   4.642   5.886   3.403 -2.0649  0.8835  0.6748
  128MOL   H12541019   4.360   5.721   3.453 -0.4439  1.1010 -0.8406
  128MOL   H12641020   4.408   5.658   3.300 -0.5497 -1.6457  1.2341
  128MOL   H12741021   4.448   5.818   3.330 -1.8725 -0.2499 -0.6711
  128MOL   H12841022   4.672   5.516   3.546 -0.6218  0.8100  1.4528
  128MOL   H12941023   4.517   5.483   3.452  2.3003 -2.0920  0.1825
  128MOL   C13041024   4.817   5.777   3.466  0.2068  0.1144  0.5234
  128MOL   C13141025   4.903   5.895   3.513  0.0676  0.4053 -0.0097
  128MOL   C13241026   4.863   5.721   3.323  0.1160  0.4416 -0.5238
  128MOL   C13341027   4.831   5.817   3.209  0.3450 -0.5043 -0.1338
  128MOL   C13441028   4.941   5.911   3.162  1.0365  0.7456  0.2582
  128MOL   C13541029   4.717   5.810   3.139  0.1258 -0.4250  0.3399
  128MOL   H13641030   4.834   5.691   3.530  0.3653  0.1150  0.4824
  128MOL   H13741031   4.914   5.901   3.621  1.9304 -1.9687 -0.0059
  128MOL   H13841032   4.883   5.988   3.461  0.6110  0.2255 -0.5573
  128MOL   H13941033   5.006   5.870   3.485  0.5365  0.8607  1.2678
  128MOL   H14041034   4.971   5.732   3.333 -0.1919  1.7420  1.5819
  128MOL   H14141035   4.990   5.883   3.069 -0.5559 -1.6117  0.0987
  128MOL   H14241036   5.030   5.924   3.223 -0.2651  0.1304  2.3459
  128MOL   H14341037   4.880   5.999   3.145  1.2942  0.7173 -0.8552
  128MOL   H14441038   4.631   5.750   3.161 -1.1072  0.8788 -0.8149
  128MOL   H14541039   4.716   5.871   3.050  0.1536  0.7087  1.1051
  128MOL   C14641040   4.851   5.570   3.287 -0.1782  0.6003 -0.5111
  128MOL   C14741041   4.909   5.471   3.389 -0.0989  0.1355  0.3894
  128MOL   C14841042   4.880   5.528   3.136  0.0905  0.3864  0.4484
  128MOL   C14941043   4.767   5.431   3.096 -0.1903  0.3116  0.2281
  128MOL   C15041044   4.636   5.498   3.047  0.3133  0.5465 -0.4602
  128MOL   C15141045   4.779   5.300   3.120  0.1482 -0.1030  0.0756
  128MOL   H15241046   4.743   5.562   3.298  0.0121  0.5850  1.6470
  128MOL   H15341047   4.888   5.489   3.495  0.2823 -1.5238  0.7528
  128MOL   H15441048   5.017   5.489   3.390 -0.0171 -0.2922 -0.2514
  128MOL   H15541049   4.890   5.366   3.369 -0.6207  0.8279 -2.9838
  128MOL   H15641050   4.854   5.608   3.067  1.0476 -0.6166 -1.0913
  128MOL   H15741051   4.554   5.435   3.013 -1.1603  0.7757  2.5101
  128MOL   H15841052   4.657   5.571   2.968  0.7717  1.8025  0.7974
  128MOL   H15941053   4.595   5.544   3.137  0.2813  1.5835 -0.9971
  128MOL   H16041054   4.870   5.261   3.163 -1.1735 -2.4531  0.8261
  128MOL   H16141055   4.701   5.233   3.088 -1.5902  3.3435 -3.3543
  128MOL   C16241056   5.024   5.488   3.108 -0.0510 -0.1350 -0.7209
  128MOL   C16341057   5.128   5.593   3.148 -0.8696 -0.4788 -0.4124
  128MOL   C16441058   5.051   5.426   2.970  0.5650 -0.7679  0.0542
  128MOL   C16541059   5.142   5.297   2.987 -0.0413  0.5085  0.1398
  128MOL   C16641060   5.284   5.304   3.046  0.1716 -0.0201  0.1373
  128MOL   C16741061   5.093   5.178   2.959  0.1062  0.0827 -0.8097
  128MOL   H16841062   5.044   5.396   3.164 -1.7274  0.4347  0.8355
  128MOL   H16941063   5.116   5.687   3.094  3.8087  3.1426  4.4178
  128MOL   H17041064   5.229   5.555   3.132 -1.2275 -1.0143 -1.4606
  128MOL   H17141065   5.121   5.609   3.255 -0.7883 -2.2632 -0.1189
  128MOL   H17241066   4.958   5.380   2.937 -0.8672  1.0387  1.5132
  128MOL   H17341067   5.349   5.364   2.983 -1.1355  1.3585  0.0604
  128MOL   H17441068   5.338   5.210   3.046  1.9556  0.9912 -0.4834
  128MOL   H17541069   5.266   5.335   3.150  1.2101  2.1864 -0.3112
  128MOL   H17641070   4.992   5.163   2.921  0.0583  2.0848 -1.5250
  128MOL   H17741071   5.139   5.082   2.976 -1.6887 -0.2678  2.6400
  128MOL   C17841072   5.101   5.516   2.855 -0.5379 -0.4787  0.4335
  128MOL   C17941073   5.008   5.634   2.828  0.4988 -0.2586 -0.9281
  128MOL   C18041074   5.159   5.452   2.727 -0.1951  0.2388 -0.0537
  128MOL   C18141075   5.279   5.540   2.668  0.6002 -0.3807  0.0211
  128MOL   C18241076   5.416   5.494   2.698  0.5083  0.7789 -0.0857
  128MOL   C18341077   5.258   5.652   2.590 -0.2075  0.5851  0.1021
  128MOL   H18441078   5.194   5.557   2.896  0.1369  0.5889 -2.0541
  128MOL   H18541079   5.044   5.692   2.743 -0.4470  2.1183  0.2437
  128MOL   H18641080   5.013   5.706   2.910  1.6879 -0.8790 -0.4471
  128MOL   H18741081   4.905   5.605   2.806 -0.3284  2.2060 -0.5327
  128MOL   H18841082   5.201   5.359   2.766  1.2307  0.3845 -1.1429
  128MOL   H18941083   5.426   5.387   2.680  0.8016  1.1126 -2.0224
  128MOL   H19041084   5.425   5.509   2.806 -1.2838 -0.8881  0.3153
  128MOL   H19141085   5.490   5.533   2.628 -0.8160 -3.4828 -4.1213
  128MOL   H19241086   5.157   5.683   2.567 -0.2043 -0.3264 -1.1959
  128MOL   H19341087   5.343   5.704   2.547 -0.3929 -0.3052 -1.3631
  128MOL   C19441088   5.050   5.416   2.612  0.7043  0.2106 -0.1943
  128MOL   C19541089   4.937   5.331   2.671 -0.0872 -0.3462 -0.8616
  128MOL   C19641090   5.110   5.363   2.470 -0.1969  0.9392 -0.1687
  128MOL   C19741091   5.054   5.431   2.346 -0.2741 -0.3242 -1.2833
  128MOL   C19841092   5.131   5.541   2.280  0.3473  0.2306  0.0917
  128MOL   C19941093   4.938   5.396   2.291 -0.3079 -0.5340 -0.3043
  128MOL   H20041094   4.999   5.507   2.579  1.8922  1.2877  0.8803
  128MOL   H20141095   4.866   5.386   2.734  0.7814  0.0014 -0.1739
  128MOL   H20241096   4.969   5.244   2.729  0.2864  0.3247 -0.0560
  128MOL   H20341097   4.880   5.299   2.584  1.6305 -2.3264 -1.2999
  128MOL   H20441098   5.214   5.395   2.480  0.1716 -0.2276 -0.2023
  128MOL   H20541099   5.101   5.553   2.176  0.1312  1.4517  0.2844
  128MOL   H20641100   5.240   5.535   2.277  0.3918  1.3943 -2.1542
  128MOL   H20741101   5.117   5.641   2.320 -1.0993  0.4261 -0.8508
  128MOL   H20841102   4.886   5.314   2.338  0.4980 -0.4358  0.7985
  128MOL   H20941103   4.898   5.444   2.203  0.0933  1.2053  0.4417
  128MOL   C21041104   5.119   5.204   2.465 -0.3290  0.7533 -0.4133
  128MOL   C21141105   5.202   5.135   2.579 -0.0604 -0.8397  0.1642
  128MOL   C21241106   5.150   5.143   2.321 -0.4501  0.5490 -0.2582
  128MOL   C21341107   5.063   5.032   2.286  0.8126  0.6917  0.0695
  128MOL   C21441108   5.080   4.894   2.347 -1.0916 -0.3583  0.4787
  128MOL   C21541109   4.962   5.051   2.201  0.5830  0.0523 -0.8773
  128MOL   H21641110   5.016   5.176   2.485  0.4890 -2.2725 -0.1882
  128MOL   H21741111   5.168   5.165   2.678 -1.6441 -1.0531 -0.2948
  128MOL   H21841112   5.306   5.167   2.576 -0.2970 -0.1852 -1.1698
  128MOL   H21941113   5.195   5.026   2.586  1.2691 -0.7500  3.5552
  128MOL   H22041114   5.129   5.220   2.247  1.3935  0.4172 -0.9486
  128MOL   H22141115   4.982   4.849   2.367 -0.9509 -0.6509  0.5103
  128MOL   H22241116   5.122   4.905   2.447  0.0261 -0.5160  0.0330
  128MOL   H22341117   5.133   4.829   2.278 -1.9854  1.7075 -2.2556
  128MOL   H22441118   4.926   5.142   2.154 -2.0451  0.0034  0.9341
  128MOL   H22541119   4.900   4.971   2.161  2.2845 -1.7225 -0.0547
  128MOL   C22641120   5.307   5.120   2.294  0.0292  0.4106  0.0615
  128MOL   C22741121   5.388   5.248   2.311 -0.4994  0.3610  0.3030
  128MOL   C22841122   5.342   5.044   2.165  0.2629  0.5311  0.3060
  128MOL   C22941123   5.476   4.968   2.180 -0.3193  0.5517 -0.6871
  128MOL   C23041124   5.609   5.035   2.154 -0.3110  0.0006  0.9210
  128MOL   C23141125   5.463   4.845   2.231 -0.0761  0.4295 -0.3997
  128MOL   H23241126   5.345   5.069   2.383  1.0568  1.7480  0.3964
  128MOL   H23341127   5.496   5.230   2.309 -0.5444  0.0211  1.1523
  128MOL   H23441128   5.377   5.300   2.406  1.9088  0.8640  0.3411
  128MOL   H23541129   5.380   5.321   2.230 -3.3403 -0.1047  0.1053
  128MOL   H23641130   5.264   4.968   2.162 -1.1409  1.9386  0.2629
  128MOL   H23741131   5.675   5.029   2.241 -0.2326  1.0490  0.9336
  128MOL   H23841132   5.584   5.139   2.136  1.3358 -0.0266 -1.6823
  128MOL   H23941133   5.662   5.014   2.061 -1.4609  2.8350 -0.4108
  128MOL   H24041134   5.365   4.802   2.249  0.3683  0.3837  2.0326
  128MOL   H24141135   5.539   4.772   2.255 -2.2356 -1.7662 -0.0834
  128MOL   C24241136   5.330   5.124   2.024  0.6181 -0.2394  0.3411
  128MOL   C24341137   5.201   5.194   1.997 -0.5646  0.0921 -0.2579
  128MOL   C24441138   5.368   5.037   1.895  0.5230 -0.8254 -0.0921
  128MOL   C24541139   5.425   5.137   1.791  0.4714  0.5573 -0.3081
  128MOL   C24641140   5.573   5.178   1.809 -0.2097 -0.4643  0.2655
  128MOL   C24741141   5.352   5.187   1.689  0.0768 -0.4129  0.3342
  128MOL   H24841142   5.397   5.208   2.041  0.3376  0.1210 -0.2755
  128MOL   H24941143   5.194   5.273   2.071 -3.3834 -0.1059 -0.2645
  128MOL   H25041144   5.106   5.141   2.004 -0.6379  0.3067  0.4359
  128MOL   H25141145   5.202   5.246   1.901  1.4234  0.7029  0.0777
  128MOL   H25241146   5.453   4.976   1.924  2.9122  1.8217 -1.2606
  128MOL   H25341147   5.610   5.251   1.736 -2.0794 -0.8180 -1.0547
  128MOL   H25441148   5.619   5.080   1.800  2.2116  0.5580  0.9996
  128MOL   H25541149   5.601   5.223   1.904 -4.2356  0.8852  0.9193
  128MOL   H25641150   5.259   5.139   1.662 -0.0933  0.2622 -0.2954
  128MOL   H25741151   5.392   5.265   1.626 -0.0460 -1.4781 -1.0822
  128MOL   C25841152   5.260   4.941   1.836 -0.1187 -0.7283  0.0226
  128MOL   C25941153   5.193   4.853   1.938 -0.6947  0.7173  0.0164
  128MOL   C26041154   5.308   4.860   1.711  0.5444  0.1484  0.4567
  128MOL   C26141155   5.204   4.866   1.602 -0.9948  0.1771 -0.3910
  128MOL   C26241156   5.073   4.791   1.628 -0.1784  0.3620  0.7574
  128MOL   C26341157   5.227   4.927   1.486 -0.6280  0.1155 -0.3878
  128MOL   H26441158   5.183   5.008   1.800  1.8409  1.6260  0.0726
  128MOL   H26541159   5.133   4.907   2.011 -1.8900  0.0466 -0.4564
  128MOL   H26641160   5.269   4.792   1.987  0.9695  1.0873 -2.0804
  128MOL   H26741161   5.129   4.776   1.894 -0.4503 -0.0355  0.9383
  128MOL   H26841162   5.385   4.919   1.660  0.1628  0.4859  0.2712
  128MOL   H26941163   5.016   4.830   1.712 -0.9868  0.7165  0.0446
  128MOL   H27041164   5.088   4.684   1.645  1.6282  0.3707 -0.5759
  128MOL   H27141165   5.015   4.784   1.536 -1.1718 -0.3493  1.4351
  128MOL   H27241166   5.320   4.982   1.474 -0.8305  0.1607 -1.8054
  128MOL   H27341167   5.153   4.933   1.408 -0.7466 -0.2563 -0.3029
  128MOL   C27441168   5.370   4.723   1.733 -0.0532  0.2597  0.4772
  128MOL   C27541169   5.487   4.722   1.829 -0.1641 -0.8782  0.1324
  128MOL   C27641170   5.398   4.644   1.596  0.3635 -0.1008  0.4621
  128MOL   C27741171   5.369   4.494   1.611 -0.2204 -0.5145 -1.3972
  128MOL   C27841172   5.221   4.453   1.603 -0.0743 -0.3863 -0.0594
  128MOL   C27941173   5.460   4.393   1.636 -0.0700 -0.3388  0.7563
  128MOL   H28041174   5.297   4.658   1.782 -2.3197  1.3353 -1.3775
  128MOL   H28141175   5.448   4.719   1.930 -2.7812 -1.0905 -0.8609
  128MOL   H28241176   5.545   4.812   1.806 -0.6797 -0.4294  0.5857
  128MOL   H28341177   5.550   4.637   1.804 -1.4796 -1.8626  0.1198
  128MOL   H28441178   5.323   4.671   1.522  0.1895 -1.0991  0.2684
  128MOL   H28541179   5.161   4.488   1.688 -0.0329  0.7399 -0.4777
  128MOL   H28641180   5.206   4.346   1.599  0.5940 -0.5214  0.7521
  128MOL   H28741181   5.180   4.489   1.509 -1.8870 -0.5971  0.6381
  128MOL   H28841182   5.567   4.411   1.635  0.3003 -2.1901 -2.2613
  128MOL   H28941183   5.428   4.290   1.648 -1.9650  0.0163 -0.9377
  128MOL   C29041184   5.530   4.674   1.514 -0.0875 -0.1568  0.2786
  128MOL   C29141185   5.571   4.825   1.489  0.0603 -0.1036  0.7077
  128MOL   C29241186   5.555   4.589   1.378  0.0944 -0.5024  0.1411
  128MOL   C29341187   5.701   4.539   1.371  0.0220 -0.0391 -0.0786
  128MOL   C29441188   5.811   4.639   1.357 -0.3673  0.3593 -0.3706
  128MOL   C29541189   5.732   4.406   1.386  0.5205 -0.1497 -0.5515
  128MOL   H29641190   5.609   4.647   1.583 -0.5302  0.2027  0.9349
  128MOL   H29741191   5.514   4.886   1.419  0.0929 -0.5176  0.3166
  128MOL   H29841192   5.667   4.821   1.438 -0.5174  3.5124 -0.8306
  128MOL   H29941193   5.585   4.883   1.580 -1.1779  0.0791  0.7869
  128MOL   H30041194   5.494   4.498   1.385 -0.2581 -0.2843 -0.0971
  128MOL   H30141195   5.902   4.589   1.322  0.8271  0.2586  2.6889
  128MOL   H30241196   5.847   4.686   1.449 -0.1176 -0.3628 -0.0959
  128MOL   H30341197   5.786   4.710   1.278 -0.2732  1.5634  0.6750
  128MOL   H30441198   5.661   4.327   1.401  1.3838 -0.7397  0.4639
  128MOL   H30541199   5.832   4.368   1.399  2.0699  3.3288 -1.6750
  128MOL   C30641200   5.504   4.663   1.242  0.6610 -0.4835  0.1429
  128MOL   C30741201   5.348   4.671   1.244  0.5679 -0.1414 -0.1701
  128MOL   C30841202   5.546   4.583   1.118  0.3174 -0.3641  0.0239
  128MOL   C30941203   5.516   4.659   0.986  0.2602  0.9380  0.8208
  128MOL   C31041204   5.597   4.786   0.962  0.2190 -0.2355 -0.2061
  128MOL   C31141205   5.449   4.609   0.880 -0.2635 -0.2370 -0.1203
  128MOL   H31241206   5.536   4.765   1.222  1.6918 -0.8216  0.0230
  128MOL   H31341207   5.296   4.574   1.241  0.4978 -0.1500  1.0681
  128MOL   H31441208   5.314   4.713   1.149  0.3647 -0.5190 -0.2676
  128MOL   H31541209   5.302   4.724   1.327  0.8217  0.7994 -0.6232
  128MOL   H31641210   5.654   4.577   1.112  0.3247  0.6281 -0.9069
  128MOL   H31741211   5.634   4.797   0.860  0.2970 -0.4363 -0.1990
  128MOL   H31841212   5.683   4.794   1.028  1.6515 -0.4111 -1.9959
  128MOL   H31941213   5.534   4.875   0.973 -1.5773 -1.6386  1.0667
  128MOL   H32041214   5.418   4.506   0.878  0.0041 -0.3112 -2.1566
  128MOL   H32141215   5.438   4.673   0.794  1.0531  1.2911  0.8223
  128MOL   H32241216   5.504   4.482   1.119  0.9612 -0.6313  0.2577
  129MOL     C141217   4.624   4.164   5.674  0.6552  0.7810 -0.3261
  129MOL     C241218   4.775   4.160   5.680 -0.6806  0.4805 -0.0995
  129MOL     C341219   4.567   4.034   5.734  0.3758 -0.1022  0.0561
  129MOL     C441220   4.610   3.918   5.647  0.1724 -0.2249 -0.5594
  129MOL     C541221   4.557   3.914   5.501  0.0613 -0.5802 -0.1751
  129MOL     C641222   4.685   3.818   5.697 -0.4559  0.0275 -0.1189
  129MOL     H741223   4.591   4.245   5.738 -1.4398 -0.5893  0.3688
  129MOL     H841224   4.813   4.257   5.647  1.6289 -0.7339 -1.1420
  129MOL     H941225   4.821   4.091   5.609  1.2972  0.4621  1.1495
  129MOL    H1041226   4.806   4.143   5.784  2.7073  0.5160 -1.0351
  129MOL    H1141227   4.618   4.023   5.830  0.5395 -0.6517 -0.0889
  129MOL    H1241228   4.448   3.924   5.496  0.1976  1.9587  0.9792
  129MOL    H1341229   4.600   3.836   5.439  0.5875 -1.2273  0.9788
  129MOL    H1441230   4.587   4.002   5.444  0.4643  0.0180  0.9420
  129MOL    H1541231   4.705   3.823   5.803 -1.7298 -0.3318  0.1564
  129MOL    H1641232   4.719   3.739   5.632  0.2687  0.4229 -0.2164
  129MOL    H1741233   4.572   4.179   5.580  0.2754 -0.4414 -0.3240
  129MOL    C1841234   4.413   4.040   5.769  0.1359 -0.3594  0.1125
  129MOL    C1941235   4.386   4.158   5.866 -0.5702  0.0011 -0.0300
  129MOL    C2041236   4.341   3.903   5.806  0.0752 -0.3613  0.0786
  129MOL    C2141237   4.198   3.900   5.759  0.2575  0.3690 -0.1477
  129MOL    C2241238   4.084   3.984   5.817  0.6483  0.0004 -0.0642
  129MOL    C2341239   4.166   3.813   5.666 -0.1091 -0.0954  0.1339
  129MOL    H2441240   4.362   4.067   5.676 -0.6399  0.5080  0.7766
  129MOL    H2541241   4.376   4.242   5.798  3.7485  0.9253  0.2929
  129MOL    H2641242   4.472   4.186   5.927 -1.2828  1.8066  0.1838
  129MOL    H2741243   4.297   4.152   5.929  1.4486  0.6446  3.0546
  129MOL    H2841244   4.401   3.836   5.745 -0.3838  0.3766 -1.1956
  129MOL    H2941245   4.124   4.085   5.829  1.0757  0.1503 -2.4898
  129MOL    H3041246   4.068   3.956   5.921  0.3587  1.5825  0.3258
  129MOL    H3141247   3.998   3.982   5.750  1.0922  1.2191 -0.6803
  129MOL    H3241248   4.244   3.751   5.625 -0.4652  0.1218 -0.8807
  129MOL    H3341249   4.066   3.808   5.625 -0.2886 -1.0687  0.6855
  129MOL    C3441250   4.352   3.870   5.966 -0.5737 -0.9578  0.0475
  129MOL    C3541251   4.500   3.891   6.020  0.8039 -0.7243  0.6248
  129MOL    C3641252   4.283   3.745   6.031  0.2226 -0.1027 -0.3512
  129MOL    C3741253   4.266   3.773   6.181  0.2183 -0.1719  1.0782
  129MOL    C3841254   4.142   3.855   6.224 -0.4545  0.5391 -0.0408
  129MOL    C3941255   4.357   3.731   6.276 -0.7100  0.2757 -0.4506
  129MOL    H4041256   4.293   3.950   6.009  1.3307  0.0535  0.8550
  129MOL    H4141257   4.515   3.858   6.123 -3.5393 -0.9284  1.2930
  129MOL    H4241258   4.538   3.993   6.014 -0.0607 -0.5261 -2.3877
  129MOL    H4341259   4.558   3.828   5.952 -0.9098 -2.3882  0.6490
  129MOL    H4441260   4.179   3.755   5.998 -0.0256  0.0935  0.4791
  129MOL    H4541261   4.178   3.951   6.262  0.4211  0.7651 -1.4049
  129MOL    H4641262   4.068   3.810   6.291 -0.3838 -1.7070 -1.4354
  129MOL    H4741263   4.076   3.871   6.139  0.2341  3.1868 -0.1298
  129MOL    H4841264   4.447   3.683   6.241 -0.3985 -0.3492  1.1960
  129MOL    H4941265   4.336   3.747   6.380 -0.6451  2.8755 -0.7941
  129MOL    C5041266   4.314   3.593   5.998 -0.1289  0.1828  0.3859
  129MOL    C5141267   4.429   3.574   5.892  0.2930  0.1037  0.4756
  129MOL    C5241268   4.187   3.507   5.979 -0.3009  0.4735  0.6322
  129MOL    C5341269   4.110   3.533   5.852  0.3507  1.2486 -0.0325
  129MOL    C5441270   4.149   3.456   5.733 -0.0302  0.7606  0.5287
  129MOL    C5541271   4.005   3.617   5.844  0.2916 -0.0540  0.8043
  129MOL    H5641272   4.374   3.542   6.073 -2.2678 -3.4828 -0.2557
  129MOL    H5741273   4.393   3.605   5.794  2.5303 -1.3032 -0.8226
  129MOL    H5841274   4.463   3.472   5.875 -0.2742  0.3577 -2.4452
  129MOL    H5941275   4.519   3.631   5.917  1.7471 -0.8859 -2.3209
  129MOL    H6041276   4.236   3.410   5.973 -0.2396  0.5653 -0.4024
  129MOL    H6141277   4.126   3.507   5.639 -0.5983 -0.4838 -0.0329
  129MOL    H6241278   4.086   3.367   5.726  2.3112 -0.9520  0.6255
  129MOL    H6341279   4.256   3.441   5.723  0.1508  1.1744  1.7995
  129MOL    H6441280   3.973   3.671   5.932 -0.3236  0.2192  0.4173
  129MOL    H6541281   3.958   3.628   5.748  1.7323 -0.6064  0.0211
  129MOL    C6641282   4.097   3.484   6.109  0.1117 -0.0056  0.3454
  129MOL    C6741283   4.160   3.452   6.246 -0.5810 -0.2098  0.3319
  129MOL    C6841284   3.978   3.377   6.091 -0.0499  0.0800  0.4017
  129MOL    C6941285   3.857   3.418   6.172  0.1607 -0.6222 -0.5575
  129MOL    C7041286   3.760   3.511   6.102 -0.6342  0.6163 -0.1638
  129MOL    C7141287   3.823   3.376   6.292 -0.1835  0.7495  0.2705
  129MOL    H7241288   4.051   3.582   6.124  1.6169  0.5729  1.2940
  129MOL    H7341289   4.084   3.455   6.323 -1.6375 -1.3489 -0.6374
  129MOL    H7441290   4.246   3.515   6.268 -1.0197  1.2425 -1.9303
  129MOL    H7541291   4.209   3.354   6.246  1.6933  0.8553 -1.7032
  129MOL    H7641292   3.944   3.395   5.989  0.1423 -1.0750  0.1255
  129MOL    H7741293   3.804   3.609   6.086 -1.3959  0.7808 -1.2987
  129MOL    H7841294   3.667   3.531   6.155  1.2435  1.0509  3.0756
  129MOL    H7941295   3.728   3.471   6.006 -0.1090 -3.4793  1.2275
  129MOL    H8041296   3.889   3.307   6.343  0.9608  1.2862 -0.4483
  129MOL    H8141297   3.733   3.399   6.347 -0.7440  0.4762 -0.5250
  129MOL    C8241298   4.009   3.223   6.098 -0.2631  0.1711 -0.2452
  129MOL    C8341299   4.126   3.178   6.006 -0.4967 -0.4205  0.1162
  129MOL    C8441300   3.887   3.117   6.101  0.2797  0.5780 -0.8873
  129MOL    C8541301   3.931   2.987   6.176 -0.3419  0.0659 -0.3296
  129MOL    C8641302   3.975   2.865   6.094  0.2200  0.1879  0.0166
  129MOL    C8741303   3.920   2.977   6.309  0.1029  0.5491  0.7147
  129MOL    H8841304   4.056   3.213   6.196 -0.1330 -0.9159 -0.4184
  129MOL    H8941305   4.133   3.074   5.974 -0.5288  0.0744 -1.5565
  129MOL    H9041306   4.219   3.209   6.054 -0.6817  1.7033 -0.8149
  129MOL    H9141307   4.121   3.235   5.913 -0.9638 -0.3887  0.1602
  129MOL    H9241308   3.809   3.158   6.165  0.1339 -0.7503 -0.1990
  129MOL    H9341309   4.045   2.808   6.155  0.0530 -0.6783 -0.5930
  129MOL    H9441310   4.017   2.901   6.001  3.8663 -1.9536  0.7304
  129MOL    H9541311   3.898   2.789   6.077  1.8086 -1.3745 -0.2930
  129MOL    H9641312   3.875   3.051   6.372  0.6702  0.3942  1.3090
  129MOL    H9741313   3.959   2.887   6.354 -1.2413  0.8651  2.5182
  129MOL    C9841314   3.795   3.081   5.975  0.3654 -0.4133 -0.8564
  129MOL    C9941315   3.788   3.193   5.862 -0.2810  0.2335  0.2976
  129MOL   C10041316   3.660   2.996   5.988 -0.0719  0.8902  0.1366
  129MOL   C10141317   3.634   2.906   5.867  0.1794 -0.5913  0.5281
  129MOL   C10241318   3.656   2.759   5.888 -0.1474  0.1935  0.0870
  129MOL   C10341319   3.587   2.953   5.752 -0.7928  0.2274  0.7426
  129MOL   H10441320   3.855   3.013   5.914  0.8493  0.8921 -1.8560
  129MOL   H10541321   3.878   3.233   5.814  0.1582 -0.3435  0.6342
  129MOL   H10641322   3.745   3.278   5.916 -0.9528  0.0416  0.0694
  129MOL   H10741323   3.717   3.173   5.782  0.3115  1.0816 -0.4514
  129MOL   H10841324   3.668   2.924   6.070 -1.4604 -0.5906 -1.0038
  129MOL   H10941325   3.761   2.729   5.894 -0.3385 -0.6833 -0.8688
  129MOL   H11041326   3.629   2.706   5.796  0.5106 -0.3963  0.2346
  129MOL   H11141327   3.610   2.721   5.979 -1.7796  1.8383 -0.0274
  129MOL   H11241328   3.548   3.053   5.743 -0.8268  0.2690  1.3008
  129MOL   H11341329   3.585   2.893   5.663  5.4611  1.1449 -0.2401
  129MOL   C11441330   3.525   3.076   6.029 -0.3900 -0.5077  0.0702
  129MOL   C11541331   3.551   3.193   6.133 -0.0837  0.6068 -0.1902
  129MOL   C11641332   3.406   2.981   6.081 -0.1774 -0.9251 -0.0549
  129MOL   C11741333   3.275   3.039   6.025 -0.5927  0.2690  0.3905
  129MOL   C11841334   3.227   2.971   5.892  0.0424  0.2659 -0.4477
  129MOL   C11941335   3.203   3.141   6.069  0.0237  0.1098 -0.6689
  129MOL   H12041336   3.488   3.128   5.942 -1.6858  1.2707  1.6477
  129MOL   H12141337   3.591   3.162   6.230  3.1799  2.1747 -0.9690
  129MOL   H12241338   3.473   3.267   6.155  0.3698  0.9381  0.3233
  129MOL   H12341339   3.627   3.264   6.102 -0.5284  0.6969 -1.0969
  129MOL   H12441340   3.414   2.883   6.035  2.3315 -0.4750 -0.6272
  129MOL   H12541341   3.164   3.040   5.835 -1.1818 -0.5965 -0.1584
  129MOL   H12641342   3.174   2.877   5.913  0.8491  0.2242  1.5000
  129MOL   H12741343   3.322   2.959   5.841  0.7882  1.4736  0.6569
  129MOL   H12841344   3.231   3.198   6.156  0.4949 -0.7545 -0.2534
  129MOL   H12941345   3.119   3.168   6.007  0.4485 -1.6020 -2.0373
  129MOL   C13041346   3.398   2.955   6.239 -0.3365 -0.1526 -0.0270
  129MOL   C13141347   3.527   2.894   6.305 -0.1283  0.1265  0.2284
  129MOL   C13241348   3.267   2.885   6.292 -0.2272  0.3767  0.1190
  129MOL   C13341349   3.232   2.948   6.427  0.0159  0.4784 -0.1275
  129MOL   C13441350   3.149   3.071   6.438  0.2263 -0.7388 -0.1787
  129MOL   C13541351   3.293   2.907   6.539  0.1516  0.3505 -0.6642
  129MOL   H13641352   3.386   3.056   6.279 -1.9252  0.2012 -1.3339
  129MOL   H13741353   3.524   2.881   6.414  0.0320  0.3565  0.2623
  129MOL   H13841354   3.621   2.949   6.293 -0.9271  1.8277  1.5563
  129MOL   H13941355   3.557   2.802   6.255 -0.6804 -0.0830  0.2835
  129MOL   H14041356   3.188   2.923   6.227 -0.6102 -1.1342 -0.2959
  129MOL   H14141357   3.137   3.113   6.538  0.3912  0.9246 -0.8413
  129MOL   H14241358   3.046   3.043   6.417 -0.0650 -0.4735  0.8565
  129MOL   H14341359   3.164   3.158   6.373  1.0380 -0.5908  0.2022
  129MOL   H14441360   3.351   2.816   6.533 -1.9500 -1.0826 -0.0472
  129MOL   H14541361   3.274   2.957   6.633  1.1007  1.4795 -1.0589
  129MOL   C14641362   3.269   2.722   6.280 -0.1100 -0.5781 -0.1691
  129MOL   C14741363   3.305   2.673   6.136  0.4485  0.0959  0.3474
  129MOL   C14841364   3.144   2.647   6.329  0.4181 -0.4026 -0.5298
  129MOL   C14941365   3.179   2.514   6.394 -0.2214 -0.1428  0.5407
  129MOL   C15041366   3.228   2.531   6.541 -0.8412  0.1367  0.0358
  129MOL   C15141367   3.168   2.394   6.334  0.3337 -0.4992  0.7923
  129MOL   H15241368   3.351   2.696   6.347 -0.2198  0.7352  0.5003
  129MOL   H15341369   3.414   2.665   6.138  0.3393 -1.6634 -0.1115
  129MOL   H15441370   3.263   2.724   6.049  0.0137 -0.5294  0.1903
  129MOL   H15541371   3.284   2.567   6.124  1.5385 -0.1017  0.0826
  129MOL   H15641372   3.105   2.708   6.409  0.1590  3.3985 -3.4109
  129MOL   H15741373   3.331   2.495   6.541 -0.7911  0.2893 -0.6335
  129MOL   H15841374   3.182   2.460   6.610  0.5844 -1.2024 -0.3605
  129MOL   H15941375   3.221   2.630   6.585  0.4638  0.5039 -0.5546
  129MOL   H16041376   3.145   2.378   6.230 -1.7489 -1.2764  1.3407
  129MOL   H16141377   3.195   2.305   6.391 -0.4663 -0.5132  1.1505
  129MOL   C16241378   3.017   2.636   6.234  1.4651  0.2663 -0.4776
  129MOL   C16341379   2.988   2.774   6.181  0.4430 -0.1839 -0.0338
  129MOL   C16441380   2.882   2.563   6.291 -0.0123  0.0608 -0.2728
  129MOL   C16541381   2.811   2.490   6.174  0.6739 -0.4695  0.6626
  129MOL   C16641382   2.783   2.565   6.040 -0.2312  0.2420  0.4441
  129MOL   C16741383   2.789   2.354   6.182 -0.0419 -0.3017 -0.3601
  129MOL   H16841384   3.049   2.572   6.151 -0.0371 -0.5428 -0.4415
  129MOL   H16941385   2.998   2.858   6.250 -1.7767  1.2195 -1.3612
  129MOL   H17041386   2.888   2.789   6.141  1.2565  0.8058 -1.7260
  129MOL   H17141387   3.052   2.794   6.096 -0.4355  0.7390 -0.4931
  129MOL   H17241388   2.919   2.477   6.346  1.2598  0.2446 -0.8241
  129MOL   H17341389   2.710   2.645   6.052 -0.2753  0.5343 -1.5834
  129MOL   H17441390   2.755   2.498   5.959  1.6571  0.9418 -0.8338
  129MOL   H17541391   2.880   2.601   6.005  0.2814 -1.7522 -0.2676
  129MOL   H17641392   2.814   2.299   6.272  1.0176  1.1388  0.2529
  129MOL   H17741393   2.743   2.296   6.104 -1.5959 -0.3188  0.5490
  129MOL   C17841394   2.781   2.650   6.380  0.9192  0.3824 -0.4339
  129MOL   C17941395   2.836   2.752   6.482 -0.5466  0.0149 -0.2877
  129MOL   C18041396   2.667   2.571   6.446  0.2198  0.9315 -0.0617
  129MOL   C18141397   2.532   2.640   6.449 -0.4320 -0.3038  0.3849
  129MOL   C18241398   2.443   2.586   6.340  0.9744  0.4958 -0.6365
  129MOL   C18341399   2.493   2.748   6.513  0.2539 -0.8091 -0.0698
  129MOL   H18441400   2.730   2.701   6.298 -0.2976 -0.6552 -0.3299
  129MOL   H18541401   2.773   2.837   6.510 -1.1039 -0.5915  0.3235
  129MOL   H18641402   2.929   2.794   6.443  1.4570 -1.9782  2.1332
  129MOL   H18741403   2.864   2.704   6.576 -1.3198  0.6760  0.2885
  129MOL   H18841404   2.662   2.480   6.388 -2.0097  0.8271  0.2542
  129MOL   H18941405   2.416   2.484   6.369  0.1608  1.0562  0.6201
  129MOL   H19041406   2.485   2.599   6.240  2.5824 -0.0635 -0.0517
  129MOL   H19141407   2.346   2.636   6.336  0.5394 -0.0133  2.4031
  129MOL   H19241408   2.558   2.793   6.587  1.4337  2.2790 -2.8554
  129MOL   H19341409   2.400   2.801   6.496 -0.2501 -0.7907  2.5794
  129MOL   C19441410   2.700   2.508   6.587 -0.0134  0.5503  0.2232
  129MOL   C19541411   2.836   2.441   6.607 -0.1132 -0.0609 -0.3820
  129MOL   C19641412   2.588   2.430   6.658  0.1496  0.7439  0.7022
  129MOL   C19741413   2.574   2.473   6.801 -0.5690  0.0266 -0.6909
  129MOL   C19841414   2.497   2.601   6.829  0.2302  0.3414  0.2808
  129MOL   C19941415   2.621   2.408   6.904 -0.7386 -0.4000 -0.4579
  129MOL   H20041416   2.713   2.594   6.653  2.1545  0.3091  0.1601
  129MOL   H20141417   2.846   2.345   6.556 -1.8321 -0.8448  0.6697
  129MOL   H20241418   2.865   2.413   6.709 -1.5802  1.0735  0.3641
  129MOL   H20341419   2.917   2.501   6.567 -0.2807 -1.2053 -2.4787
  129MOL   H20441420   2.494   2.460   6.611  0.0557  2.5423  1.9746
  129MOL   H20541421   2.474   2.601   6.935  0.3580 -2.2868  0.3375
  129MOL   H20641422   2.410   2.594   6.763  0.3804  2.8598 -0.2607
  129MOL   H20741423   2.565   2.682   6.804 -2.8081  2.2447 -2.2209
  129MOL   H20841424   2.674   2.314   6.898  1.3484  0.7872 -1.0871
  129MOL   H20941425   2.609   2.454   7.001  0.5564 -0.8551 -0.0658
  129MOL   C21041426   2.573   2.273   6.635 -0.0668  0.1963  0.4900
  129MOL   C21141427   2.578   2.236   6.477  0.2830 -0.1073  0.6492
  129MOL   C21241428   2.455   2.197   6.708  0.1435  0.3965 -0.3912
  129MOL   C21341429   2.501   2.048   6.733 -0.3207  0.6485  0.4834
  129MOL   C21441430   2.578   2.014   6.866 -0.6722  0.0468 -0.5486
  129MOL   C21541431   2.485   1.945   6.641  0.1214  0.1446  0.3907
  129MOL   H21641432   2.669   2.237   6.671 -0.3398 -0.4319  0.6008
  129MOL   H21741433   2.669   2.255   6.420 -1.8692  2.4003 -2.1242
  129MOL   H21841434   2.491   2.271   6.420 -0.3949 -1.8913  0.5332
  129MOL   H21941435   2.567   2.128   6.467 -1.9625  0.2280 -0.9852
  129MOL   H22041436   2.447   2.242   6.807  0.6088 -0.2107 -0.0725
  129MOL   H22141437   2.607   1.910   6.880 -0.0718  0.2508 -0.2393
  129MOL   H22241438   2.525   2.044   6.956 -2.4959  0.7800 -1.8357
  129MOL   H22341439   2.677   2.058   6.856 -1.2660  2.6538  3.9399
  129MOL   H22441440   2.422   1.956   6.554 -0.6871 -2.4645  0.6076
  129MOL   H22541441   2.523   1.847   6.666  2.0843  0.1329 -2.5154
  129MOL   C22641442   2.313   2.200   6.645  0.4007 -0.3082 -0.0304
  129MOL   C22741443   2.265   2.346   6.611 -0.3533  0.8841 -0.1586
  129MOL   C22841444   2.200   2.113   6.713 -0.3797  0.0163 -0.3131
  129MOL   C22941445   2.109   2.074   6.599 -0.3794  0.3631  0.3868
  129MOL   C23041446   2.148   1.939   6.542 -0.2208 -0.6670 -0.5127
  129MOL   C23141447   2.001   2.142   6.559 -0.3174  0.1128 -0.0099
  129MOL   H23241448   2.319   2.156   6.546  1.3985 -0.4216  0.0718
  129MOL   H23341449   2.306   2.398   6.524  0.2998 -0.1810 -0.4976
  129MOL   H23441450   2.298   2.410   6.693  0.5468  0.7776 -0.4304
  129MOL   H23541451   2.157   2.358   6.600 -0.5729 -1.1177 -0.2723
  129MOL   H23641452   2.238   2.015   6.741 -1.0107 -0.4117 -0.9259
  129MOL   H23741453   2.059   1.885   6.510 -0.8374  0.5864 -0.9784
  129MOL   H23841454   2.205   1.870   6.602 -0.7434 -0.5402  0.1350
  129MOL   H23941455   2.210   1.951   6.453 -2.7057 -1.3866 -2.4135
  129MOL   H24041456   1.963   2.234   6.600  0.5675 -0.0110  1.1088
  129MOL   H24141457   1.940   2.109   6.477  1.9571 -0.6402 -1.4596
  129MOL   C24241458   2.136   2.173   6.839  0.9935  0.7048 -0.1926
  129MOL   C24341459   2.238   2.219   6.943 -0.3002  0.1390 -0.3429
  129MOL   C24441460   2.025   2.077   6.896 -0.3902 -0.0391  0.2365
  129MOL   C24541461   1.921   2.164   6.956  0.1579 -0.0969  0.7885
  129MOL   C24641462   1.813   2.205   6.858  0.1418 -0.0812  0.6195
  129MOL   C24741463   1.920   2.201   7.082 -0.0735 -0.2537 -0.4988
  129MOL   H24841464   2.082   2.259   6.799  1.3081  0.0271 -2.1124
  129MOL   H24941465   2.189   2.247   7.036  1.3160 -3.1571  1.5768
  129MOL   H25041466   2.288   2.305   6.900 -0.1932 -0.7097 -1.9645
  129MOL   H25141467   2.315   2.147   6.969 -1.9374 -1.0319  1.3916
  129MOL   H25241468   1.977   2.030   6.810  1.2256  0.4959 -1.0048
  129MOL   H25341469   1.760   2.123   6.810  2.7048 -1.4083 -0.0265
  129MOL   H25441470   1.848   2.277   6.784 -2.6164 -2.0011 -2.7002
  129MOL   H25541471   1.731   2.254   6.910 -0.0928 -2.4214  2.5405
  129MOL   H25641472   1.988   2.180   7.163 -2.2518 -0.0049  1.4292
  129MOL   H25741473   1.832   2.255   7.112 -0.6776 -0.9571 -0.9761
  129MOL   C25841474   2.071   1.957   6.986  0.0355 -0.6052  0.1050
  129MOL   C25941475   2.204   1.893   6.950 -0.0866  0.1129 -0.0209
  129MOL   C26041476   1.960   1.858   7.022 -0.1295  0.7720 -0.5950
  129MOL   C26141477   1.981   1.815   7.170  0.1845 -0.0546 -0.3321
  129MOL   C26241478   1.930   1.915   7.270  0.1616  0.2200  0.1694
  129MOL   C26341479   2.047   1.705   7.212 -0.5107  0.4237  0.3316
  129MOL   H26441480   2.098   2.011   7.076 -0.3350 -1.7357  0.8990
  129MOL   H26541481   2.213   1.818   6.871 -2.5467  1.4303 -1.5719
  129MOL   H26641482   2.235   1.833   7.036 -0.4949 -0.5104 -0.3073
  129MOL   H26741483   2.292   1.956   6.938  1.5831 -2.2552 -0.7777
  129MOL   H26841484   1.869   1.917   7.024 -0.0608  0.8607  0.3211
  129MOL   H26941485   1.931   1.881   7.374 -0.1292  1.3194  0.5459
  129MOL   H27041486   1.829   1.952   7.255 -0.0804  0.1393  1.5454
  129MOL   H27141487   2.003   1.996   7.262  2.0835 -1.3251  1.5096
  129MOL   H27241488   2.078   1.640   7.132  2.7701  2.2473  0.0405
  129MOL   H27341489   2.055   1.681   7.317  2.2788  0.3502  0.1386
  129MOL   C27441490   1.933   1.741   6.926  0.2610 -0.3960 -0.0924
  129MOL   C27541491   1.941   1.780   6.773 -0.6887  0.1756  0.6747
  129MOL   C27641492   1.808   1.648   6.964  0.0233 -0.7805 -0.0811
  129MOL   C27741493   1.856   1.504   6.963 -0.4518 -0.1696 -0.1349
  129MOL   C27841494   1.908   1.456   6.827 -0.9321  0.2570  0.8020
  129MOL   C27941495   1.870   1.430   7.076 -0.1251  0.4303  1.3075
  129MOL   H28041496   2.023   1.681   6.936  1.1692  0.6106 -1.9294
  129MOL   H28141497   1.938   1.694   6.707 -1.6263 -0.2511  1.2529
  129MOL   H28241498   2.031   1.827   6.735 -1.3824  0.1621 -1.0317
  129MOL   H28341499   1.852   1.840   6.750 -0.2831 -0.0168 -1.4431
  129MOL   H28441500   1.792   1.672   7.069  2.0963  0.9783 -0.1380
  129MOL   H28541501   1.942   1.354   6.842  0.5825  0.2513 -2.3658
  129MOL   H28641502   1.988   1.507   6.774  0.9128 -1.8050  1.5624
  129MOL   H28741503   1.821   1.456   6.761 -1.7410  1.1068  1.8308
  129MOL   H28841504   1.838   1.463   7.173 -3.0146  3.0875 -0.4945
  129MOL   H28941505   1.916   1.331   7.075 -1.6462 -0.2845  0.9535
  129MOL   C29041506   1.674   1.674   6.887 -0.3461  0.4807 -0.1937
  129MOL   C29141507   1.618   1.813   6.915 -1.3713 -0.0196 -0.5862
  129MOL   C29241508   1.562   1.560   6.893  0.3163 -0.2005  0.2252
  129MOL   C29341509   1.509   1.535   6.756  0.1935 -0.7867  0.2827
  129MOL   C29441510   1.444   1.652   6.683  0.6661  0.2941  0.3348
  129MOL   C29541511   1.520   1.424   6.687  0.5884 -0.4366  0.6648
  129MOL   H29641512   1.707   1.674   6.783  0.2245 -0.6349 -0.0266
  129MOL   H29741513   1.540   1.845   6.846 -1.8094 -1.1872 -0.6399
  129MOL   H29841514   1.696   1.887   6.894 -0.4627 -1.3530 -2.0294
  129MOL   H29941515   1.581   1.823   7.017  1.6716 -3.0490  0.9138
  129MOL   H30041516   1.620   1.472   6.920  1.6583  0.2926 -0.9624
  129MOL   H30141517   1.389   1.621   6.595  0.9185  1.8079 -0.3678
  129MOL   H30241518   1.527   1.707   6.639  0.1774  0.2880 -0.6049
  129MOL   H30341519   1.369   1.715   6.731 -0.1357 -0.3447 -0.0799
  129MOL   H30441520   1.565   1.337   6.732  0.1000 -0.2316  1.5393
  129MOL   H30541521   1.471   1.409   6.592  0.5580 -2.0067  0.9259
  129MOL   C30641522   1.456   1.573   7.003  0.3928  0.7351  0.7372
  129MOL   C30741523   1.519   1.562   7.145 -0.0088 -0.0629  0.2648
  129MOL   C30841524   1.359   1.450   6.987 -0.0373 -0.1747  0.0552
  129MOL   C30941525   1.244   1.450   7.087 -0.0515  0.5672  0.5290
  129MOL   C31041526   1.132   1.553   7.065  0.3355 -0.1627  0.3098
  129MOL   C31141527   1.228   1.359   7.180  0.1591  0.1682  0.2806
  129MOL   H31241528   1.399   1.665   6.992 -1.5696 -0.6712 -1.2571
  129MOL   H31341529   1.438   1.560   7.218 -0.3922 -0.0699 -0.1637
  129MOL   H31441530   1.588   1.645   7.164 -0.5505  1.0000 -2.1896
  129MOL   H31541531   1.577   1.471   7.154 -3.5350 -2.5049 -0.9318
  129MOL   H31641532   1.310   1.457   6.889 -0.1453 -1.1884  0.0365
  129MOL   H31741533   1.173   1.649   7.095  0.8955 -0.9435  2.1465
  129MOL   H31841534   1.047   1.537   7.132 -0.6472 -0.1795 -0.9133
  129MOL   H31941535   1.095   1.556   6.963  0.5297  0.9129  0.2646
  129MOL   H32041536   1.304   1.286   7.205  0.1993  0.3043  0.5485
  129MOL   H32141537   1.144   1.356   7.248 -0.1552 -1.8356 -0.1452
  129MOL   H32241538   1.415   1.359   7.006  0.9002  0.6173  1.1126
  130MOL     C141539   0.388   1.812   5.742 -0.5715 -0.3190 -0.9992
  130MOL     C241540   0.471   1.939   5.729  0.1752 -0.4499 -0.0405
  130MOL     C341541   0.458   1.681   5.784 -0.0974  0.7656  0.2687
  130MOL     C441542   0.566   1.633   5.677  0.4795 -0.1518  0.3890
  130MOL     C541543   0.659   1.524   5.727 -0.9258  0.3125  0.2954
  130MOL     C641544   0.571   1.679   5.549  0.0798  0.1694 -0.1885
  130MOL     H741545   0.309   1.828   5.815  2.0313 -0.3485  1.8884
  130MOL     H841546   0.546   1.930   5.651  1.1239  1.2899  0.6402
  130MOL     H941547   0.519   1.975   5.820 -0.7544 -0.9601  0.6594
  130MOL    H1041548   0.393   2.007   5.694  0.4518 -0.5504 -0.8656
  130MOL    H1141549   0.527   1.710   5.863  0.6373  1.0394 -0.4669
  130MOL    H1241550   0.731   1.516   5.645 -0.4853 -2.1938  0.8888
  130MOL    H1341551   0.620   1.427   5.755  1.7784 -0.9628 -0.1907
  130MOL    H1441552   0.726   1.552   5.808  1.1468 -1.5642 -0.7337
  130MOL    H1541553   0.496   1.752   5.523 -0.9472  0.2243  2.6923
  130MOL    H1641554   0.644   1.647   5.476 -0.6246 -0.9344 -0.4232
  130MOL    H1741555   0.324   1.801   5.654 -1.7600 -0.5984 -0.1062
  130MOL    C1841556   0.350   1.572   5.823 -0.1047 -0.0849  1.3169
  130MOL    C1941557   0.239   1.555   5.709  0.4929  0.5494  0.5500
  130MOL    C2041558   0.274   1.606   5.957 -0.1495 -0.1327  0.5245
  130MOL    C2141559   0.357   1.690   6.050 -0.1485 -0.0739  0.5808
  130MOL    C2241560   0.472   1.628   6.117 -0.0398 -0.0015  0.2271
  130MOL    C2341561   0.329   1.818   6.067  0.3285  0.7739 -0.0986
  130MOL    H2441562   0.397   1.476   5.842  2.8505  0.6576 -1.8009
  130MOL    H2541563   0.287   1.545   5.612 -0.0981  0.7639  0.2304
  130MOL    H2641564   0.177   1.644   5.698 -0.9123 -0.5363 -0.4982
  130MOL    H2741565   0.175   1.467   5.711  1.2496  0.0000  0.5170
  130MOL    H2841566   0.190   1.669   5.928 -0.1726 -0.9524 -1.2904
  130MOL    H2941567   0.526   1.572   6.040 -2.2306  0.6886 -1.8486
  130MOL    H3041568   0.435   1.560   6.194  1.7336 -1.8515 -0.4858
  130MOL    H3141569   0.549   1.687   6.167 -0.2012  0.6000 -0.2291
  130MOL    H3241570   0.243   1.859   6.017  0.5561  2.3948  0.8021
  130MOL    H3341571   0.397   1.866   6.136  1.4060 -0.6121 -0.1744
  130MOL    C3441572   0.208   1.490   6.043 -0.3269 -0.0827 -0.0020
  130MOL    C3541573   0.162   1.355   5.963  0.0707 -0.9239  0.2589
  130MOL    C3641574   0.110   1.552   6.153 -0.8031 -0.0560  0.2935
  130MOL    C3741575   0.158   1.520   6.293  0.0389 -0.1404  0.2710
  130MOL    C3841576   0.168   1.373   6.328 -0.5445  0.2803 -0.3823
  130MOL    C3941577   0.200   1.617   6.379 -0.7201 -0.2138 -0.1790
  130MOL    H4041578   0.293   1.446   6.095  0.7747  1.9887 -0.0067
  130MOL    H4141579   0.087   1.369   5.886  1.2179 -1.1281 -0.9201
  130MOL    H4241580   0.114   1.289   6.036  1.3106  0.6162  2.5238
  130MOL    H4341581   0.254   1.314   5.921  1.5692  2.6460 -0.1343
  130MOL    H4441582   0.132   1.659   6.143 -0.1121 -0.1032  1.2791
  130MOL    H4541583   0.242   1.322   6.266 -0.3601  2.8144 -2.3129
  130MOL    H4641584   0.074   1.323   6.307 -0.2968 -0.0812 -0.6565
  130MOL    H4741585   0.199   1.376   6.433  0.7309  1.0141 -0.7695
  130MOL    H4841586   0.203   1.722   6.353  2.4207 -0.4185 -0.8907
  130MOL    H4941587   0.238   1.601   6.479 -1.6506  1.7122  0.5108
  130MOL    C5041588   7.848   1.530   6.148 -0.2832 -0.0799  0.1168
  130MOL    C5141589   7.797   1.527   6.001 -0.2115 -0.2967  0.3442
  130MOL    C5241590   7.768   1.632   6.239  0.2036 -0.3616 -0.0761
  130MOL    C5341591   7.641   1.567   6.287  0.0754  0.0619  0.4526
  130MOL    C5441592   7.524   1.538   6.198 -0.0056  0.0487 -0.0492
  130MOL    C5541593   7.631   1.547   6.417 -0.3820 -0.2679 -0.1427
  130MOL    H5641594   7.841   1.428   6.186  2.4004  0.1487  1.3126
  130MOL    H5741595   7.868   1.576   5.935  0.1448 -2.4683 -0.9516
  130MOL    H5841596   7.703   1.579   5.989 -0.2051  0.2783  2.5830
  130MOL    H5941597   7.781   1.423   5.970 -2.1911  0.1619 -0.2192
  130MOL    H6041598   7.835   1.652   6.323 -0.4542 -2.2478  0.9180
  130MOL    H6141599   7.557   1.483   6.110  2.5043  2.2037 -0.5564
  130MOL    H6241600   7.477   1.629   6.161  0.9834 -0.1965 -1.9789
  130MOL    H6341601   7.442   1.483   6.243  0.8560  0.6681  2.3422
  130MOL    H6441602   7.712   1.562   6.486 -1.3478 -0.1121  0.9834
  130MOL    H6541603   7.541   1.506   6.462  0.6831 -2.2448  0.2500
  130MOL    C6641604   7.730   1.778   6.180 -0.5140 -0.4234 -0.2556
  130MOL    C6741605   7.845   1.844   6.101  0.8971 -0.1158  0.5503
  130MOL    C6841606   7.641   1.875   6.268 -0.1636 -0.0106 -0.5283
  130MOL    C6941607   7.546   1.958   6.169 -0.1922 -0.8842 -0.1835
  130MOL    C7041608   7.416   1.889   6.127 -0.1069 -0.3824 -0.4909
  130MOL    C7141609   7.591   2.067   6.104 -0.9551  0.0059 -0.0577
  130MOL    H7241610   7.670   1.749   6.094  0.2343 -3.1284  0.1051
  130MOL    H7341611   0.035   1.840   6.173  0.3057 -1.8068  1.1713
  130MOL    H7441612   7.830   1.950   6.078  0.9603 -0.2501 -0.0982
  130MOL    H7541613   7.865   1.792   6.008 -0.5076  2.1549 -1.0689
  130MOL    H7641614   7.566   1.822   6.326 -1.5176  0.8233 -1.4873
  130MOL    H7741615   7.395   1.815   6.205 -1.3885  0.9523  0.4541
  130MOL    H7841616   7.432   1.848   6.027 -0.4883 -3.8719  0.8069
  130MOL    H7941617   7.327   1.952   6.120 -1.2317 -1.7385  1.0635
  130MOL    H8041618   7.683   2.120   6.119 -0.2170 -1.1701 -0.3356
  130MOL    H8141619   7.527   2.108   6.026 -1.7219 -0.7690  0.1513
  130MOL    C8241620   7.715   1.970   6.372  1.1350  0.0790  0.7743
  130MOL    C8341621   7.799   1.884   6.460  0.1477 -0.3254  0.2135
  130MOL    C8441622   7.613   2.063   6.452  0.0888 -0.2227  0.1576
  130MOL    C8541623   7.673   2.209   6.465  0.5352 -0.3164  0.2018
  130MOL    C8641624   7.801   2.217   6.539  0.3649 -0.1387  0.0215
  130MOL    C8741625   7.618   2.312   6.405 -0.8548  0.3156 -0.7390
  130MOL    H8841626   7.783   2.033   6.314 -0.1069 -0.5548 -1.4358
  130MOL    H8941627   7.820   1.920   6.560  1.0450 -0.7208  0.1704
  130MOL    H9041628   0.003   1.874   6.410  0.7898  2.2057  0.8752
  130MOL    H9141629   7.756   1.786   6.478 -0.3687  0.0245  0.9088
  130MOL    H9241630   7.517   2.069   6.400 -0.3589 -0.5492  0.9448
  130MOL    H9341631   7.820   2.314   6.583  1.4273 -0.7178  0.8721
  130MOL    H9441632   7.887   2.200   6.474  0.9245 -0.8645  0.9306
  130MOL    H9541633   7.802   2.150   6.625 -0.5852  2.3146  1.9717
  130MOL    H9641634   7.519   2.299   6.363 -1.0770  0.8943 -0.3954
  130MOL    H9741635   7.669   2.405   6.386 -0.0113  0.0013 -0.0476
  130MOL    C9841636   7.558   2.006   6.590  0.6303 -0.1842 -0.4469
  130MOL    C9941637   7.498   1.867   6.584  1.1714  0.1090 -0.3381
  130MOL   C10041638   7.496   2.111   6.686  0.0572  0.1314 -0.3575
  130MOL   C10141639   7.548   2.086   6.829 -0.1957 -0.1829  0.7406
  130MOL   C10241640   7.520   1.950   6.892 -0.0766 -0.6680 -0.3965
  130MOL   C10341641   7.629   2.178   6.887 -0.7501 -0.3201 -0.3102
  130MOL   H10441642   7.655   1.988   6.637  0.9782  0.9073 -0.7175
  130MOL   H10541643   7.575   1.801   6.544  0.3212 -1.3323  0.3781
  130MOL   H10641644   7.416   1.859   6.512  1.9447  0.2387 -1.2472
  130MOL   H10741645   7.468   1.813   6.674  0.9466 -2.0201 -1.6573
  130MOL   H10841646   7.525   2.210   6.650  1.6543  0.2613  1.1900
  130MOL   H10941647   7.575   1.874   6.836 -0.5683 -1.1602 -0.2232
  130MOL   H11041648   7.412   1.930   6.893 -0.1221 -0.4047  0.3777
  130MOL   H11141649   7.565   1.948   6.991 -2.5662 -1.7451  0.7645
  130MOL   H11241650   7.650   2.274   6.842  0.0405  0.3425  1.4541
  130MOL   H11341651   7.677   2.151   6.980 -0.2349  1.3412 -0.0830
  130MOL   C11441652   7.345   2.123   6.685 -0.2737  0.0891  0.5087
  130MOL   C11541653   7.290   2.156   6.544 -0.0403 -0.2267 -0.4041
  130MOL   C11641654   7.276   2.205   6.805 -0.3518 -0.1842  0.5158
  130MOL   C11741655   7.152   2.134   6.859 -0.1920 -0.0677  0.2212
  130MOL   C11841656   7.039   2.101   6.774  0.0356  0.4943  0.6028
  130MOL   C11941657   7.158   2.076   6.981 -0.3906 -0.3174 -0.0776
  130MOL   H12041658   7.302   2.025   6.706 -0.6168 -0.3428 -2.0341
  130MOL   H12141659   7.326   2.081   6.474  2.6070  1.0305 -0.4556
  130MOL   H12241660   7.332   2.244   6.497  1.6691 -1.2895 -0.9333
  130MOL   H12341661   7.182   2.160   6.554 -0.0569 -1.2946  0.0044
  130MOL   H12441662   7.343   2.203   6.891 -1.3753 -1.5456  1.3158
  130MOL   H12541663   7.022   2.188   6.710 -0.5110 -1.3635 -1.8690
  130MOL   H12641664   6.943   2.085   6.824  0.2395 -0.4661  0.6972
  130MOL   H12741665   7.065   2.020   6.706 -0.6211  0.2001  0.6992
  130MOL   H12841666   7.243   2.102   7.043  0.1865 -0.8903 -0.6215
  130MOL   H12941667   7.083   2.015   7.029 -0.1502  0.3622  1.2103
  130MOL   C13041668   7.260   2.356   6.774 -0.5904  0.1364 -0.2399
  130MOL   C13141669   7.390   2.432   6.729 -0.1418 -0.1722  0.5077
  130MOL   C13241670   7.185   2.446   6.878  0.7042 -0.2091  0.4874
  130MOL   C13341671   7.091   2.547   6.807  0.0774 -0.5965 -0.6936
  130MOL   C13441672   6.961   2.486   6.755  0.3477  0.3637  0.7583
  130MOL   C13541673   7.126   2.678   6.780 -0.5591 -0.4420 -0.7383
  130MOL   H13641674   7.198   2.354   6.684  0.1519 -0.3155 -0.7461
  130MOL   H13741675   7.469   2.427   6.805  0.1501 -0.2371  0.1993
  130MOL   H13841676   7.376   2.539   6.717  0.7351 -0.1775 -0.5958
  130MOL   H13941677   7.439   2.401   6.637  1.0700 -0.5353  1.2593
  130MOL   H14041678   7.114   2.373   6.916 -0.7271  0.8639 -0.0803
  130MOL   H14141679   6.893   2.551   6.699 -0.6160  0.2600  1.8031
  130MOL   H14241680   6.896   2.441   6.829 -0.1138  0.5447  0.4663
  130MOL   H14341681   6.975   2.401   6.688  2.5173  1.4839 -0.2933
  130MOL   H14441682   7.223   2.713   6.812 -0.2283 -3.0200  1.2236
  130MOL   H14541683   7.057   2.742   6.727 -1.0837  0.1550  0.6451
  130MOL   C14641684   7.269   2.493   7.001  0.5148 -0.3654  0.5075
  130MOL   C14741685   7.344   2.383   7.073  0.8780 -0.4953 -0.0955
  130MOL   C14841686   7.187   2.584   7.096  1.0287 -0.7084 -0.5001
  130MOL   C14941687   7.295   2.670   7.162  0.7502  0.4206  0.2010
  130MOL   C15041688   7.336   2.795   7.088  0.5319  0.4105  0.3943
  130MOL   C15141689   7.340   2.655   7.287  0.2078  0.3655  0.6822
  130MOL   H15241690   7.353   2.545   6.954  0.0272  0.4203  0.4950
  130MOL   H15341691   7.392   2.423   7.163  2.2190 -0.9627 -0.5938
  130MOL   H15441692   7.420   2.345   7.005 -2.2097 -2.2352 -2.7584
  130MOL   H15541693   7.275   2.304   7.106 -0.4218  1.0516  0.9747
  130MOL   H15641694   7.130   2.657   7.038  0.9507  0.7170  1.3284
  130MOL   H15741695   7.397   2.775   7.000 -1.5371  0.6350 -1.1140
  130MOL   H15841696   7.388   2.871   7.147  0.6203  0.1494  0.6503
  130MOL   H15941697   7.247   2.845   7.050 -1.4507 -4.7867 -2.2790
  130MOL   H16041698   7.315   2.562   7.335  0.6081  0.5672  1.2827
  130MOL   H16141699   7.402   2.731   7.332  1.4928 -0.8974  1.0911
  130MOL   C16241700   7.088   2.524   7.205  0.3313 -0.0234  0.3327
  130MOL   C16341701   6.992   2.413   7.162  0.8609  0.4213  0.4344
  130MOL   C16441702   7.007   2.637   7.277  0.0329 -0.4019 -0.4752
  130MOL   C16541703   7.022   2.625   7.427  0.0229  0.0562 -0.3614
  130MOL   C16641704   6.945   2.517   7.499 -0.7611 -0.2640  0.3190
  130MOL   C16741705   7.108   2.705   7.494 -0.0221  0.6515  0.5413
  130MOL   H16841706   7.146   2.481   7.286  0.7054  1.4155  0.8373
  130MOL   H16941707   6.943   2.445   7.071 -0.7699 -2.2393  0.3214
  130MOL   H17041708   6.913   2.398   7.236 -0.0062 -0.7963 -0.7217
  130MOL   H17141709   7.036   2.315   7.144  0.6866  0.5616 -0.7946
  130MOL   H17241710   7.065   2.728   7.261 -2.6983  1.0992 -2.1124
  130MOL   H17341711   7.011   2.435   7.527 -1.0711 -0.3008  0.9529
  130MOL   H17441712   6.876   2.474   7.426  1.5393 -1.6396 -1.1196
  130MOL   H17541713   6.903   2.573   7.582 -0.3856 -0.1178  0.4077
  130MOL   H17641714   7.172   2.766   7.434  0.3154 -1.1307 -0.9414
  130MOL   H17741715   7.116   2.706   7.602 -0.9430  1.3038  0.6131
  130MOL   C17841716   6.867   2.685   7.226  0.5811 -0.6477  1.1822
  130MOL   C17941717   6.864   2.711   7.076  0.1992  0.4671  0.6266
  130MOL   C18041718   6.797   2.804   7.299  0.3748 -0.0701  0.5741
  130MOL   C18141719   6.647   2.773   7.329  0.6648  0.3501  0.9910
  130MOL   C18241720   6.626   2.702   7.456 -0.1351  0.2070 -0.0300
  130MOL   C18341721   6.553   2.789   7.232  0.5349 -0.0198  0.2968
  130MOL   H18441722   6.798   2.601   7.229  0.7992 -1.0294 -2.1976
  130MOL   H18541723   6.882   2.630   7.005  1.9438  2.0570 -0.8053
  130MOL   H18641724   6.927   2.787   7.029  0.4323  0.1649  0.4482
  130MOL   H18741725   6.765   2.740   7.039  0.0867 -3.0481 -2.0498
  130MOL   H18841726   6.832   2.806   7.402 -0.2593  2.1777  0.7741
  130MOL   H18941727   6.673   2.604   7.454 -0.8176 -0.1393  0.4341
  130MOL   H19041728   6.522   2.708   7.489  0.4596  1.2138  1.7167
  130MOL   H19141729   6.680   2.755   7.535 -0.1684 -2.7370  2.0399
  130MOL   H19241730   6.570   2.834   7.135 -2.7163 -2.0543 -1.2986
  130MOL   H19341731   6.453   2.756   7.259  0.6405 -1.1752 -0.6667
  130MOL   C19441732   6.836   2.950   7.252 -0.8609  0.3136 -0.4141
  130MOL   C19541733   6.988   2.985   7.267  0.2097 -0.1491  0.2159
  130MOL   C19641734   6.742   3.070   7.298  0.2910  0.0432  0.1850
  130MOL   C19741735   6.708   3.168   7.180 -0.3584  0.5194 -0.2543
  130MOL   C19841736   6.592   3.125   7.082  0.1750 -0.5315  0.8635
  130MOL   C19941737   6.779   3.277   7.158 -0.1720  0.1232  0.1249
  130MOL   H20041738   6.807   2.950   7.147  1.0757 -1.7599 -0.9812
  130MOL   H20141739   7.005   3.092   7.253  2.1086 -0.4967 -0.3352
  130MOL   H20241740   7.040   2.932   7.187 -0.1837 -1.5084  0.8532
  130MOL   H20341741   7.036   2.965   7.363  0.9817 -2.3335 -0.5888
  130MOL   H20441742   6.644   3.026   7.315 -0.2642  1.0761 -0.2948
  130MOL   H20541743   6.567   3.216   7.029  0.4790 -1.0506 -0.1923
  130MOL   H20641744   6.504   3.096   7.138 -1.0983  1.3548 -0.1338
  130MOL   H20741745   6.639   3.044   7.025 -0.8020 -0.9835  0.6880
  130MOL   H20841746   6.860   3.303   7.225 -0.2444  0.3192  0.1347
  130MOL   H20941747   6.753   3.345   7.079  1.1627  0.8359  0.2803
  130MOL   C21041748   6.788   3.142   7.435 -0.1693 -0.5499  0.7698
  130MOL   C21141749   6.806   3.038   7.554 -0.0006 -0.0580 -0.0985
  130MOL   C21241750   6.699   3.265   7.479 -0.1530  0.2834  0.3061
  130MOL   C21341751   6.798   3.359   7.558 -0.4218  0.4331 -0.7628
  130MOL   C21441752   6.879   3.457   7.471  0.8502 -0.9115 -0.5180
  130MOL   C21541753   6.825   3.344   7.691 -0.0546  0.3202  0.4105
  130MOL   H21641754   6.889   3.182   7.423  0.3355 -2.2466 -0.8423
  130MOL   H21741755   6.822   3.090   7.649 -0.3153  0.0712 -0.1160
  130MOL   H21841756   6.887   2.969   7.530 -0.6745 -0.6825 -0.5887
  130MOL   H21941757   6.715   2.983   7.578 -0.6628  1.8023  1.8166
  130MOL   H22041758   6.678   3.322   7.388 -1.0618 -1.3143 -0.5310
  130MOL   H22141759   6.812   3.506   7.400  1.7649  0.7768 -0.2294
  130MOL   H22241760   6.954   3.414   7.404  2.2362  2.3647 -1.1819
  130MOL   H22341761   6.923   3.536   7.531  2.0921 -2.2307  0.3379
  130MOL   H22441762   6.776   3.265   7.745 -1.5421  0.1707 -1.1243
  130MOL   H22541763   6.891   3.401   7.755  1.2382 -2.8478  1.9876
  130MOL   C22641764   6.551   3.240   7.537  0.0473  0.3991  0.6631
  130MOL   C22741765   6.470   3.118   7.485  0.0799 -0.3830  0.7513
  130MOL   C22841766   6.455   3.368   7.540  0.2499 -0.4780 -0.1686
  130MOL   C22941767   6.464   3.435   7.400  0.1565 -0.7005  0.2242
  130MOL   C23041768   6.389   3.371   7.293  0.1471  0.2219  0.2520
  130MOL   C23141769   6.540   3.544   7.366  0.2108 -0.1476  0.2933
  130MOL   H23241770   6.574   3.201   7.637 -0.9939  1.5742  1.3787
  130MOL   H23341771   6.458   3.112   7.376 -0.3118 -0.9321  0.8231
  130MOL   H23441772   6.371   3.120   7.530 -0.3826  0.2910 -0.2590
  130MOL   H23541773   6.516   3.023   7.512  0.5302 -0.5308 -0.4965
  130MOL   H23641774   6.351   3.335   7.551 -0.1267  0.0812 -1.9736
  130MOL   H23741775   6.288   3.349   7.329 -1.5516  0.6336 -3.9916
  130MOL   H23841776   6.438   3.280   7.258 -0.5000  0.2590 -0.7583
  130MOL   H23941777   6.379   3.436   7.206 -1.3500 -0.4412 -0.0853
  130MOL   H24041778   6.600   3.590   7.444  0.0371  0.1293  0.2632
  130MOL   H24141779   6.533   3.573   7.263  2.0471 -1.9297 -0.3674
  130MOL   C24241780   6.479   3.473   7.650  0.2801 -0.0544 -0.3391
  130MOL   C24341781   6.504   3.422   7.791 -0.0406  0.2403 -0.1774
  130MOL   C24441782   6.377   3.588   7.644 -0.2093  0.0437  0.2028
  130MOL   C24541783   6.453   3.716   7.644  0.3651  0.2485 -0.7236
  130MOL   C24641784   6.553   3.749   7.763 -0.0232 -0.5619  0.2918
  130MOL   C24741785   6.446   3.804   7.541 -0.2056  0.4872 -0.3003
  130MOL   H24841786   6.576   3.516   7.625  1.8128 -2.6870  0.9074
  130MOL   H24941787   6.613   3.412   7.793  0.2076  2.6951  0.2696
  130MOL   H25041788   6.468   3.320   7.802 -0.7516  0.4265 -0.7225
  130MOL   H25141789   6.483   3.476   7.884  1.3062  1.8324 -0.7678
  130MOL   H25241790   6.326   3.579   7.548 -1.0122  0.7309  0.5620
  130MOL   H25341791   6.501   3.765   7.857 -1.9038 -0.5642 -0.7069
  130MOL   H25441792   6.600   3.844   7.739 -1.7263 -0.1619 -1.6002
  130MOL   H25541793   6.635   3.680   7.782  0.6631  0.4044  0.8578
  130MOL   H25641794   6.383   3.794   7.454  2.7627  3.1219 -2.8892
  130MOL   H25741795   6.503   3.895   7.534 -0.4736  0.5866 -1.1608
  130MOL   C25841796   6.250   3.592   7.739  0.1168  0.0888  0.3322
  130MOL   C25941797   6.183   3.454   7.740  0.0840 -0.1254  0.2623
  130MOL   C26041798   6.143   3.700   7.724  0.3008 -0.4254 -0.4350
  130MOL   C26141799   6.115   3.759   7.859  0.0094  0.1756  0.9320
  130MOL   C26241800   6.201   3.878   0.009  0.4695  0.2462  0.0680
  130MOL   C26341801   6.012   3.717   0.043 -0.5593  0.8293 -0.0107
  130MOL   H26441802   6.296   3.609   7.836 -0.0381  3.4127 -0.1175
  130MOL   H26541803   6.164   3.434   7.634 -0.7207  0.3715  0.3087
  130MOL   H26641804   6.091   3.451   7.797 -1.3522  2.1017 -1.8113
  130MOL   H26741805   6.247   3.374   7.776  0.9278  1.2114  1.7866
  130MOL   H26841806   6.186   3.787   7.675 -0.0247  1.4397  2.5360
  130MOL   H26941807   6.305   3.852   7.885  0.2473 -0.3989 -0.3060
  130MOL   H27041808   6.185   3.890   0.117  2.7056 -0.4909  0.5006
  130MOL   H27141809   6.174   3.971   7.852 -0.0937 -0.4849 -1.0096
  130MOL   H27241810   5.945   3.640   0.009  2.1098 -0.9470 -1.4981
  130MOL   H27341811   5.991   3.774   0.132  0.2668  1.1472 -0.0093
  130MOL   C27441812   6.012   3.671   7.636  0.1461  0.5720 -0.2030
  130MOL   C27541813   6.050   3.636   7.492 -0.1230 -0.4729  0.1002
  130MOL   C27641814   5.894   3.777   7.642  0.7118  0.0109  0.9812
  130MOL   C27741815   5.763   3.690   7.617  0.3218  0.3738 -0.8579
  130MOL   C27841816   5.702   3.614   7.734  0.4270 -0.2260 -0.7112
  130MOL   C27941817   5.699   3.687   7.496  0.3299 -0.4338  1.1849
  130MOL   H28041818   5.971   3.582   7.683  0.1496  0.3912 -0.5410
  130MOL   H28141819   6.109   3.546   7.477 -0.4878 -0.8113  0.6791
  130MOL   H28241820   6.106   3.720   7.450  0.0430 -1.3127 -1.4183
  130MOL   H28341821   5.963   3.630   7.427  0.5890 -0.4399 -0.8697
  130MOL   H28441822   5.885   3.813   7.744  2.0369  3.1836  0.0459
  130MOL   H28541823   5.772   3.538   7.769  0.3842 -0.0423 -0.2287
  130MOL   H28641824   5.621   3.548   7.704  0.8730 -0.3247 -1.7045
  130MOL   H28741825   5.660   3.679   7.811 -0.3030 -0.8623 -0.5621
  130MOL   H28841826   5.727   3.754   7.417 -1.3116  0.2895  1.1991
  130MOL   H28941827   5.610   3.628   7.481  1.6721 -2.2434  0.1442
  130MOL   C29041828   5.894   3.911   7.560  0.0955 -0.8309 -0.2334
  130MOL   C29141829   6.031   3.990   7.552  0.2630 -0.3074  0.1224
  130MOL   C29241830   5.775   4.012   7.603 -0.4472 -0.0085  0.0608
  130MOL   C29341831   5.716   4.073   7.477  0.5785 -0.0517  0.2199
  130MOL   C29441832   5.577   4.019   7.439  0.2730  0.3105 -0.6352
  130MOL   C29541833   5.757   4.182   7.412 -0.0165  0.1993  0.4108
  130MOL   H29641834   5.880   3.881   7.457 -1.2484  0.7991 -0.5460
  130MOL   H29741835   6.062   4.053   7.635  0.4369  1.2481 -1.1053
  130MOL   H29841836   6.030   4.060   7.468  1.8221  1.0116  1.1730
  130MOL   H29941837   6.109   3.921   7.522  0.6147 -1.0485  2.6657
  130MOL   H30041838   5.700   3.956   7.658 -1.1826  1.9861  1.1254
  130MOL   H30141839   5.499   4.030   7.515  0.2019  0.2145 -0.6936
  130MOL   H30241840   5.576   3.911   7.423 -3.8894  0.3615 -1.3850
  130MOL   H30341841   5.537   4.069   7.351 -1.4943  0.7984  0.4104
  130MOL   H30441842   5.845   4.228   7.457 -0.5264 -0.6682  2.3657
  130MOL   H30541843   5.710   4.225   7.325 -0.3964 -2.9416 -0.9858
  130MOL   C30641844   5.809   4.127   7.708 -0.6378  0.3328 -0.1788
  130MOL   C30741845   5.865   4.070   7.842  0.5980 -0.3204  0.0662
  130MOL   C30841846   5.689   4.220   7.746  0.0289 -0.8792 -0.3575
  130MOL   C30941847   5.716   4.333   7.846 -0.0288  0.0695 -0.0996
  130MOL   C31041848   5.799   4.451   7.792  0.6641 -0.3632  0.4698
  130MOL   C31141849   5.677   4.332   0.085 -0.3869 -0.3392 -0.1259
  130MOL   H31241850   5.881   4.200   7.671  0.4323 -0.7828 -0.3270
  130MOL   H31341851   5.783   4.019   7.892 -0.7602 -0.3002 -2.0675
  130MOL   H31441852   5.890   4.142   0.028 -0.6226 -0.7937  0.9031
  130MOL   H31541853   5.955   4.011   7.822 -0.4964 -0.5759 -4.5577
  130MOL   H31641854   5.658   4.272   7.655 -2.5812 -0.9324  0.4563
  130MOL   H31741855   5.800   4.541   7.853 -0.1959  0.1208 -0.1981
  130MOL   H31841856   5.767   4.489   7.695  2.0960  1.6024  0.7438
  130MOL   H31941857   5.901   4.412   7.787  0.3457 -1.3150  1.3841
  130MOL   H32041858   5.625   4.245   0.120 -3.2337  1.2183 -0.3303
  130MOL   H32141859   5.690   4.419   0.148  0.8037 -0.3013 -0.4094
  130MOL   H32241860   5.600   4.162   7.771 -1.4136  0.1156 -2.9632
  131MOL     C141861   3.390   2.183   2.288 -0.3523  0.3243  0.3211
  131MOL     C241862   3.333   2.118   2.160 -0.0950  0.1929 -0.0933
  131MOL     C341863   3.300   2.255   2.401  0.7545  0.4717  0.1813
  131MOL     C441864   3.226   2.386   2.346 -0.1294  0.2027 -0.0550
  131MOL     C541865   3.101   2.426   2.424 -0.3137 -0.4186 -0.6162
  131MOL     C641866   3.271   2.454   2.246  0.3736  0.1129  1.2569
  131MOL     H741867   3.450   2.103   2.332  2.5562  2.2278 -0.0335
  131MOL     H841868   3.408   2.054   2.115 -0.5067 -0.1503 -0.2932
  131MOL     H941869   3.302   2.190   2.084 -0.1701 -0.5417 -0.7553
  131MOL    H1041870   3.241   2.064   2.179  0.7686 -1.2240  0.0920
  131MOL    H1141871   3.211   2.197   2.425 -0.1454  0.9394 -1.9051
  131MOL    H1241872   3.037   2.343   2.451 -2.6132  1.9573  1.4524
  131MOL    H1341873   3.046   2.505   2.372 -0.5557  0.1501  0.5035
  131MOL    H1441874   3.130   2.481   2.513 -2.7929  0.4495 -0.3077
  131MOL    H1541875   3.362   2.425   2.195 -0.8394 -1.4889 -0.0172
  131MOL    H1641876   3.231   2.547   2.209 -1.4921 -0.7048  1.1806
  131MOL    H1741877   3.465   2.259   2.264 -0.5262  1.1618  2.3326
  131MOL    C1841878   3.384   2.276   2.540 -0.0469 -0.2830 -0.0976
  131MOL    C1941879   3.501   2.362   2.528 -0.1536 -0.6550  0.1690
  131MOL    C2041880   3.426   2.146   2.619  0.8174  0.0479  0.1046
  131MOL    C2141881   3.320   2.041   2.594  0.6363  0.3839 -0.4236
  131MOL    C2241882   3.190   2.066   2.673 -0.0429 -0.0597 -0.3122
  131MOL    C2341883   3.346   1.931   2.525 -0.9055 -0.6165  0.6655
  131MOL    H2441884   3.323   2.319   2.619  0.7450  1.4318 -0.4066
  131MOL    H2541885   3.585   2.331   2.466 -1.8234  1.2745 -3.2406
  131MOL    H2641886   3.549   2.380   2.624  0.1798 -0.8778  0.0431
  131MOL    H2741887   3.474   2.463   2.498 -0.2299  0.1551  2.8065
  131MOL    H2841888   3.507   2.115   2.553 -0.4076 -1.8358 -0.5611
  131MOL    H2941889   3.160   2.170   2.658 -0.5644 -0.0029  1.0905
  131MOL    H3041890   3.194   2.048   2.781 -2.7439  0.9771 -0.0134
  131MOL    H3141891   3.112   2.007   2.624 -0.7242  1.4680 -1.1048
  131MOL    H3241892   3.447   1.923   2.489 -0.5704 -1.1909  1.7063
  131MOL    H3341893   3.280   1.846   2.511 -2.4436  0.7669 -0.8537
  131MOL    C3441894   3.475   2.146   2.769 -0.8479  0.1653 -0.1948
  131MOL    C3541895   3.398   2.256   2.845  0.3284  0.3951 -1.2182
  131MOL    C3641896   3.624   2.162   2.804 -0.3110 -0.2979  0.2505
  131MOL    C3741897   3.714   2.093   2.707  0.7834  0.0559  0.1148
  131MOL    C3841898   3.696   1.937   2.686  0.3738 -1.1462 -0.6147
  131MOL    C3941899   3.808   2.157   2.633  0.8271 -0.8142 -0.4404
  131MOL    H4041900   3.458   2.051   2.820  0.1575  1.4639  2.6497
  131MOL    H4141901   3.400   2.356   2.802 -0.6209  0.8230 -0.2948
  131MOL    H4241902   3.428   2.270   2.949  2.1184 -1.0149 -1.5070
  131MOL    H4341903   3.292   2.236   2.854  0.0894  2.2862  0.5473
  131MOL    H4441904   3.639   2.269   2.789  1.9175 -0.7807 -1.2137
  131MOL    H4541905   3.792   1.888   2.672  1.3399  0.6979 -0.6498
  131MOL    H4641906   3.644   1.932   2.590 -0.4150 -0.8020 -0.2078
  131MOL    H4741907   3.643   1.895   2.771 -1.8580 -0.9584 -1.8673
  131MOL    H4841908   3.816   2.264   2.649 -0.9609 -0.8886  1.1363
  131MOL    H4941909   3.875   2.100   2.570  0.5772 -0.1700 -1.2937
  131MOL    C5041910   3.674   2.124   2.951 -0.5125 -0.6888  0.3956
  131MOL    C5141911   3.578   2.127   3.077  0.1525  0.3706  0.0728
  131MOL    C5241912   3.817   2.178   2.984  0.3955 -0.1637 -0.4467
  131MOL    C5341913   3.911   2.072   3.039 -0.5707  0.1340 -0.1103
  131MOL    C5441914   3.972   1.981   2.934  0.0799 -0.5618  0.1179
  131MOL    C5541915   3.934   2.052   3.174 -0.3784 -0.2987 -0.1712
  131MOL    H5641916   3.692   2.017   2.962  0.7726 -0.5502 -0.2443
  131MOL    H5741917   3.550   2.229   3.104 -0.5933  0.5667 -1.3614
  131MOL    H5841918   3.630   2.088   3.164  1.6706  0.4866 -0.7726
  131MOL    H5941919   3.491   2.062   3.070  0.1207  0.2259  1.7159
  131MOL    H6041920   3.875   2.197   2.894  1.1586  1.5478  0.3579
  131MOL    H6141921   4.048   2.036   2.878  0.5228 -1.2969 -0.0099
  131MOL    H6241922   3.889   1.952   2.870 -0.5800  2.2886 -0.4012
  131MOL    H6341923   4.008   1.888   2.979  1.9200 -0.3353 -0.8090
  131MOL    H6441924   3.895   2.116   3.252 -0.9674  0.9360 -1.4528
  131MOL    H6541925   3.987   1.965   3.209 -2.7241 -1.1508  1.3934
  131MOL    C6641926   3.824   2.316   3.061  0.2258 -0.3175 -0.1061
  131MOL    C6741927   3.732   2.420   2.996  0.2783 -0.4733  0.2348
  131MOL    C6841928   3.974   2.362   3.094  0.0452  0.0914 -0.3438
  131MOL    C6941929   3.987   2.410   3.240  0.4744  0.4641 -0.3639
  131MOL    C7041930   3.909   2.535   3.285  0.8502  0.1320  0.1937
  131MOL    C7141931   4.064   2.350   3.332  0.9310 -0.0917 -0.1137
  131MOL    H7241932   3.782   2.296   3.160  1.6000  0.2144  0.5873
  131MOL    H7341933   3.627   2.399   2.980 -0.3929  1.3901  2.0616
  131MOL    H7441934   3.756   2.449   2.893  0.1724  1.9856  0.8723
  131MOL    H7541935   3.731   2.507   3.062 -0.1581  1.2677 -2.0115
  131MOL    H7641936   4.043   2.278   3.093  0.0837  0.1054  0.5874
  131MOL    H7741937   3.803   2.508   3.285  0.7837  0.3969 -1.3199
  131MOL    H7841938   3.901   2.619   3.217  5.0886  0.1982 -0.2948
  131MOL    H7941939   3.952   2.561   3.382  1.2155  1.5267 -0.3378
  131MOL    H8041940   4.125   2.264   3.306  0.8181  0.2301 -1.5178
  131MOL    H8141941   4.059   2.387   3.433 -1.5915 -1.8107  0.4380
  131MOL    C8241942   4.039   2.463   2.987 -0.2728 -1.1821 -0.0187
  131MOL    C8341943   4.027   2.419   2.840 -0.0063 -0.5529 -0.2790
  131MOL    C8441944   4.183   2.519   3.023  0.4835 -0.0423 -0.3053
  131MOL    C8541945   4.210   2.657   2.973 -0.2628  0.1957  0.2036
  131MOL    C8641946   4.153   2.778   3.049  0.0958  0.3565 -1.2005
  131MOL    C8741947   4.269   2.678   2.849  0.4290  0.7107 -0.1370
  131MOL    H8841948   3.981   2.555   2.992  2.4506  0.6311 -0.6301
  131MOL    H8941949   4.055   2.314   2.825  1.1071 -0.3213  0.1108
  131MOL    H9041950   4.102   2.462   2.774 -0.2092 -0.1031 -0.2180
  131MOL    H9141951   3.931   2.412   2.789  0.1746 -2.0326 -0.4461
  131MOL    H9241952   4.164   2.538   3.129  0.8447 -1.3933  0.0046
  131MOL    H9341953   4.048   2.768   3.076  0.7183 -1.8191  0.5669
  131MOL    H9441954   4.161   2.869   2.989 -1.4152  0.6337 -1.0091
  131MOL    H9541955   4.194   2.798   3.148 -0.4976  0.8630 -1.0527
  131MOL    H9641956   4.303   2.593   2.792  4.1535  2.8699 -1.2875
  131MOL    H9741957   4.290   2.777   2.810  1.6403  0.9643  1.0961
  131MOL    C9841958   4.312   2.422   3.023 -0.1808  0.5606 -0.5240
  131MOL    C9941959   4.293   2.278   2.960  0.0663 -0.3419  0.2335
  131MOL   C10041960   4.391   2.419   3.162 -0.0604  0.3675 -0.1223
  131MOL   C10141961   4.400   2.560   3.228 -0.1374 -0.1185  0.1292
  131MOL   C10241962   4.350   2.582   3.369  0.0643 -0.2895 -0.1170
  131MOL   C10341963   4.456   2.668   3.164 -0.0039 -0.1780  0.0730
  131MOL   H10441964   4.387   2.470   2.961  0.1029 -0.1409 -0.7301
  131MOL   H10541965   4.392   2.233   2.958  0.7384  1.1603 -0.8264
  131MOL   H10641966   4.252   2.277   2.860 -1.5500  0.2235  0.8649
  131MOL   H10741967   4.236   2.220   3.033 -0.4890  0.1571  0.2029
  131MOL   H10841968   4.322   2.376   3.234  1.8379 -1.3639  0.6977
  131MOL   H10941969   4.262   2.521   3.385  0.5767 -1.0843 -0.3081
  131MOL   H11041970   4.342   2.691   3.367 -3.5672 -0.4862  0.1265
  131MOL   H11141971   4.429   2.542   3.432 -1.0817 -2.2315  0.1127
  131MOL   H11241972   4.496   2.669   3.064 -0.5013 -2.0635 -0.1572
  131MOL   H11341973   4.475   2.760   3.218 -1.4673 -0.1995  0.6522
  131MOL   C11441974   4.528   2.348   3.174  0.1339  0.0064  0.6642
  131MOL   C11541975   4.620   2.389   3.060  0.2855  0.1325  0.1054
  131MOL   C11641976   4.524   2.195   3.217 -0.0601  0.2474  0.5755
  131MOL   C11741977   4.416   2.167   3.317  0.0548  0.8330 -0.1637
  131MOL   C11841978   4.438   2.220   3.457  0.4607  0.4257  0.6469
  131MOL   C11941979   4.310   2.083   3.290 -0.2345 -0.6417 -0.2068
  131MOL   H12041980   4.579   2.392   3.261  1.1088 -1.1543  0.6820
  131MOL   H12141981   4.724   2.367   3.086 -0.5054 -0.2372  3.0448
  131MOL   H12241982   4.607   2.497   3.046  1.9789  0.6065  1.9294
  131MOL   H12341983   4.595   2.349   2.962  2.8625  0.4744 -0.7523
  131MOL   H12441984   4.474   2.150   3.131 -1.6050  0.7130  1.1974
  131MOL   H12541985   4.349   2.195   3.516 -1.3542 -1.1552 -2.6083
  131MOL   H12641986   4.451   2.328   3.458 -2.3014  0.7989  0.3498
  131MOL   H12741987   4.525   2.175   3.505 -0.0596 -0.3490  0.8749
  131MOL   H12841988   4.297   2.034   3.195  0.3433  1.3927 -1.3769
  131MOL   H12941989   4.240   2.071   3.372 -1.9442  0.7087 -1.4422
  131MOL   C13041990   4.660   2.114   3.253 -0.4662  0.4499  0.0802
  131MOL   C13141991   4.761   2.202   3.335  0.7682  0.2398  0.1475
  131MOL   C13241992   4.720   2.046   3.128 -0.7726  0.0442 -0.0722
  131MOL   C13341993   4.609   1.952   3.064 -0.5174 -0.0280  0.1110
  131MOL   C13441994   4.607   1.951   2.911 -0.1669 -0.0029 -0.9691
  131MOL   C13541995   4.526   1.861   3.131  1.0971  0.4831 -0.2260
  131MOL   H13641996   4.631   2.025   3.309  2.2444 -0.4090  0.2192
  131MOL   H13741997   4.705   2.262   3.407  2.4456 -1.0225  2.5798
  131MOL   H13841998   4.803   2.275   3.267  0.2280  0.3855 -0.0364
  131MOL   H13941999   4.842   2.149   3.386 -0.2239 -2.0007 -0.5022
  131MOL   H14042000   4.726   2.125   3.053  0.3056 -1.1247 -1.2568
  131MOL   H14142001   4.532   1.888   2.863  0.5333 -0.6607 -1.2067
  131MOL   H14242002   4.703   1.917   2.871  0.5200  0.0374  0.6099
  131MOL   H14342003   4.580   2.047   2.867  4.2679  1.9843  0.3637
  131MOL   H14442004   4.519   1.844   3.237 -0.2824 -0.5385 -0.4694
  131MOL   H14542005   4.462   1.797   3.071  2.1293 -0.9289  0.1657
  131MOL   C14642006   4.863   1.975   3.137  0.7171 -0.2814  0.0840
  131MOL   C14742007   4.861   1.881   3.259 -0.1396 -0.0799 -0.4615
  131MOL   C14842008   4.992   2.061   3.129  0.0686 -0.4920  0.4828
  131MOL   C14942009   4.984   2.162   3.021 -0.0585  0.1416 -0.3058
  131MOL   C15042010   4.957   2.122   2.878  0.0642 -0.2157  0.5559
  131MOL   C15142011   4.989   2.294   3.049 -0.4444  0.1345  0.0125
  131MOL   H15242012   4.865   1.910   3.049 -0.9239 -2.2549  1.4486
  131MOL   H15342013   4.807   1.792   3.226 -0.3090 -0.0016 -0.3973
  131MOL   H15442014   4.812   1.923   3.347 -0.6617 -2.1766  0.2811
  131MOL   H15542015   4.954   1.832   3.289 -0.3079 -0.2259 -0.1672
  131MOL   H15642016   4.989   2.116   3.222  2.0639  0.1963  0.1636
  131MOL   H15742017   4.961   2.209   2.812  1.3619 -1.7656 -1.4519
  131MOL   H15842018   4.852   2.095   2.865 -0.0798 -0.0083  1.2892
  131MOL   H15942019   5.036   2.053   2.849  1.3535  0.6799  1.8653
  131MOL   H16042020   5.003   2.321   3.153  1.1187  0.2040 -0.2011
  131MOL   H16142021   4.975   2.373   2.977 -0.2959  0.2592  0.1176
  131MOL   C16242022   5.133   1.986   3.121 -0.2576 -0.0850  0.7661
  131MOL   C16342023   5.116   1.848   3.056 -0.1286 -0.1860 -0.4917
  131MOL   C16442024   5.215   1.986   3.254  0.5279 -0.7178 -0.6773
  131MOL   C16542025   5.247   2.131   3.292  0.4555  0.8879 -0.2060
  131MOL   C16642026   5.336   2.210   3.208  0.3065  1.3795 -0.1427
  131MOL   C16742027   5.187   2.195   3.388 -0.2235 -0.4462 -0.3120
  131MOL   H16842028   5.196   2.036   3.048 -0.2664  1.0040  1.4923
  131MOL   H16942029   5.074   1.866   2.957 -1.0729  1.9054  0.2633
  131MOL   H17042030   5.052   1.775   3.106  1.4352 -1.8443 -0.8688
  131MOL   H17142031   5.211   1.800   3.032  0.2423 -1.2654  2.9451
  131MOL   H17242032   5.138   1.950   3.322 -0.4848  1.8972 -0.3680
  131MOL   H17342033   5.436   2.214   3.252  0.2642  0.1896  0.0744
  131MOL   H17442034   5.303   2.313   3.195  0.8391  1.2452 -2.9883
  131MOL   H17542035   5.342   2.182   3.103 -1.4415  1.0244 -0.1600
  131MOL   H17642036   5.116   2.155   3.458 -1.6306 -0.5110 -1.7575
  131MOL   H17742037   5.204   2.300   3.406 -0.1486 -0.5243  0.0763
  131MOL   C17842038   5.338   1.890   3.255  0.1457 -0.1865 -0.3794
  131MOL   C17942039   5.309   1.740   3.260  0.2987  0.0563  0.1403
  131MOL   C18042040   5.460   1.925   3.348 -0.3463  0.0803  0.8775
  131MOL   C18142041   5.583   1.874   3.272 -0.2998 -0.4309 -0.0252
  131MOL   C18242042   5.644   1.971   3.167 -0.8234 -0.8979 -0.2197
  131MOL   C18342043   5.637   1.753   3.305  0.4790 -0.1109  0.0476
  131MOL   H18442044   5.376   1.901   3.153  1.9178 -2.5492 -0.0349
  131MOL   H18542045   5.201   1.724   3.263  0.2621 -0.2066 -1.9646
  131MOL   H18642046   5.350   1.698   3.352 -1.4917 -2.1081 -0.0077
  131MOL   H18742047   5.348   1.690   3.171 -2.2846  0.7979 -1.4496
  131MOL   H18842048   5.474   2.033   3.359 -0.4012  0.1964 -0.1520
  131MOL   H18942049   5.562   1.991   3.098  0.4766 -0.3623 -1.6281
  131MOL   H19042050   5.721   1.922   3.108 -1.4850 -0.3729 -1.5324
  131MOL   H19142051   5.687   2.060   3.212 -1.0795 -1.3133  0.8738
  131MOL   H19242052   5.595   1.677   3.370 -1.1946 -2.5331 -3.6974
  131MOL   H19342053   5.726   1.724   3.251 -0.9681  0.3664 -2.6813
  131MOL   C19442054   5.459   1.891   3.499 -0.1422  0.2267  0.3923
  131MOL   C19542055   5.316   1.888   3.548  0.0822 -0.2769 -0.2014
  131MOL   C19642056   5.545   1.987   3.588 -0.1178  0.3270  0.0971
  131MOL   C19742057   5.696   1.988   3.551 -0.2056 -0.6423  0.4878
  131MOL   C19842058   5.786   1.871   3.598  0.0446  0.3018 -0.4508
  131MOL   C19942059   5.742   2.088   3.481  0.3685 -0.0139  0.1661
  131MOL   H20042060   5.486   1.787   3.520 -3.4411 -1.1911 -1.9708
  131MOL   H20142061   5.248   1.818   3.499  0.9249  0.5852 -2.6530
  131MOL   H20242062   5.269   1.986   3.540  0.1196 -0.2667 -0.2917
  131MOL   H20342063   5.307   1.867   3.654 -3.3301  2.4230  0.1353
  131MOL   H20442064   5.511   2.087   3.562 -0.3452  1.1514  3.3786
  131MOL   H20542065   5.890   1.892   3.575  0.0514  0.0514 -0.6510
  131MOL   H20642066   5.755   1.784   3.541  0.4597 -1.1802  1.5548
  131MOL   H20742067   5.772   1.832   3.699 -1.9188  0.7357 -0.5222
  131MOL   H20842068   5.681   2.168   3.442  0.7648 -0.5572 -1.6035
  131MOL   H20942069   5.846   2.095   3.451 -0.1253  1.2768 -1.3036
  131MOL   C21042070   5.525   1.983   3.744  0.4281  0.1818 -0.2229
  131MOL   C21142071   5.525   1.841   3.801  0.0811 -0.6189 -0.0436
  131MOL   C21242072   5.414   2.088   3.790 -0.7416  0.5370 -0.2059
  131MOL   C21342073   5.445   2.230   3.752  0.4846 -0.4658 -0.7210
  131MOL   C21442074   5.324   2.319   3.726  0.0218  0.5427  0.5520
  131MOL   C21542075   5.571   2.277   3.746  0.1946 -0.5085  0.0514
  131MOL   H21642076   5.613   2.023   3.795 -0.1774 -0.7973  1.6302
  131MOL   H21742077   5.564   1.851   3.902 -1.0287  0.1124  0.3252
  131MOL   H21842078   5.590   1.775   3.745  0.8568 -1.7412  2.1102
  131MOL   H21942079   5.426   1.796   3.807 -1.3585  2.5009  0.9899
  131MOL   H22042080   5.327   2.065   3.729 -2.0509  1.8740  1.1143
  131MOL   H22142081   5.339   2.392   3.647  0.1620 -1.0754 -0.9556
  131MOL   H22242082   5.301   2.380   3.814 -0.3416  0.4582  0.5186
  131MOL   H22342083   5.230   2.268   3.702  0.0426  0.5027  0.5568
  131MOL   H22442084   5.664   2.224   3.760  1.9486  2.4086  0.0997
  131MOL   H22542085   5.594   2.378   3.715  0.0588  0.2026  2.1875
  131MOL   C22642086   5.372   2.085   3.943 -0.4016 -0.3541  0.5122
  131MOL   C22742087   5.492   2.067   4.036  0.2029  0.1189  0.1352
  131MOL   C22842088   5.239   2.005   3.969  0.5345  0.1866  0.2731
  131MOL   C22942089   5.116   2.044   3.877  0.1477 -0.6020  0.1242
  131MOL   C23042090   5.059   1.945   3.779 -0.0905 -0.2717  1.0328
  131MOL   C23142091   5.044   2.159   3.881 -0.5099  0.3866  0.6078
  131MOL   H23242092   5.345   2.187   3.970  2.0812  0.7041 -0.8373
  131MOL   H23342093   5.479   2.113   4.135  1.9281  1.2402 -0.1467
  131MOL   H23442094   5.584   2.109   3.996  0.3140 -0.0241  0.2402
  131MOL   H23542095   5.498   1.960   4.058 -0.6936  0.6589  3.3280
  131MOL   H23642096   5.257   1.906   3.930  3.4720  0.8379 -0.1261
  131MOL   H23742097   5.115   1.851   3.772 -2.0736 -1.6543  3.0750
  131MOL   H23842098   5.045   1.986   3.679  0.1914  1.1453  1.5717
  131MOL   H23942099   4.964   1.917   3.824  0.3640 -1.0466  1.5331
  131MOL   H24042100   5.070   2.245   3.940  2.2463  2.1402 -2.9925
  131MOL   H24142101   4.963   2.175   3.811 -0.8568 -1.8386  0.4545
  131MOL   C24242102   5.191   1.999   4.118  0.0404  0.5059  0.0405
  131MOL   C24342103   5.214   2.132   4.198  0.0114  0.0322 -0.0923
  131MOL   C24442104   5.248   1.871   4.188 -0.3668  0.3155 -0.2015
  131MOL   C24542105   5.234   1.740   4.115  0.0142 -0.3639  0.7916
  131MOL   C24642106   5.101   1.698   4.061  0.4352  0.2066 -0.3306
  131MOL   C24742107   5.338   1.655   4.105 -0.1723  0.5128  0.1621
  131MOL   H24842108   5.083   1.988   4.114 -0.0078  0.6282  0.9012
  131MOL   H24942109   5.317   2.141   4.232 -0.9631 -0.5440  3.2571
  131MOL   H25042110   5.141   2.133   4.279 -2.4020  0.5906 -2.1934
  131MOL   H25142111   5.188   2.217   4.134 -1.2292  0.1330  0.5261
  131MOL   H25242112   5.352   1.895   4.207 -0.4030 -0.9553  1.8138
  131MOL   H25342113   5.049   1.783   4.016 -0.0712  0.9474  1.6213
  131MOL   H25442114   5.049   1.650   4.144 -0.1394  0.8621 -0.3081
  131MOL   H25542115   5.124   1.631   3.979 -0.8362  0.4888 -0.9347
  131MOL   H25642116   5.437   1.685   4.136  0.0959 -0.1230 -0.0627
  131MOL   H25742117   5.321   1.562   4.052  1.7781 -0.5253  1.2797
  131MOL   C25842118   5.194   1.839   4.335  0.0385 -0.1552  0.2095
  131MOL   C25942119   5.038   1.877   4.342 -0.4878 -0.4044 -0.3429
  131MOL   C26042120   5.267   1.902   4.465  0.7242 -0.1294  0.1891
  131MOL   C26142121   5.416   1.911   4.448 -0.4079 -0.3751  0.2927
  131MOL   C26242122   5.492   2.029   4.494 -0.1343  0.6763 -0.0620
  131MOL   C26342123   5.484   1.805   4.396 -0.5976  0.1880  0.5620
  131MOL   H26442124   5.200   1.732   4.353 -0.1857 -0.3148 -0.6482
  131MOL   H26542125   4.964   1.840   4.270 -0.1089 -0.3289 -0.7702
  131MOL   H26642126   5.018   1.984   4.334  1.1491  0.1937  2.8660
  131MOL   H26742127   4.995   1.847   4.437  1.5836 -0.1396  0.6859
  131MOL   H26842128   5.234   2.004   4.453 -0.7732 -0.3439  2.3546
  131MOL   H26942129   5.455   2.110   4.432  0.3788  1.0970  0.1723
  131MOL   H27042130   5.599   2.023   4.473 -0.1391 -2.2630  0.4498
  131MOL   H27142131   5.483   2.046   4.602  2.0681 -1.0356  0.4439
  131MOL   H27242132   5.431   1.720   4.356 -1.9077  1.9617 -1.5651
  131MOL   H27342133   5.590   1.806   4.375 -0.6646 -1.8199  0.0678
  131MOL   C27442134   5.209   1.855   4.606 -0.1626 -0.7466  0.5371
  131MOL   C27542135   5.116   1.967   4.667 -0.6463  0.0968 -0.5887
  131MOL   C27642136   5.305   1.800   4.718  0.4012 -0.2846 -0.3852
  131MOL   C27742137   5.405   1.688   4.675  0.9697  0.4246  0.5408
  131MOL   C27842138   5.353   1.568   4.603  0.3183 -0.1277  0.0649
  131MOL   C27942139   5.535   1.709   4.693 -0.6340 -0.5889 -0.1855
  131MOL   H28042140   5.155   1.763   4.583 -0.1655 -0.4939 -0.4947
  131MOL   H28142141   5.184   2.043   4.704  0.5989 -1.0629 -0.4243
  131MOL   H28242142   5.058   1.927   4.751  1.3115  0.9930  1.2406
  131MOL   H28342143   5.048   2.001   4.589  0.7916 -1.1765 -2.4605
  131MOL   H28442144   5.357   1.893   4.739 -3.2598  1.6010  0.8166
  131MOL   H28542145   5.278   1.516   4.664  0.4472 -1.0895 -0.5908
  131MOL   H28642146   5.429   1.494   4.577  0.6278 -0.9269  3.0439
  131MOL   H28742147   5.302   1.595   4.510  0.8423  0.5114 -0.0347
  131MOL   H28842148   5.564   1.799   4.746 -2.1425 -0.8455  1.1058
  131MOL   H28942149   5.620   1.648   4.668 -1.0711 -1.1662 -0.2630
  131MOL   C29042150   5.235   1.754   4.855 -0.2940  0.1698  0.0429
  131MOL   C29142151   5.106   1.669   4.847 -0.1098  0.5602  0.4731
  131MOL   C29242152   5.223   1.862   4.971  0.0853 -0.8198 -0.4376
  131MOL   C29342153   5.356   1.951   4.994 -0.1166 -0.3161  0.4565
  131MOL   C29442154   5.345   2.100   4.991 -0.5612  0.1774  0.3311
  131MOL   C29542155   5.473   1.891   5.017  0.8913  0.4762 -0.1910
  131MOL   H29642156   5.312   1.684   4.888 -1.5698 -1.3011 -0.0350
  131MOL   H29742157   5.022   1.729   4.882  1.0232  3.7855 -2.1023
  131MOL   H29842158   5.118   1.585   4.916  2.8574  0.2634 -0.3240
  131MOL   H29942159   5.081   1.636   4.747  0.3244 -0.4209  0.6870
  131MOL   H30042160   5.153   1.933   4.928  0.4948 -1.1197 -1.6022
  131MOL   H30142161   5.272   2.141   5.060 -2.1134 -1.6620 -0.1919
  131MOL   H30242162   5.318   2.135   4.892 -0.2958 -1.5165 -0.3550
  131MOL   H30342163   5.443   2.143   5.015 -1.2524  0.0680  3.5787
  131MOL   H30442164   5.476   1.783   5.021  0.9481  0.3331 -3.1910
  131MOL   H30542165   5.567   1.942   5.029  1.5270 -0.7957  0.3221
  131MOL   C30642166   5.171   1.807   5.112 -0.5358  0.8219  1.0795
  131MOL   C30742167   5.117   1.925   5.199  0.9110 -0.1400 -0.2667
  131MOL   C30842168   5.266   1.716   5.184  0.4541  0.1803  0.2944
  131MOL   C30942169   5.214   1.643   5.308  0.4552  0.8251  0.5904
  131MOL   C31042170   5.088   1.553   5.283 -1.0197  0.1777  0.1272
  131MOL   C31142171   5.276   1.651   5.424  0.3452 -0.3442 -0.0229
  131MOL   H31242172   5.085   1.743   5.092 -1.1272  2.2947 -1.3666
  131MOL   H31342173   5.049   1.998   5.154 -2.8974 -1.9393  2.3480
  131MOL   H31442174   5.202   1.979   5.240 -0.2519 -0.4201  2.5968
  131MOL   H31542175   5.064   1.886   5.286  0.9713  1.2520  0.4114
  131MOL   H31642176   5.315   1.645   5.118  1.9780  1.7430 -0.3084
  131MOL   H31742177   5.078   1.474   5.357  2.4386  0.7294  1.2478
  131MOL   H31842178   5.111   1.497   5.193  0.2660 -0.3662  0.7868
  131MOL   H31942179   4.997   1.611   5.267 -1.3764 -0.7365 -1.2635
  131MOL   H32042180   5.369   1.706   5.429  0.2532 -0.0221 -1.6304
  131MOL   H32142181   5.221   1.595   5.499  0.4568 -0.9847 -0.4151
  131MOL   H32242182   5.351   1.781   5.206  0.7446 -0.3924  0.8781
  132MOL     C142183   5.239   5.855   6.372 -0.0759  0.4377 -0.5355
  132MOL     C242184   5.107   5.778   6.336  0.0443 -0.2027  1.0347
  132MOL     C342185   5.353   5.752   6.391  0.1504  0.8382 -0.6441
  132MOL     C442186   5.339   5.656   6.515 -0.6320 -0.1254 -0.4236
  132MOL     C542187   5.431   5.529   6.508 -0.1718  0.1338 -0.5198
  132MOL     C642188   5.249   5.668   6.618  0.4110  0.0230  0.3244
  132MOL     H742189   5.257   5.931   6.296  0.5520  1.0967  0.2711
  132MOL     H842190   5.035   5.856   6.314  0.8508  0.6365  1.3650
  132MOL     H942191   5.071   5.704   6.408 -2.6634  0.1485  0.0951
  132MOL    H1042192   5.123   5.727   6.241  1.7508  0.4740  0.9407
  132MOL    H1142193   5.342   5.687   6.305 -0.9966  0.2890 -0.0994
  132MOL    H1242194   5.398   5.442   6.564 -0.6417  0.9420  0.4638
  132MOL    H1342195   5.532   5.536   6.550 -0.1197 -0.4142 -0.5534
  132MOL    H1442196   5.444   5.490   6.407  0.2665  1.0157 -0.8086
  132MOL    H1542197   5.185   5.755   6.623 -0.6794 -0.6650 -1.1152
  132MOL    H1642198   5.241   5.588   6.691  2.0285  0.0118  0.4992
  132MOL    H1742199   5.232   5.909   6.466  2.2128 -2.0625  1.1690
  132MOL    C1842200   5.489   5.821   6.394  0.0632 -0.7446 -0.2764
  132MOL    C1942201   5.486   5.941   6.484  0.0836 -0.0308  0.0890
  132MOL    C2042202   5.563   5.857   6.256 -0.6360  0.9805 -0.1400
  132MOL    C2142203   5.460   5.905   6.146  0.6268  0.5098 -0.6470
  132MOL    C2242204   5.437   6.058   6.148  0.2254  0.2427  0.3276
  132MOL    C2342205   5.391   5.816   6.070  0.1865 -0.3919  0.4213
  132MOL    H2442206   5.558   5.764   6.456  0.3178  0.8749  0.9466
  132MOL    H2542207   5.447   5.905   6.579 -0.8865  1.2224  0.1774
  132MOL    H2642208   5.430   6.030   6.455  0.0437  0.1004  0.5610
  132MOL    H2742209   5.587   5.977   6.502  0.9347 -0.2411 -3.8668
  132MOL    H2842210   5.622   5.946   6.281  0.4040  0.5661 -1.0751
  132MOL    H2942211   5.507   6.111   6.084 -1.3521 -1.8809 -3.3650
  132MOL    H3042212   5.436   6.091   6.252  1.1655  1.2085  0.0383
  132MOL    H3142213   5.334   6.078   6.119  0.5680  0.9300 -0.4253
  132MOL    H3242214   5.401   5.710   6.090 -1.9071 -0.7440 -0.3459
  132MOL    H3342215   5.316   5.853   6.003  2.4500  2.7414 -0.5115
  132MOL    C3442216   5.667   5.751   6.196 -0.0470 -0.1138 -0.0310
  132MOL    C3542217   5.630   5.606   6.229 -0.3697  0.3839 -0.3556
  132MOL    C3642218   5.816   5.776   6.244 -0.2786 -0.6510 -0.5499
  132MOL    C3742219   5.847   5.818   6.392 -0.5821 -0.7901 -0.1868
  132MOL    C3842220   5.874   5.713   6.495 -0.5860 -0.3266 -0.3358
  132MOL    C3942221   5.845   5.947   6.431 -0.2835  0.3749  0.9395
  132MOL    H4042222   5.658   5.759   6.088 -1.1326  0.8739  0.1236
  132MOL    H4142223   5.538   5.588   6.173  0.2106  1.6679 -1.7393
  132MOL    H4242224   5.620   5.590   6.337 -0.0160  1.2016 -0.2031
  132MOL    H4342225   5.691   5.526   6.187  0.4678  0.3122  0.9528
  132MOL    H4442226   5.867   5.681   6.239  0.1177 -0.5181  0.8974
  132MOL    H4542227   5.976   5.679   6.477 -0.6062  0.9848 -3.2367
  132MOL    H4642228   5.802   5.635   6.472 -1.2661  0.5599 -1.2780
  132MOL    H4742229   5.857   5.757   6.594  3.1353  0.2664  0.0939
  132MOL    H4842230   5.815   6.024   6.361 -0.4617 -0.5901 -0.0503
  132MOL    H4942231   5.861   5.985   6.531  0.4318 -0.0747  1.0018
  132MOL    C5042232   5.898   5.866   6.137 -0.5394  0.1426 -0.1018
  132MOL    C5142233   5.812   5.977   6.080 -0.1808  0.3987 -0.0112
  132MOL    C5242234   5.987   5.792   6.038 -0.2250 -0.2763  0.5582
  132MOL    C5342235   5.899   5.700   5.946  0.2343 -0.0178 -0.2086
  132MOL    C5442236   5.854   5.766   5.818  0.4910 -0.0829  0.8322
  132MOL    C5542237   5.870   5.575   5.977  0.0753  0.3405  0.4775
  132MOL    H5642238   5.961   5.928   6.200 -0.8252 -0.4361  0.7734
  132MOL    H5742239   5.769   6.042   6.156 -0.4921  0.2110 -0.0288
  132MOL    H5842240   5.728   5.944   6.019  0.8394  1.3855 -1.9962
  132MOL    H5942241   5.869   6.047   6.018 -0.6999  0.0677 -0.8711
  132MOL    H6042242   6.024   5.862   5.963 -0.1982 -1.8529 -0.9325
  132MOL    H6142243   5.829   5.870   5.837 -0.9555 -0.1682 -0.5272
  132MOL    H6242244   5.775   5.707   5.772  0.4460 -0.5288  1.4760
  132MOL    H6342245   5.942   5.775   5.753 -0.3280  0.9367 -0.1554
  132MOL    H6442246   5.887   5.543   6.079 -0.9007 -2.1613 -0.1150
  132MOL    H6542247   5.824   5.511   5.903  1.7279 -1.6829  1.1300
  132MOL    C6642248   6.122   5.735   6.094  0.0799 -0.3431 -1.0196
  132MOL    C6742249   6.223   5.850   6.139 -0.3256  0.1397  0.7909
  132MOL    C6842250   6.192   5.606   6.022 -0.4953  0.3423 -0.2701
  132MOL    C6942251   6.230   5.497   6.122  0.3707  0.2466 -0.8004
  132MOL    C7042252   6.354   5.519   6.209 -0.0324 -0.6528 -0.1112
  132MOL    C7142253   6.167   5.382   6.124  0.2925 -0.0174 -0.1434
  132MOL    H7242254   6.091   5.696   6.192  0.1935  1.4389 -0.2522
  132MOL    H7342255   6.314   5.817   6.189 -0.1402  1.8362  1.6285
  132MOL    H7442256   6.187   5.919   6.215  0.0880 -0.0399  1.1524
  132MOL    H7542257   6.261   5.917   6.061 -1.8606  2.0497  1.6654
  132MOL    H7642258   6.116   5.556   5.961  0.7573  0.5115 -2.0005
  132MOL    H7742259   6.344   5.612   6.265 -0.4049 -1.3053  0.9157
  132MOL    H7842260   6.443   5.532   6.148 -0.2586  2.1849  0.0704
  132MOL    H7942261   6.369   5.440   6.282  0.4163 -0.6074 -0.1530
  132MOL    H8042262   6.104   5.354   6.041 -0.1844  1.2476 -0.2085
  132MOL    H8142263   6.186   5.311   6.203 -0.3199 -1.0809 -0.9364
  132MOL    C8242264   6.299   5.643   5.918 -0.2688  0.0298 -0.1291
  132MOL    C8342265   6.263   5.757   5.819  0.5272 -0.4127  0.0988
  132MOL    C8442266   6.365   5.513   5.844  0.2141 -0.4577  1.0286
  132MOL    C8542267   6.514   5.550   5.823 -0.1491  0.0619 -0.0506
  132MOL    C8642268   6.562   5.651   5.721 -0.5708 -0.9570  0.1699
  132MOL    C8742269   6.610   5.500   5.911  0.1390  0.0222  0.4936
  132MOL    H8842270   6.380   5.684   5.977  1.3470 -0.2007 -2.1220
  132MOL    H8942271   6.350   5.796   5.766  1.5902  1.5360  3.1587
  132MOL    H9042272   6.210   5.837   5.870  2.0359  0.7592 -0.1116
  132MOL    H9142273   6.201   5.716   5.739 -1.0047 -0.2599  1.1981
  132MOL    H9242274   6.362   5.436   5.921 -0.0217 -1.6864 -0.2026
  132MOL    H9342275   6.503   5.641   5.630 -0.3489  0.7408 -0.1877
  132MOL    H9442276   6.665   5.639   5.688 -0.5429  2.2367 -1.0878
  132MOL    H9542277   6.548   5.750   5.766  1.4465 -0.7152  0.3267
  132MOL    H9642278   6.583   5.433   5.991  0.4295  0.6051  1.0872
  132MOL    H9742279   6.713   5.531   5.905 -0.3196  1.7184  1.0209
  132MOL    C9842280   6.307   5.455   5.711  0.9968 -0.0998  0.1577
  132MOL    C9942281   6.156   5.430   5.728  0.1996  0.1498 -0.4960
  132MOL   C10042282   6.392   5.348   5.629 -0.3748 -0.0098  0.1553
  132MOL   C10142283   6.341   5.330   5.485 -0.1134 -0.0411 -0.3509
  132MOL   C10242284   6.227   5.241   5.464 -0.0577  0.7463 -0.1466
  132MOL   C10342285   6.392   5.385   5.385 -0.3065 -0.0453  0.3287
  132MOL   H10442286   6.298   5.539   5.641  1.2432  1.7443  2.3039
  132MOL   H10542287   6.134   5.359   5.807  0.5527 -1.6223 -1.9557
  132MOL   H10642288   6.097   5.395   5.643 -1.8929  1.2749  0.4628
  132MOL   H10742289   6.096   5.519   5.748 -0.3902 -0.1709 -0.8353
  132MOL   H10842290   6.485   5.405   5.618 -0.9202  0.4639 -2.2656
  132MOL   H10942291   6.189   5.197   5.556 -0.2461 -2.6873 -1.7904
  132MOL   H11042292   6.239   5.160   5.392 -2.4028  0.7991 -0.6303
  132MOL   H11142293   6.143   5.296   5.422 -1.3292 -0.5270  0.6952
  132MOL   H11242294   6.479   5.447   5.397  0.0611 -0.5426  0.2448
  132MOL   H11342295   6.347   5.366   5.288 -0.3543 -1.7083  0.6651
  132MOL   C11442296   6.446   5.210   5.690 -0.0972 -0.4680 -0.6221
  132MOL   C11542297   6.403   5.180   5.830  0.1040 -0.0641  0.2722
  132MOL   C11642298   6.592   5.179   5.664  0.7202 -1.0214  0.0013
  132MOL   C11742299   6.642   5.226   5.526 -0.3520  0.6512  0.1329
  132MOL   C11842300   6.620   5.139   5.402 -0.5574  0.7470 -0.0146
  132MOL   C11942301   6.713   5.337   5.505  0.5212  0.4707 -0.6417
  132MOL   H12042302   6.398   5.129   5.634 -2.1235  0.0767  0.3183
  132MOL   H12142303   6.407   5.071   5.837 -0.0239 -0.1399 -0.7317
  132MOL   H12242304   6.306   5.222   5.857  0.5960 -0.1225  2.1733
  132MOL   H12342305   6.479   5.212   5.901  0.5098  2.2473 -1.1481
  132MOL   H12442306   6.644   5.254   5.724  1.2667 -0.6475 -0.9065
  132MOL   H12542307   6.515   5.128   5.374 -0.7256  0.4808  0.7166
  132MOL   H12642308   6.654   5.037   5.419 -0.0721  0.5721 -1.8636
  132MOL   H12742309   6.672   5.189   5.320 -1.8626  2.0668 -0.0752
  132MOL   H12842310   6.751   5.393   5.589  1.7116 -1.1969 -0.0369
  132MOL   H12942311   6.736   5.376   5.408 -0.1399  1.6490 -0.3290
  132MOL   C13042312   6.649   5.039   5.698 -0.2847 -0.2368 -0.0967
  132MOL   C13142313   6.557   4.919   5.660 -0.2446  0.4165 -0.3106
  132MOL   C13242314   6.721   5.036   5.840  0.4615  0.6423  0.0733
  132MOL   C13342315   6.824   5.155   5.863  0.1899 -0.4769  0.4701
  132MOL   C13442316   6.817   5.215   6.002 -0.0663  0.5292  0.1072
  132MOL   C13542317   6.905   5.196   5.768 -0.4299  0.2019 -0.9134
  132MOL   H13642318   6.736   5.041   5.632  0.3321 -0.7287  0.6957
  132MOL   H13742319   6.473   4.910   5.729 -0.7096 -1.4661 -1.0817
  132MOL   H13842320   6.617   4.828   5.651 -1.1912 -0.1898 -0.5873
  132MOL   H13942321   6.501   4.928   5.567  1.5365  0.2483 -1.4356
  132MOL   H14042322   6.638   5.066   5.904  1.2674 -1.7744  2.3747
  132MOL   H14142323   6.849   5.146   6.080  0.7364  1.2774  0.4423
  132MOL   H14242324   6.722   5.259   6.031 -0.6078 -1.1184  0.8534
  132MOL   H14342325   6.882   5.302   6.006 -0.5942  0.8871  0.8318
  132MOL   H14442326   6.906   5.149   5.671  0.6976 -1.0579 -0.3134
  132MOL   H14542327   6.969   5.283   5.773  0.8289 -0.8097  1.3042
  132MOL   C14642328   6.794   4.906   5.894  0.3603  0.0642  0.4770
  132MOL   C14742329   6.891   4.852   5.788  0.1825  0.1684  0.2045
  132MOL   C14842330   6.704   4.793   5.948  0.0230 -0.3097 -0.0323
  132MOL   C14942331   6.589   4.841   6.043 -0.1066 -1.0988 -0.9144
  132MOL   C15042332   6.455   4.764   6.025 -0.2713  0.1848 -0.4871
  132MOL   C15142333   6.595   4.939   6.134  0.3880  0.3040 -0.2117
  132MOL   H15242334   6.857   4.946   5.973  0.0646  0.2438  0.6221
  132MOL   H15342335   6.961   4.775   5.821  0.2459  0.5979  1.0884
  132MOL   H15442336   6.949   4.932   5.742 -0.5406  0.6323  0.1009
  132MOL   H15542337   6.832   4.819   5.702  0.3371  1.2077 -0.3085
  132MOL   H15642338   6.655   4.752   5.859  1.7782 -4.7147  0.9122
  132MOL   H15742339   6.381   4.837   6.058 -1.0429 -0.5895 -0.4862
  132MOL   H15842340   6.450   4.672   6.083 -0.9419 -0.3904 -1.4358
  132MOL   H15942341   6.436   4.747   5.919  1.3987 -1.0672 -0.5957
  132MOL   H16042342   6.690   4.989   6.140  0.4364  0.1481  0.3371
  132MOL   H16142343   6.505   4.957   6.191 -1.2461  0.4447 -2.7595
  132MOL   C16242344   6.764   4.665   6.019  0.3328 -0.3461  0.1668
  132MOL   C16342345   6.872   4.704   6.110 -0.0977  0.2018  0.6964
  132MOL   C16442346   6.810   4.541   5.927  0.0324 -0.3036 -0.1985
  132MOL   C16542347   6.712   4.511   5.814 -0.1308 -0.0637  0.1552
  132MOL   C16642348   6.571   4.456   5.846 -0.5665  0.0736  1.0324
  132MOL   C16742349   6.748   4.534   5.685  0.0821  0.6084  0.1767
  132MOL   H16842350   6.689   4.617   6.082  0.6384 -0.1065  0.7101
  132MOL   H16942351   6.911   4.615   6.161 -1.5165 -0.7095  0.2219
  132MOL   H17042352   6.836   4.775   6.184  1.4787  1.7907 -0.0259
  132MOL   H17142353   6.961   4.743   6.061 -0.8841 -0.4823 -1.3341
  132MOL   H17242354   6.898   4.570   5.869 -0.6922  0.9172 -0.7178
  132MOL   H17342355   6.511   4.512   5.918 -3.7917 -1.7087 -0.1599
  132MOL   H17442356   6.587   4.363   5.899  0.3266 -1.7332 -2.2856
  132MOL   H17542357   6.518   4.429   5.755  1.5484 -1.7595  0.3203
  132MOL   H17642358   6.842   4.577   5.655  0.2329  1.1315  1.3968
  132MOL   H17742359   6.682   4.512   5.602 -0.9116  0.8984  0.8854
  132MOL   C17842360   6.862   4.408   5.990 -0.1042  0.1150 -0.0607
  132MOL   C17942361   6.779   4.362   6.119  0.0848  0.3489 -0.0337
  132MOL   C18042362   7.022   4.396   5.990 -0.9540  1.1112 -0.3695
  132MOL   C18142363   7.086   4.403   5.854 -0.0512 -0.0030 -0.0107
  132MOL   C18242364   7.227   4.469   5.855 -0.0301 -0.2896  0.5517
  132MOL   C18342365   7.025   4.370   5.736 -0.5768  0.6291 -0.2032
  132MOL   H18442366   6.829   4.331   5.921 -0.5449 -0.3870  0.6996
  132MOL   H18542367   6.670   4.367   6.109  0.3534  2.1131 -2.9152
  132MOL   H18642368   6.809   4.421   6.205 -2.9167  0.4854  0.9736
  132MOL   H18742369   6.804   4.260   6.145  0.7971  0.7490  0.8767
  132MOL   H18842370   7.069   4.483   6.036 -0.2554 -0.0507  1.1857
  132MOL   H18942371   7.312   4.437   5.915  0.7084  0.8287  0.1050
  132MOL   H19042372   7.228   4.572   5.888  1.3812  0.3372 -1.3668
  132MOL   H19142373   7.252   4.468   5.749 -3.3673  0.4507 -0.3172
  132MOL   H19242374   6.923   4.337   5.743 -0.4162  0.0017 -0.7991
  132MOL   H19342375   7.064   4.370   5.636 -0.1664  0.7310 -0.0473
  132MOL   C19442376   7.078   4.275   6.072  0.1900  0.8686 -0.2201
  132MOL   C19542377   7.034   4.142   6.020 -0.4648 -0.4201 -0.3815
  132MOL   C19642378   7.076   4.275   6.228  0.2389  0.0356  0.5191
  132MOL   C19742379   7.150   4.396   6.287 -0.3650 -0.0122 -0.1285
  132MOL   C19842380   7.072   4.453   6.403  0.4081  0.4152 -0.0721
  132MOL   C19942381   7.262   4.458   6.241  0.1422  0.0356  0.1996
  132MOL   H20042382   7.184   4.264   6.045 -0.1186 -2.5456 -0.3017
  132MOL   H20142383   7.103   4.065   6.054  0.3047 -0.3372 -1.7375
  132MOL   H20242384   7.035   4.141   5.911 -0.9561  0.8997 -0.4090
  132MOL   H20342385   6.930   4.124   6.048 -0.4665 -2.0536 -1.3330
  132MOL   H20442386   6.970   4.287   6.251  0.0883  3.1581 -1.4470
  132MOL   H20542387   7.081   4.561   6.411 -2.1934  0.5723  1.3054
  132MOL   H20642388   7.117   4.417   6.496  0.7138  1.8449  0.3361
  132MOL   H20742389   6.966   4.426   6.399  0.5561  0.0901 -2.3301
  132MOL   H20842390   7.317   4.428   6.153  0.0504  0.7504 -0.1089
  132MOL   H20942391   7.310   4.544   6.286  2.0232 -1.4864  1.1829
  132MOL   C21042392   7.131   4.148   6.301  0.5566  0.0378 -0.1121
  132MOL   C21142393   7.281   4.119   6.274 -0.5763 -0.7607 -0.1185
  132MOL   C21242394   7.037   4.020   6.328  0.2420  0.1757 -0.1022
  132MOL   C21342395   6.888   4.051   6.342  0.0315  0.5978 -0.0733
  132MOL   C21442396   6.791   3.966   6.255 -0.7325 -0.2329 -0.4314
  132MOL   C21542397   6.843   4.136   6.437 -0.0556  0.1127 -0.0025
  132MOL   H21642398   7.134   4.195   6.400  1.9391  0.1564 -0.1928
  132MOL   H21742399   7.344   4.203   6.303  0.4742 -1.5870  0.0167
  132MOL   H21842400   7.292   4.086   6.171  1.6131  0.3250 -0.2747
  132MOL   H21942401   7.326   4.043   6.338  1.6316  0.4417 -0.1703
  132MOL   H22042402   7.039   3.956   6.240  1.6316 -1.1598  0.8754
  132MOL   H22142403   6.801   3.863   6.290  2.1042  0.0081 -0.3568
  132MOL   H22242404   6.820   3.965   6.150  0.9867  1.8035 -0.0114
  132MOL   H22342405   6.688   4.001   6.261 -1.2236 -0.7248 -4.5665
  132MOL   H22442406   6.906   4.193   6.503  0.4554  0.0212 -0.4162
  132MOL   H22542407   6.735   4.149   6.439 -0.0705 -0.0027 -0.0764
  132MOL   C22642408   7.091   3.923   6.447  0.2183 -0.3382  0.1541
  132MOL   C22742409   7.129   3.997   6.580 -0.3303 -0.6642  0.3390
  132MOL   C22842410   7.191   3.802   6.413  0.3208  0.1008  0.3857
  132MOL   C22942411   7.172   3.743   6.268 -0.8349 -0.4828  0.2580
  132MOL   C23042412   7.301   3.737   6.190  0.6221  0.2986 -0.2440
  132MOL   C23142413   7.057   3.695   6.219  0.5452  0.0561 -0.2384
  132MOL   H23242414   6.999   3.878   6.484 -0.4344  0.2682 -0.6933
  132MOL   H23342415   7.077   4.092   6.569 -0.0741 -0.6284 -0.5834
  132MOL   H23442416   7.235   4.023   6.590 -0.1722 -0.7985 -0.9023
  132MOL   H23542417   7.094   3.946   6.670 -0.4519  0.2305  0.7997
  132MOL   H23642418   7.288   3.852   6.407  0.0579  0.5315 -0.3832
  132MOL   H23742419   7.302   3.826   6.127  0.6969  0.7727  0.4220
  132MOL   H23842420   7.307   3.646   6.131  0.9583 -0.9622  1.6824
  132MOL   H23942421   7.395   3.719   6.242  0.6695 -0.3170 -0.5409
  132MOL   H24042422   6.964   3.702   6.274  0.6910  1.1824 -0.1201
  132MOL   H24142423   7.059   3.642   6.125 -2.4168 -1.6885  0.6323
  132MOL   C24242424   7.202   3.685   6.525  0.0468  0.0929  0.4823
  132MOL   C24342425   7.067   3.655   6.595  0.5543 -0.1671  0.1825
  132MOL   C24442426   7.317   3.713   6.624 -0.1049  0.3812 -0.0726
  132MOL   C24542427   7.452   3.714   6.553  0.1211  1.2248  0.2584
  132MOL   C24642428   7.518   3.584   6.510 -0.7708 -0.1784 -0.0574
  132MOL   C24742429   7.521   3.825   6.512 -0.2035  0.1764  0.2412
  132MOL   H24842430   7.229   3.585   6.490 -2.1310 -0.2892 -0.1886
  132MOL   H24942431   7.034   3.741   6.654 -0.3920 -0.7688  0.5329
  132MOL   H25042432   7.066   3.564   6.656 -0.8499 -0.2121  0.1011
  132MOL   H25142433   6.992   3.627   6.521  0.1198 -1.7772  1.2062
  132MOL   H25242434   7.288   3.816   6.644 -0.1246  0.6218 -1.2860
  132MOL   H25342435   7.436   3.526   6.466 -2.1045  0.0890  1.9841
  132MOL   H25442436   7.561   3.521   6.587  1.5822  1.7975  0.3049
  132MOL   H25542437   7.590   3.597   6.429 -0.7156  1.4764  0.2373
  132MOL   H25642438   7.474   3.921   6.529 -1.0942  0.2742 -2.4834
  132MOL   H25742439   7.611   3.813   6.455 -1.2400  1.0357 -1.6367
  132MOL   C25842440   7.327   3.631   6.755 -0.6885 -0.0044 -0.2191
  132MOL   C25942441   7.321   3.480   6.742 -0.0237 -0.7660 -0.5838
  132MOL   C26042442   7.260   3.681   6.886 -0.4602 -0.0721  0.4332
  132MOL   C26142443   7.287   3.828   6.904  0.0116 -0.9288  0.1520
  132MOL   C26242444   7.158   3.905   6.951 -0.1038  0.3181  0.9567
  132MOL   C26342445   7.399   3.891   6.869  0.0435 -0.0986 -0.1442
  132MOL   H26442446   7.432   3.644   6.780  0.2738 -1.5385 -3.1672
  132MOL   H26542447   7.221   3.443   6.763 -1.9586  2.9191 -2.8234
  132MOL   H26642448   7.387   3.425   6.808 -1.1554 -3.1094 -1.3602
  132MOL   H26742449   7.330   3.446   6.639  3.2827  0.6684 -0.8391
  132MOL   H26842450   7.152   3.668   6.878 -0.6352  2.3504 -2.3004
  132MOL   H26942451   7.176   4.012   6.955  0.2328  0.3316 -0.7815
  132MOL   H27042452   7.135   3.870   7.052 -3.3786  0.2294  0.2179
  132MOL   H27142453   7.073   3.887   6.885  0.6990 -1.4791  0.3820
  132MOL   H27242454   7.481   3.835   6.827  0.1775 -0.7089  0.9216
  132MOL   H27342455   7.393   3.997   6.887 -2.5988 -0.2970  0.3361
  132MOL   C27442456   7.314   3.617   7.026  0.6083 -0.0150  0.2761
  132MOL   C27542457   7.467   3.588   7.029 -0.1278  0.7025 -0.2880
  132MOL   C27642458   7.239   3.487   7.076 -0.3428 -0.5031  0.6869
  132MOL   C27742459   7.085   3.497   7.064 -0.1193  0.3885 -1.0388
  132MOL   C27842460   7.015   3.600   7.159 -0.5808  0.5416 -0.3635
  132MOL   C27942461   7.009   3.429   6.980 -0.7647 -0.1567 -0.2064
  132MOL   H28042462   7.299   3.692   7.104  0.7048 -0.6494  0.9122
  132MOL   H28142463   7.533   3.657   6.976 -1.9190  2.2529 -0.5602
  132MOL   H28242464   7.484   3.488   6.989  2.4057  1.2221 -0.6008
  132MOL   H28342465   7.506   3.583   7.130 -0.0570 -3.3460 -0.4461
  132MOL   H28442466   7.255   3.411   7.000  0.5684 -0.7377  1.1096
  132MOL   H28542467   6.908   3.595   7.141 -1.0995 -2.1073  3.0643
  132MOL   H28642468   7.059   3.698   7.138  0.8410 -0.0319 -0.1250
  132MOL   H28742469   7.025   3.564   7.261 -3.1163 -1.2152 -0.6716
  132MOL   H28842470   7.053   3.359   6.910  1.2479  2.0520 -1.2586
  132MOL   H28942471   6.906   3.456   6.965 -1.0019 -0.2034  1.3284
  132MOL   C29042472   7.279   3.437   7.216 -0.1343 -0.1580 -0.1803
  132MOL   C29142473   7.301   3.537   7.323 -0.4856 -0.1974 -0.2490
  132MOL   C29242474   7.379   3.314   7.222 -0.1071 -0.1596 -0.1831
  132MOL   C29342475   7.360   3.221   7.096  0.2471  0.6408 -0.2364
  132MOL   C29442476   7.483   3.188   7.020  0.3947  0.3282 -0.7777
  132MOL   C29542477   7.239   3.170   7.066  0.0809  0.3173  0.3183
  132MOL   H29642478   7.187   3.388   7.248 -0.5889  1.4247  0.9583
  132MOL   H29742479   7.283   3.497   7.423 -0.2618 -1.4779 -0.7121
  132MOL   H29842480   7.240   3.627   7.314  0.0091  0.1803  0.1731
  132MOL   H29942481   7.406   3.563   7.319 -0.8580  1.1791 -1.3822
  132MOL   H30042482   7.474   3.356   7.190  0.7389 -2.9146 -1.4504
  132MOL   H30142483   7.462   3.137   6.926  0.0046  0.1282 -0.5833
  132MOL   H30242484   7.544   3.130   7.089 -0.3812  1.2843  0.7363
  132MOL   H30342485   7.538   3.281   7.010  3.0052 -1.0264  0.5866
  132MOL   H30442486   7.154   3.200   7.128  0.2730  0.5726  0.4625
  132MOL   H30542487   7.218   3.099   6.988  1.5587 -0.7835  0.9044
  132MOL   C30642488   7.394   3.239   7.363  0.1202 -0.5252  0.7144
  132MOL   C30742489   7.525   3.160   7.382 -0.0817  0.9378  0.3637
  132MOL   C30842490   7.273   3.149   7.392 -0.3658 -0.0202  0.2525
  132MOL   C30942491   7.256   3.126   7.541  0.2177  0.1140 -0.6686
  132MOL   C31042492   7.170   3.231   7.622  1.0110  0.0668  0.0648
  132MOL   C31142493   7.302   3.013   7.608 -0.2049 -0.5143  0.3838
  132MOL   H31242494   7.388   3.317   7.440 -0.0978 -1.2186  1.4093
  132MOL   H31342495   7.616   3.209   7.348  0.3730  0.0807  0.3432
  132MOL   H31442496   7.529   3.058   7.345 -1.5189  1.9955 -2.9483
  132MOL   H31542497   7.548   3.162   7.488 -3.0686 -2.5364  1.2025
  132MOL   H31642498   7.185   3.201   7.354  0.1466  1.5040  1.1131
  132MOL   H31742499   7.146   3.206   7.725 -0.4877  0.3701 -0.1941
  132MOL   H31842500   7.071   3.243   7.579  1.3550  1.4553 -0.3741
  132MOL   H31942501   7.217   3.329   7.614  1.0754 -0.0661 -1.3025
  132MOL   H32042502   7.361   2.935   7.561  0.4254  0.7354 -0.9383
  132MOL   H32142503   7.274   3.004   7.712  1.0765 -2.4427  0.5893
  132MOL   H32242504   7.282   3.054   7.339 -1.5702 -0.3731  0.6658
  133MOL     C142505   5.812   7.420   4.338  0.4986 -0.0800 -0.2417
  133MOL     C242506   5.909   7.536   4.353  0.1323 -0.2241 -0.4431
  133MOL     C342507   5.753   7.407   4.202  0.0178 -0.4275  0.2426
  133MOL     C442508   5.661   7.527   4.162 -0.3629 -0.7180  0.5105
  133MOL     C542509   5.648   7.551   4.016 -0.4224  0.2508  0.0935
  133MOL     C642510   5.587   7.608   4.240  0.3799  0.3769 -0.4793
  133MOL     H742511   5.865   7.333   4.375  0.9836  0.1133 -0.4829
  133MOL     H842512   5.939   7.539   4.458 -0.6119  0.5850 -0.2472
  133MOL     H942513   5.858   7.628   4.327  1.9475  0.6257 -1.0987
  133MOL    H1042514   6.000   7.523   4.294  0.9697  0.6406  0.6218
  133MOL    H1142515   5.834   7.422   4.131  0.5335  0.6108  1.0355
  133MOL    H1242516   5.671   7.654   3.990  0.1680  0.3454  0.9873
  133MOL    H1342517   5.543   7.531   3.991 -0.8002  2.0140  0.2050
  133MOL    H1442518   5.700   7.494   3.939 -1.2947  1.0761 -1.1253
  133MOL    H1542519   5.584   7.588   4.347 -0.1715  1.5147 -0.2736
  133MOL    H1642520   5.531   7.690   4.199  0.7247  1.6243  1.4666
  133MOL    H1742521   5.730   7.437   4.408  0.8220 -0.9472  0.3539
  133MOL    C1842522   5.681   7.271   4.173  0.7154  0.3941  0.2428
  133MOL    C1942523   5.593   7.242   4.292 -0.5244  0.2750  0.3726
  133MOL    C2042524   5.780   7.156   4.130 -0.3576  0.8946 -0.6455
  133MOL    C2142525   5.888   7.195   4.024 -0.0403  0.6596 -0.1697
  133MOL    C2242526   5.848   7.208   3.872 -0.0320  0.2822  0.4043
  133MOL    C2342527   6.014   7.219   4.054  0.9448 -0.3607  0.3273
  133MOL    H2442528   5.624   7.293   4.082  1.1057 -2.1833 -0.6710
  133MOL    H2542529   5.535   7.328   4.324 -0.5550  0.8582 -1.1996
  133MOL    H2642530   5.662   7.227   4.375 -0.4250  1.2272  0.4712
  133MOL    H2742531   5.529   7.155   4.277 -0.1193  0.3457 -1.8936
  133MOL    H2842532   5.836   7.150   4.223 -0.3398  2.8403 -0.5125
  133MOL    H2942533   5.757   7.267   3.871 -0.5876 -0.5487  1.1804
  133MOL    H3042534   5.836   7.103   3.844  2.7396 -0.1138  0.5509
  133MOL    H3142535   5.922   7.255   3.806  2.5858 -4.1729 -0.1220
  133MOL    H3242536   6.042   7.218   4.158 -0.9970 -0.8275  0.8692
  133MOL    H3342537   6.085   7.239   3.975  1.7859 -2.1200  0.6275
  133MOL    C3442538   5.719   7.018   4.088 -0.6177  0.6381  0.1496
  133MOL    C3542539   5.585   7.023   4.003 -0.2991 -0.3598 -0.9487
  133MOL    C3642540   5.712   6.919   4.211 -0.3128 -0.4559 -0.0335
  133MOL    C3742541   5.821   6.935   4.325  0.2494  0.2558 -0.3575
  133MOL    C3842542   5.971   6.904   4.293 -0.1667 -0.5548 -0.4981
  133MOL    C3942543   5.787   6.970   4.452  0.3556 -0.3853 -0.1699
  133MOL    H4042544   5.796   6.981   4.020 -0.7847  0.3189  0.1345
  133MOL    H4142545   5.602   7.093   3.921  1.0272  0.6244  0.1331
  133MOL    H4242546   5.505   7.065   4.064 -0.6095  1.2460 -2.4243
  133MOL    H4342547   5.562   6.924   3.964 -0.7164 -0.8030  0.3825
  133MOL    H4442548   5.623   6.954   4.263 -0.2843 -0.3123 -0.0815
  133MOL    H4542549   6.007   6.804   4.317 -0.2649 -1.1592 -2.7061
  133MOL    H4642550   6.026   6.976   4.354 -0.1493 -1.5347  0.6447
  133MOL    H4742551   5.988   6.919   4.186 -1.5808  0.2301 -0.6260
  133MOL    H4842552   5.684   6.996   4.474  0.8703  2.1735 -0.5729
  133MOL    H4942553   5.868   6.969   4.524 -1.0159 -1.9357  1.4032
  133MOL    C5042554   5.682   6.763   4.184 -0.7688 -0.0226 -0.2210
  133MOL    C5142555   5.759   6.718   4.062  0.0586  1.0881 -0.1201
  133MOL    C5242556   5.526   6.731   4.190  0.4872 -0.4121 -0.4356
  133MOL    C5342557   5.468   6.732   4.334 -0.4785  0.1571 -0.2464
  133MOL    C5442558   5.387   6.849   4.372 -0.2224 -0.1797  0.0661
  133MOL    C5542559   5.464   6.626   4.418 -0.3311 -0.2149 -1.0992
  133MOL    H5642560   5.724   6.707   4.268  0.0929  2.3860  0.9874
  133MOL    H5742561   5.859   6.756   4.085 -0.0761  0.4458  1.5970
  133MOL    H5842562   5.730   6.770   3.970 -4.2679 -1.5821 -0.3991
  133MOL    H5942563   5.774   6.611   4.053  1.1577  0.9023  3.2986
  133MOL    H6042564   5.488   6.813   4.130  0.8473 -0.3303 -0.5517
  133MOL    H6142565   5.387   6.871   4.479 -3.8365  1.5844 -0.2219
  133MOL    H6242566   5.285   6.857   4.333 -0.0305  0.0855 -0.3833
  133MOL    H6342567   5.438   6.939   4.338  1.3829 -1.4702 -1.0039
  133MOL    H6442568   5.517   6.536   4.391  0.2528 -0.1608 -0.1687
  133MOL    H6542569   5.407   6.632   4.510 -0.6331  1.0018 -1.3618
  133MOL    C6642570   5.483   6.604   4.113  0.4589  1.3289  0.2023
  133MOL    C6742571   5.573   6.477   4.134 -0.4932  0.7291  0.1314
  133MOL    C6842572   5.444   6.636   3.960  0.1096 -0.4951 -0.5760
  133MOL    C6942573   5.342   6.748   3.952  0.2294 -0.4085 -0.4245
  133MOL    C7042574   5.330   6.825   3.826 -0.6052  0.5171 -0.1638
  133MOL    C7142575   5.250   6.781   4.040 -0.6371 -0.0376  0.1389
  133MOL    H7242576   5.395   6.558   4.158 -0.1555 -0.0162 -2.2745
  133MOL    H7342577   5.511   6.388   4.146  1.5989 -1.1978 -2.7206
  133MOL    H7442578   5.640   6.493   4.218 -2.1179  0.3769  1.5189
  133MOL    H7542579   5.626   6.458   4.041 -0.6726  1.1259 -0.0530
  133MOL    H7642580   5.530   6.687   3.918 -0.4602  0.2930 -0.7892
  133MOL    H7742581   5.330   6.760   3.738  0.1172 -0.6090  0.6756
  133MOL    H7842582   5.409   6.898   3.809 -0.8439  0.6744 -0.6097
  133MOL    H7942583   5.233   6.876   3.821 -0.4627  0.8710  0.7035
  133MOL    H8042584   5.235   6.716   4.126 -0.3172 -1.4286 -0.8346
  133MOL    H8142585   5.187   6.867   4.022 -0.7352 -0.2165 -0.3676
  133MOL    C8242586   5.405   6.520   3.863 -0.2786 -0.0961  0.2558
  133MOL    C8342587   5.502   6.532   3.735 -0.9159  0.4020  0.9871
  133MOL    C8442588   5.256   6.486   3.821  0.2158  0.3207 -0.1760
  133MOL    C8542589   5.170   6.455   3.950  0.0768  0.2016 -0.3542
  133MOL    C8642590   5.033   6.524   3.966 -0.5665 -0.8141 -0.2845
  133MOL    C8742591   5.199   6.362   4.044 -0.1657  0.5758  0.2832
  133MOL    H8842592   5.446   6.430   3.909 -1.1437 -1.0808 -0.9127
  133MOL    H8942593   5.489   6.452   3.663  0.2577  0.5568  0.6050
  133MOL    H9042594   5.608   6.526   3.758 -0.5677 -0.1373 -0.7572
  133MOL    H9142595   5.473   6.626   3.688  1.3176  0.4132 -0.4105
  133MOL    H9242596   5.219   6.584   3.791  2.1880  1.1169 -0.0805
  133MOL    H9342597   4.985   6.492   4.058 -0.3290  0.8741  0.4449
  133MOL    H9442598   4.964   6.503   3.884  0.7897  1.6124 -2.1429
  133MOL    H9542599   5.039   6.633   3.956 -3.4792 -0.7422 -1.8811
  133MOL    H9642600   5.288   6.302   4.045 -0.1127  0.6248 -1.2350
  133MOL    H9742601   5.132   6.345   4.127 -1.1762 -1.8959 -0.9845
  133MOL    C9842602   5.224   6.384   3.712 -0.5423  0.1829  0.2886
  133MOL    C9942603   5.308   6.248   3.739 -0.4001  0.5655  0.2971
  133MOL   C10042604   5.226   6.427   3.560 -0.1113  0.0158  0.7546
  133MOL   C10142605   5.180   6.575   3.534 -0.0687 -0.1827 -0.1084
  133MOL   C10242606   5.037   6.603   3.572  0.3295 -0.0902  0.7206
  133MOL   C10342607   5.261   6.666   3.476 -0.2079  0.0982 -0.2972
  133MOL   H10442608   5.120   6.352   3.704  0.2731 -2.1186 -1.9339
  133MOL   H10542609   5.251   6.156   3.727  1.2151 -0.6683  1.7605
  133MOL   H10642610   5.349   6.249   3.840 -2.3760 -0.3815  1.1431
  133MOL   H10742611   5.399   6.233   3.681  0.2860  0.1975  1.4584
  133MOL   H10842612   5.332   6.434   3.534 -0.5806  3.6151 -0.4758
  133MOL   H10942613   4.966   6.547   3.510  1.6163 -0.4579 -0.4560
  133MOL   H11042614   5.015   6.706   3.542 -3.0033 -0.6661  1.0144
  133MOL   H11142615   5.004   6.588   3.675 -0.5080 -0.9151  0.3494
  133MOL   H11242616   5.360   6.652   3.435 -0.7030 -0.4642 -1.3118
  133MOL   H11342617   5.226   6.769   3.477  4.2445  1.7363 -0.8147
  133MOL   C11442618   5.149   6.330   3.457  0.0693 -0.4978 -0.2190
  133MOL   C11542619   5.142   6.180   3.486 -0.8750 -0.0606 -0.8134
  133MOL   C11642620   5.189   6.366   3.304 -0.1099 -0.3442 -0.0365
  133MOL   C11742621   5.059   6.383   3.221  0.2426 -0.0153  0.2505
  133MOL   C11842622   5.029   6.518   3.181  0.0172 -0.5708  0.0909
  133MOL   C11942623   4.971   6.283   3.204 -0.0482  0.6193 -0.7331
  133MOL   H12042624   5.046   6.361   3.471  0.4639  0.8432 -0.2227
  133MOL   H12142625   5.242   6.137   3.495 -0.6570  0.7645  0.8800
  133MOL   H12242626   5.083   6.134   3.407 -2.7628 -0.7579  0.9423
  133MOL   H12342627   5.084   6.149   3.573  0.5031 -1.0232 -0.2111
  133MOL   H12442628   5.218   6.471   3.301  2.4087 -1.0075  0.2040
  133MOL   H12542629   4.928   6.519   3.141 -0.4253  1.5172  1.1903
  133MOL   H12642630   5.099   6.549   3.104  0.2898 -0.3456  0.4294
  133MOL   H12742631   5.046   6.578   3.271 -2.0820 -1.5168  1.1607
  133MOL   H12842632   4.984   6.177   3.221 -1.5588  0.5488  0.0239
  133MOL   H12942633   4.876   6.306   3.158 -0.3930  2.3678  0.8043
  133MOL   C13042634   5.298   6.276   3.228 -0.2479  0.1791  0.0235
  133MOL   C13142635   5.428   6.278   3.322 -0.0245 -0.1839  0.2986
  133MOL   C13242636   5.322   6.304   3.072  0.0950  0.3881 -0.1379
  133MOL   C13342637   5.348   6.171   3.010 -0.6536 -0.5702  0.4086
  133MOL   C13442638   5.228   6.108   2.947 -0.6924  0.1255  0.4141
  133MOL   C13542639   5.475   6.112   3.002 -0.5681 -0.6804 -0.6648
  133MOL   H13642640   5.250   6.178   3.223  0.4105 -0.0662 -1.7363
  133MOL   H13742641   5.399   6.225   3.413 -0.1387  0.3732  0.5886
  133MOL   H13842642   5.467   6.378   3.342  0.2777 -0.2066 -0.1689
  133MOL   H13942643   5.502   6.218   3.270  1.8792  2.2831  0.0657
  133MOL   H14042644   5.221   6.326   3.037  0.2678  0.1038 -0.8077
  133MOL   H14142645   5.248   6.001   2.953 -0.4153  0.0465 -1.5977
  133MOL   H14242646   5.197   6.133   2.845 -1.6837  0.8546  0.8959
  133MOL   H14342647   5.143   6.120   3.013 -0.9114 -0.9298  0.3401
  133MOL   H14442648   5.559   6.156   3.054 -1.2637  0.8350 -0.7906
  133MOL   H14542649   5.497   6.021   2.948  0.2146 -0.0651 -1.3958
  133MOL   C14642650   5.430   6.414   3.032  0.1523 -0.4690 -0.3305
  133MOL   C14742651   5.406   6.551   3.094 -0.3023 -0.0104 -0.5025
  133MOL   C14842652   5.475   6.417   2.878 -0.9603  1.3261  0.2228
  133MOL   C14942653   5.628   6.442   2.867 -0.3436  0.0448  0.6582
  133MOL   C15042654   5.708   6.323   2.825 -0.1832  0.0282  0.5356
  133MOL   C15142655   5.680   6.559   2.901 -0.5965 -0.0217  0.8379
  133MOL   H15242656   5.526   6.387   3.077  1.2044  0.2481 -2.0684
  133MOL   H15342657   5.327   6.605   3.041  0.2661 -0.5215 -1.9209
  133MOL   H15442658   5.498   6.608   3.094  0.7237 -1.6221 -0.2650
  133MOL   H15542659   5.371   6.537   3.196 -0.4882  0.8087 -0.4544
  133MOL   H15642660   5.464   6.319   2.833  2.6586  0.6404  0.6552
  133MOL   H15742661   5.661   6.238   2.874 -0.7730  0.8227  1.3723
  133MOL   H15842662   5.810   6.320   2.864  1.1548  0.3946 -2.8030
  133MOL   H15942663   5.700   6.307   2.718 -2.3272  0.8346  0.5438
  133MOL   H16042664   5.621   6.648   2.918  0.2043  0.4456  1.2297
  133MOL   H16142665   5.788   6.563   2.903 -0.2893 -4.9977 -0.5597
  133MOL   C16242666   5.398   6.517   2.783 -0.3258 -0.0463  0.3855
  133MOL   C16342667   5.247   6.483   2.781 -0.2669  0.2584 -0.1268
  133MOL   C16442668   5.447   6.552   2.637 -0.2778 -0.2975  0.5955
  133MOL   C16542669   5.411   6.698   2.613 -0.1813 -0.1127 -0.2339
  133MOL   C16642670   5.522   6.800   2.625 -0.7231  0.3232 -0.0216
  133MOL   C16742671   5.295   6.730   2.549 -0.2402 -0.2173 -0.1660
  133MOL   H16842672   5.409   6.612   2.835 -0.4617 -0.2199  0.7390
  133MOL   H16942673   5.223   6.378   2.766 -0.8806 -0.3233  4.4751
  133MOL   H17042674   5.189   6.546   2.713 -0.5383 -1.3372 -1.4069
  133MOL   H17142675   5.211   6.504   2.881  1.5909  3.7772 -0.1016
  133MOL   H17242676   5.556   6.549   2.633 -0.2536  1.6175 -0.9095
  133MOL   H17342677   5.594   6.767   2.550  1.4306  0.7088  1.8346
  133MOL   H17442678   5.555   6.793   2.728 -0.5577 -1.2479 -0.1737
  133MOL   H17542679   5.487   6.902   2.607 -0.5024  0.4380  0.2149
  133MOL   H17642680   5.214   6.662   2.532 -2.5647  2.5048 -0.3436
  133MOL   H17742681   5.279   6.827   2.504  0.8312  1.2807  2.5082
  133MOL   C17842682   5.400   6.456   2.520  0.0197  1.0661  0.4861
  133MOL   C17942683   5.447   6.314   2.567  0.3227 -0.0839  0.3288
  133MOL   C18042684   5.443   6.480   2.373 -0.3725  0.7320  0.4171
  133MOL   C18142685   5.336   6.450   2.273  0.2504  0.1109 -0.0229
  133MOL   C18242686   5.260   6.572   2.226  0.0188 -0.0586  0.3473
  133MOL   C18342687   5.282   6.332   2.245  0.1081 -0.1647  0.1283
  133MOL   H18442688   5.292   6.455   2.526  0.0894 -0.7260  1.9154
  133MOL   H18542689   5.459   6.242   2.487  1.6231 -0.2909  0.7010
  133MOL   H18642690   5.385   6.274   2.647  0.3284  0.3394  0.5470
  133MOL   H18742691   5.553   6.306   2.595  1.3900 -0.7805 -3.6886
  133MOL   H18842692   5.460   6.588   2.373  1.5853  0.4737  1.7344
  133MOL   H18942693   5.305   6.604   2.132  0.2155  1.5356  0.9671
  133MOL   H19042694   5.270   6.651   2.300 -1.6269  1.6010 -1.1570
  133MOL   H19142695   5.152   6.564   2.213  0.3448  0.3903 -3.0048
  133MOL   H19242696   5.324   6.241   2.286  1.4365  2.1342  4.1691
  133MOL   H19342697   5.195   6.314   2.184  0.1675  0.5040 -0.1605
  133MOL   C19442698   5.589   6.434   2.323  1.1776  0.4367 -0.3156
  133MOL   C19542699   5.707   6.464   2.422 -0.5050  0.2481  0.0678
  133MOL   C19642700   5.630   6.483   2.174 -0.1114  0.0533  0.4864
  133MOL   C19742701   5.710   6.374   2.107 -0.0788 -0.0447 -0.3291
  133MOL   C19842702   5.616   6.262   2.060 -0.2951  0.4579  0.2685
  133MOL   C19942703   5.843   6.363   2.091  0.1170 -0.0578  0.2809
  133MOL   H20042704   5.582   6.326   2.319  0.4858  0.3350  2.6670
  133MOL   H20142705   5.718   6.561   2.469 -0.9311  0.4769 -0.2997
  133MOL   H20242706   5.806   6.438   2.385 -0.1265  0.9729  0.5856
  133MOL   H20342707   5.703   6.383   2.495  0.8326 -3.0619 -3.3461
  133MOL   H20442708   5.541   6.496   2.112  0.0703  1.5670  0.5225
  133MOL   H20542709   5.582   6.305   1.965 -2.0843 -1.7158 -0.0899
  133MOL   H20642710   5.527   6.255   2.122 -1.1073 -4.2839 -1.2621
  133MOL   H20742711   5.646   6.160   2.035 -2.0749 -0.2566  1.0129
  133MOL   H20842712   5.901   6.446   2.126  1.8846 -2.0799  2.3144
  133MOL   H20942713   5.883   6.272   2.049  3.2958  0.7546  1.3992
  133MOL   C21042714   5.679   6.640   2.153  0.4797  0.2383  0.2694
  133MOL   C21142715   5.595   6.743   2.222 -0.3764 -0.6652  0.1627
  133MOL   C21242716   5.721   6.670   2.003 -0.5672 -0.2293  0.2444
  133MOL   C21342717   5.849   6.758   1.991 -0.4689  0.9013 -0.6217
  133MOL   C21442718   5.945   6.713   1.882  0.2620 -0.1702 -0.1020
  133MOL   C21542719   5.883   6.859   2.073  0.3086  0.0801  0.2183
  133MOL   H21642720   5.771   6.639   2.212  0.8276 -1.1194 -0.2765
  133MOL   H21742721   5.621   6.845   2.197  2.6342 -1.8752 -1.9223
  133MOL   H21842722   5.592   6.734   2.331 -2.2400 -1.2703  0.0933
  133MOL   H21942723   5.491   6.730   2.191 -0.5627 -0.9974  0.9125
  133MOL   H22042724   5.753   6.575   1.958 -1.9991 -0.0421 -1.2022
  133MOL   H22142725   5.961   6.606   1.874 -2.5690 -0.5432 -1.3850
  133MOL   H22242726   6.038   6.769   1.891 -1.1013  2.0510  0.4485
  133MOL   H22342727   5.893   6.739   1.789 -0.0812 -0.8351 -0.1031
  133MOL   H22442728   5.822   6.896   2.154  1.0770  1.2602  0.2707
  133MOL   H22542729   5.970   6.918   2.050 -0.1334 -0.0428 -1.8953
  133MOL   C22642730   5.608   6.705   1.897 -0.5162 -0.0203 -0.0046
  133MOL   C22742731   5.626   6.611   1.775 -0.0544 -0.4329 -0.2820
  133MOL   C22842732   5.580   6.858   1.859  0.4072 -0.0278 -0.4493
  133MOL   C22942733   5.541   6.945   1.978 -0.1387  0.0323 -1.2668
  133MOL   C23042734   5.398   6.929   2.032  0.5616  0.4444  0.1087
  133MOL   C23142735   5.615   7.047   2.014 -0.7216 -0.0658 -0.8144
  133MOL   H23242736   5.517   6.669   1.945  0.8425 -0.4656  2.3353
  133MOL   H23342737   5.536   6.614   1.714 -0.9348 -1.2181  0.9527
  133MOL   H23442738   5.652   6.508   1.800 -0.0597 -0.0352  1.4222
  133MOL   H23542739   5.715   6.642   1.721 -0.1004 -1.3487 -0.8946
  133MOL   H23642740   5.682   6.887   1.835  1.4937 -2.9924  0.2868
  133MOL   H23742741   5.395   6.948   2.139 -0.8821 -1.3257  0.3991
  133MOL   H23842742   5.363   6.827   2.017  2.1993 -0.2444  0.8107
  133MOL   H23942743   5.331   6.997   1.979  0.8359 -1.0679 -2.2721
  133MOL   H24042744   5.705   7.063   1.958  0.0379  1.4416  0.7955
  133MOL   H24142745   5.586   7.114   2.093 -0.0667 -1.2077  0.4115
  133MOL   C24242746   5.482   6.896   1.730  0.1674  0.2442 -0.0880
  133MOL   C24342747   5.348   6.819   1.717 -0.1659 -0.2643  0.5232
  133MOL   C24442748   5.552   6.908   1.590  0.7679 -0.3523 -0.2253
  133MOL   C24542749   5.677   6.991   1.600  0.0782  0.3149  0.0662
  133MOL   C24642750   5.671   7.142   1.603 -0.2015  0.2668 -1.5288
  133MOL   C24742751   5.797   6.925   1.601  0.4728  0.1875 -0.1320
  133MOL   H24842752   5.449   7.000   1.743 -1.6064 -0.3597  0.3944
  133MOL   H24942753   5.261   6.877   1.686  0.5376  0.1714 -0.7019
  133MOL   H25042754   5.306   6.767   1.803 -1.8590 -0.5805 -0.4730
  133MOL   H25142755   5.369   6.737   1.649  0.9644 -0.2766  0.8696
  133MOL   H25242756   5.592   6.809   1.570 -0.3829 -0.7208 -0.6775
  133MOL   H25342757   5.642   7.192   1.511  0.5771  0.4359 -1.6893
  133MOL   H25442758   5.762   7.194   1.636 -1.0691  2.8418 -3.0588
  133MOL   H25542759   5.598   7.173   1.678  1.8110  0.0003  0.6242
  133MOL   H25642760   5.793   6.817   1.598  0.4696  0.1569  0.9933
  133MOL   H25742761   5.896   6.967   1.611  1.4319 -2.1550  0.4529
  133MOL   C25842762   5.472   6.936   1.453 -0.3385 -1.1924  0.2876
  133MOL   C25942763   5.378   7.055   1.472 -0.1372  0.6127 -0.4771
  133MOL   C26042764   5.412   6.815   1.379  0.2022  0.1343  0.9573
  133MOL   C26142765   5.485   6.678   1.378  0.3245  0.8098 -0.4603
  133MOL   C26242766   5.629   6.671   1.329  0.1890 -0.0670 -0.0395
  133MOL   C26342767   5.412   6.566   1.394  0.1097 -0.3070  0.6151
  133MOL   H26442768   5.548   6.970   1.383  0.6651 -1.6515  1.1335
  133MOL   H26542769   5.425   7.122   1.543 -1.4114  0.4886  0.5113
  133MOL   H26642770   5.284   7.023   1.518 -0.2743 -2.6376 -2.8489
  133MOL   H26742771   5.360   7.104   1.376  0.4326  0.7618 -0.5090
  133MOL   H26842772   5.330   6.801   1.449 -0.7663  2.8030  0.4009
  133MOL   H26942773   5.679   6.581   1.366 -1.0065 -0.2216  1.2397
  133MOL   H27042774   5.689   6.760   1.347  0.2742  0.0560 -0.9300
  133MOL   H27142775   5.624   6.670   1.220 -1.5327 -0.9942  0.0280
  133MOL   H27242776   5.304   6.563   1.402  0.1648 -0.6503  1.2416
  133MOL   H27342777   5.457   6.468   1.393  1.6878  0.4118 -1.1291
  133MOL   C27442778   5.342   6.838   1.235  0.5710 -0.0464  0.1386
  133MOL   C27542779   5.430   6.926   1.144 -0.3262  1.0868 -0.5230
  133MOL   C27642780   5.192   6.878   1.245 -0.1003  0.4870  0.1540
  133MOL   C27742781   5.113   6.780   1.323  0.5370  0.1351 -1.4512
  133MOL   C27842782   5.074   6.644   1.273 -0.1526  0.2478  0.0809
  133MOL   C27942783   5.077   6.810   1.453 -0.4311  0.0703  0.2764
  133MOL   H28042784   5.341   6.743   1.182  1.7982 -0.1500  0.2773
  133MOL   H28142785   5.537   6.908   1.150 -0.2148  1.3665 -1.6800
  133MOL   H28242786   5.412   7.028   1.179  0.1883  1.3167 -0.9307
  133MOL   H28342787   5.402   6.912   1.040 -3.3647 -1.0852  0.5061
  133MOL   H28442788   5.194   6.967   1.309 -1.7358  0.0621  0.8365
  133MOL   H28542789   5.164   6.592   1.240 -0.0899  0.2585  0.2341
  133MOL   H28642790   5.009   6.645   1.186  2.4796 -2.0164 -1.9975
  133MOL   H28742791   5.024   6.583   1.348  1.4503 -0.5307  0.5482
  133MOL   H28842792   5.102   6.906   1.497  0.6561  0.1366 -0.4718
  133MOL   H28942793   5.021   6.744   1.518  1.6462 -2.5873 -0.5325
  133MOL   C29042794   5.118   6.915   1.110 -0.1357 -0.0764  0.6027
  133MOL   C29142795   5.149   6.812   0.992 -0.1157  0.1537 -0.0047
  133MOL   C29242796   5.125   7.064   1.070 -0.2474 -0.3655 -0.7329
  133MOL   C29342797   5.055   7.160   1.170  0.1554  0.2289  0.2764
  133MOL   C29442798   4.915   7.128   1.225  0.4645 -0.0080  0.3910
  133MOL   C29542799   5.107   7.279   1.203 -0.4800  0.5008 -0.1922
  133MOL   H29642800   5.014   6.892   1.130 -0.2565 -1.0597 -1.0647
  133MOL   H29742801   5.235   6.839   0.932  0.9488  1.0574  1.8767
  133MOL   H29842802   5.065   6.816   0.923 -1.3630 -0.9208  1.3970
  133MOL   H29942803   5.148   6.713   1.039 -1.9753  1.5315  3.0195
  133MOL   H30042804   5.229   7.097   1.069 -0.2270 -0.4038 -0.1651
  133MOL   H30142805   4.911   7.021   1.241 -0.6884 -0.1380 -0.6880
  133MOL   H30242806   4.826   7.160   1.172  0.5199  0.5604  0.6332
  133MOL   H30342807   4.909   7.174   1.323 -1.9933 -1.7861  1.0855
  133MOL   H30442808   5.196   7.316   1.156  0.8116 -0.1504  1.7084
  133MOL   H30542809   5.056   7.355   1.261  0.1569 -0.1177  1.1864
  133MOL   C30642810   5.074   7.084   0.922  0.1496 -0.0866 -0.3336
  133MOL   C30742811   5.127   7.220   0.882  0.0882  0.2495 -0.7483
  133MOL   C30842812   4.929   7.060   0.904  0.6164  0.0317  0.2266
  133MOL   C30942813   4.884   7.080   0.759  0.6942  0.2206  0.1143
  133MOL   C31042814   4.922   6.967   0.667  0.9375  0.2214  0.1305
  133MOL   C31142815   4.798   7.175   0.723  0.5640 -0.2337  0.0284
  133MOL   H31242816   5.136   7.023   0.855  0.2165 -0.0281 -0.3234
  133MOL   H31342817   5.081   7.306   0.931  1.6314  0.5626  0.1792
  133MOL   H31442818   5.127   7.240   0.775 -0.3836 -2.1845 -1.2237
  133MOL   H31542819   5.234   7.223   0.898 -0.3293 -1.1160  2.7902
  133MOL   H31642820   4.894   6.963   0.938  0.8683 -0.2685 -0.3758
  133MOL   H31742821   4.870   6.877   0.703 -0.4183  0.8843 -0.1183
  133MOL   H31842822   5.030   6.953   0.663  0.8789 -0.5266  0.9135
  133MOL   H31942823   4.879   6.983   0.568  0.5210  2.7045  0.6717
  133MOL   H32042824   4.768   7.248   0.798 -0.9122  1.2519 -1.9346
  133MOL   H32142825   4.763   7.181   0.621 -1.7896 -0.7674  0.7772
  133MOL   H32242826   4.864   7.129   0.959  0.2461 -0.4863  0.4388
  134MOL     C142827   7.789   5.997   1.343 -0.2359  0.1380  0.1955
  134MOL     C242828   7.744   6.076   1.467 -0.7008  0.2158  0.2521
  134MOL     C342829   0.051   5.974   1.339 -1.0429  0.3779  0.4668
  134MOL     C442830   0.125   6.092   1.281 -0.1991 -0.0753  0.0573
  134MOL     C542831   0.120   6.108   1.130  0.3442 -0.0862  0.3481
  134MOL     C642832   0.187   6.185   1.353 -0.3531  0.1404 -0.1370
  134MOL     H742833   7.738   5.902   1.359  0.3710 -0.0866  0.8293
  134MOL     H842834   7.636   6.086   1.477 -0.7814 -3.2056  3.5270
  134MOL     H942835   7.791   6.174   1.474 -1.8108  0.8320 -0.7233
  134MOL    H1042836   7.774   6.029   1.560 -0.1455  0.2776  0.1064
  134MOL    H1142837   0.084   5.985   1.443 -1.8706 -0.9078  0.8665
  134MOL    H1242838   0.013   6.107   1.107 -0.2520 -1.0119  2.9378
  134MOL    H1342839   0.175   6.031   1.074  2.0481  0.2110  1.5765
  134MOL    H1442840   0.169   6.199   1.095 -1.2898  1.3880  1.8087
  134MOL    H1542841   0.200   6.190   1.461  2.2834 -1.7012 -0.3284
  134MOL    H1642842   0.243   6.266   1.308 -1.0068  2.0411  2.3268
  134MOL    H1742843   7.742   6.035   1.252 -0.9602  3.8596  2.0126
  134MOL    C1842844   0.101   5.831   1.283  0.0340  0.2816 -0.2441
  134MOL    C1942845   0.023   5.776   1.165 -0.8398 -0.0334 -0.2080
  134MOL    C2042846   0.147   5.716   1.382 -0.2121  0.0942 -0.2477
  134MOL    C2142847   0.028   5.633   1.443  0.2474  0.0039  0.2969
  134MOL    C2242848   7.876   5.514   1.351  0.1817  0.0004 -0.3398
  134MOL    C2342849   7.864   5.646   1.564 -0.7543  0.3529  0.0163
  134MOL    H2442850   0.200   5.851   1.241  0.7201 -0.5034  0.9815
  134MOL    H2542851   0.085   5.699   1.119 -1.7746  1.1357 -3.5583
  134MOL    H2642852   0.011   5.854   1.090 -0.6460  0.7328  0.5381
  134MOL    H2742853   7.819   5.738   1.199 -0.9376  0.6109  0.2550
  134MOL    H2842854   0.200   5.651   1.313  0.4857  0.4951 -0.0941
  134MOL    H2942855   0.024   5.508   1.250  0.7747 -0.0659 -0.1009
  134MOL    H3042856   7.768   5.499   1.355  0.5582 -2.6257  2.4090
  134MOL    H3142857   0.022   5.425   1.401 -0.8041 -1.1324 -1.5590
  134MOL    H3242858   7.890   5.720   1.639 -0.4972 -1.4409  1.7365
  134MOL    H3342859   7.788   5.577   1.597 -0.2069 -0.3142 -0.1180
  134MOL    C3442860   0.254   5.749   1.492 -0.1129 -0.0892  0.4153
  134MOL    C3542861   0.349   5.880   1.471 -0.6401 -0.4245 -0.0427
  134MOL    C3642862   0.317   5.614   1.551 -0.5763 -0.1442  0.0894
  134MOL    C3742863   0.309   5.617   1.699 -0.3858  0.7077  0.4127
  134MOL    C3842864   0.399   5.711   1.774  0.1165 -0.0543  0.2139
  134MOL    C3942865   0.227   5.535   1.769  0.4725  0.4924 -0.4818
  134MOL    H4042866   0.192   5.776   1.578 -1.6848  0.2133 -0.8015
  134MOL    H4142867   0.407   5.887   1.379 -1.2793  0.3991 -0.3906
  134MOL    H4242868   0.415   5.887   1.558 -2.5892 -0.8353  1.5124
  134MOL    H4342869   0.299   5.977   1.470  0.7395  0.3063 -3.0270
  134MOL    H4442870   0.255   5.531   1.515  0.9965 -0.1406 -2.7132
  134MOL    H4542871   0.377   5.707   1.880 -0.5238  0.0124  0.0847
  134MOL    H4642872   0.379   5.814   1.745  1.6586 -0.2241 -1.5500
  134MOL    H4742873   0.504   5.681   1.772  0.7677  1.9600  2.2934
  134MOL    H4842874   0.159   5.472   1.714  0.6160  0.2072 -0.3316
  134MOL    H4942875   0.220   5.536   1.877 -2.5659  1.6586 -0.6449
  134MOL    C5042876   0.461   5.580   1.497  0.0913 -0.1421  0.2332
  134MOL    C5142877   0.465   5.573   1.339 -0.4387  0.1302  0.8665
  134MOL    C5242878   0.547   5.471   1.560  0.2139  0.4604 -0.5390
  134MOL    C5342879   0.693   5.506   1.535  0.2987  0.3375  1.2021
  134MOL    C5442880   0.757   5.604   1.632 -0.8659  1.1965  0.3433
  134MOL    C5542881   0.769   5.452   1.439 -0.3083 -0.1995 -0.7700
  134MOL    H5642882   0.511   5.669   1.533 -2.1623  1.2202  0.0953
  134MOL    H5742883   0.391   5.500   1.304 -1.4521  0.4128  2.3942
  134MOL    H5842884   0.561   5.566   1.288 -0.3675 -0.4766  1.0880
  134MOL    H5942885   0.432   5.668   1.297  0.8627 -0.4355 -1.5554
  134MOL    H6042886   0.532   5.497   1.665 -0.5432  2.2870 -1.0732
  134MOL    H6142887   0.749   5.576   1.737  0.4227 -2.1790 -0.4215
  134MOL    H6242888   0.727   5.709   1.622  0.1013  1.6168  1.6899
  134MOL    H6342889   0.864   5.588   1.622 -1.2857 -2.8527  1.4132
  134MOL    H6442890   0.728   5.379   1.371  0.4877  0.5548 -2.0847
  134MOL    H6542891   0.873   5.482   1.431 -0.2010  0.0442  1.3758
  134MOL    C6642892   0.507   5.315   1.528 -0.0332  0.2386  0.0034
  134MOL    C6742893   0.354   5.289   1.534  0.1401 -0.0942  0.2581
  134MOL    C6842894   0.579   5.205   1.615  0.4711 -0.1305 -0.6855
  134MOL    C6942895   0.602   5.077   1.537  0.8031 -0.4982 -0.9918
  134MOL    C7042896   0.719   5.088   1.432  0.3793 -0.2691 -0.3842
  134MOL    C7142897   0.525   4.972   1.544  1.0460 -0.0930 -0.0084
  134MOL    H7242898   0.522   5.294   1.422 -1.5548 -2.1824  0.2249
  134MOL    H7342899   0.315   5.297   1.635 -0.1023 -1.4190  0.2771
  134MOL    H7442900   0.343   5.183   1.512  1.5905  0.1209 -1.7374
  134MOL    H7542901   0.294   5.336   1.455  0.8535  1.5625  0.6715
  134MOL    H7642902   0.677   5.251   1.628  0.9128 -1.2157 -0.0616
  134MOL    H7742903   0.801   5.148   1.472 -1.0369  2.6915 -1.7575
  134MOL    H7842904   0.678   5.134   1.342 -2.3571  0.6807  1.2840
  134MOL    H7942905   0.742   4.984   1.408  1.0976 -0.4532  1.0156
  134MOL    H8042906   0.435   4.977   1.603  0.5366  1.5285 -0.8959
  134MOL    H8142907   0.546   4.879   1.492 -1.4367 -1.8447  1.9852
  134MOL    C8242908   0.537   5.174   1.767 -0.1741  0.1608 -0.2088
  134MOL    C8342909   0.493   5.304   1.856 -0.5612  0.1864  0.3525
  134MOL    C8442910   0.639   5.074   1.846 -0.4887  0.7488 -0.1776
  134MOL    C8542911   0.560   4.981   1.943 -0.0531 -0.2564 -0.7771
  134MOL    C8642912   0.514   4.852   1.886  0.2321  0.7180 -0.0326
  134MOL    C8742913   0.528   5.012   2.069  0.6782  0.8537 -0.3865
  134MOL    H8842914   0.440   5.125   1.766 -0.5018  0.7690  0.7483
  134MOL    H8942915   0.452   5.256   1.945  1.1410 -2.5020 -0.2421
  134MOL    H9042916   0.409   5.355   1.808 -0.0371  0.6052 -0.1282
  134MOL    H9142917   0.568   5.381   1.872  1.8434 -1.7317 -1.3350
  134MOL    H9242918   0.674   5.005   1.769 -0.1852 -0.3151  0.9038
  134MOL    H9342919   0.458   4.853   1.793  0.8842 -1.6353 -0.4788
  134MOL    H9442920   0.477   4.775   1.954  0.3320  2.6420  2.2516
  134MOL    H9542921   0.596   4.793   1.843 -1.5122 -1.4476 -0.4794
  134MOL    H9642922   0.561   5.109   2.102  1.1280  1.4999 -2.6073
  134MOL    H9742923   0.468   4.945   2.128 -1.0414  1.8280 -1.0086
  134MOL    C9842924   0.759   5.141   1.916  0.2727 -0.0630  0.3097
  134MOL    C9942925   0.838   5.247   1.835 -0.0897 -0.3379  0.2099
  134MOL   C10042926   0.870   5.044   1.984 -0.1412  0.1685 -0.4158
  134MOL   C10142927   0.920   5.114   2.122  0.2219  0.7097  0.1984
  134MOL   C10242928   0.831   5.087   2.242  0.4652 -0.8073  0.6265
  134MOL   C10342929   1.037   5.178   2.143 -0.4570 -0.0354  0.1314
  134MOL   H10442930   0.718   5.201   1.997  1.8568 -1.5127  2.2602
  134MOL   H10542931   0.779   5.336   1.817  1.0136  0.4108  0.2512
  134MOL   H10642932   0.872   5.193   1.746 -1.5462 -1.7308  0.4794
  134MOL   H10742933   0.929   5.284   1.882  1.2579 -1.4994 -1.4030
  134MOL   H10842934   0.808   4.959   2.012 -0.9238  1.0309  0.4673
  134MOL   H10942935   0.880   5.140   2.323 -0.7191 -0.1393  0.9045
  134MOL   H11042936   0.828   4.988   2.287  0.0057 -0.4546  1.3752
  134MOL   H11142937   0.730   5.123   2.231 -0.4447 -2.7863  2.0908
  134MOL   H11242938   1.104   5.201   2.061  2.2836 -0.3737  2.2087
  134MOL   H11342939   1.062   5.210   2.243 -0.5429 -1.3676  0.5957
  134MOL   C11442940   0.990   4.994   1.893 -0.2776 -0.1753  0.1045
  134MOL   C11542941   0.926   4.912   1.774 -0.8064 -1.1661  0.5376
  134MOL   C11642942   1.095   4.904   1.965 -0.7131  0.8456 -0.3799
  134MOL   C11742943   1.224   4.920   1.880 -0.4439 -0.3383  1.1257
  134MOL   C11842944   1.309   5.037   1.920  0.3519 -0.3428 -0.3886
  134MOL   C11942945   1.269   4.841   1.784  0.2956  0.2779  0.2540
  134MOL   H12042946   1.036   5.085   1.857 -0.7102 -0.2034 -0.5341
  134MOL   H12142947   1.002   4.857   1.719 -0.5362  1.0164 -1.3475
  134MOL   H12242948   0.885   4.979   1.699  2.1407 -0.1490 -0.2624
  134MOL   H12342949   0.855   4.841   1.816 -0.9395 -1.7168 -0.6183
  134MOL   H12442950   1.115   4.960   2.057 -1.8707 -1.6568  1.4361
  134MOL   H12542951   1.415   5.028   1.893  0.6236 -1.4822  0.9794
  134MOL   H12642952   1.309   5.055   2.027  1.5751 -0.2737 -0.3930
  134MOL   H12742953   1.278   5.130   1.872 -0.5294  1.1113  2.8685
  134MOL   H12842954   1.222   4.746   1.762  2.5273 -0.6340 -0.7890
  134MOL   H12942955   1.359   4.867   1.730  0.0542 -0.1400 -0.3550
  134MOL   C13042956   1.054   4.749   1.990  0.3975  0.7154 -0.5737
  134MOL   C13142957   0.917   4.722   2.060 -0.4441 -0.7822  0.8007
  134MOL   C13242958   1.173   4.663   2.063  0.5403  1.3466 -0.3307
  134MOL   C13342959   1.159   4.518   2.014  0.2856 -0.7316  0.2176
  134MOL   C13442960   1.249   4.484   1.897  0.2004 -0.2010  0.1263
  134MOL   C13542961   1.100   4.421   2.085  0.8215  0.2500  0.0376
  134MOL   H13642962   1.040   4.711   1.889 -3.7271  1.7760 -0.5036
  134MOL   H13742963   0.834   4.737   1.991  1.2589  0.8768 -0.9643
  134MOL   H13842964   0.909   4.795   2.140 -0.5238 -0.1182  0.1936
  134MOL   H13942965   0.904   4.622   2.100 -2.4887 -0.7474  0.2939
  134MOL   H14042966   1.264   4.707   2.024  1.2887  1.6096  1.6528
  134MOL   H14142967   1.299   4.392   1.927 -0.1123 -0.9081 -1.4535
  134MOL   H14242968   1.334   4.548   1.876 -1.2880  1.4356 -1.0139
  134MOL   H14342969   1.190   4.457   1.809  1.3266 -1.3777 -0.2857
  134MOL   H14442970   1.033   4.445   2.166 -0.2883  0.7148 -1.0052
  134MOL   H14542971   1.118   4.318   2.057 -0.4964 -0.1423  0.6420
  134MOL   C14642972   1.164   4.674   2.219 -0.0916 -0.1648  0.2367
  134MOL   C14742973   1.176   4.825   2.269 -0.4070 -0.1655 -0.1627
  134MOL   C14842974   1.272   4.588   2.296 -0.0699  0.4724 -0.2894
  134MOL   C14942975   1.216   4.491   2.405  0.0556 -0.3412  0.3234
  134MOL   C15042976   1.260   4.345   2.404  0.2579 -0.3200 -0.0198
  134MOL   C15142977   1.118   4.531   2.484 -0.2126 -0.7086 -0.4355
  134MOL   H15242978   1.063   4.646   2.246 -0.0829 -0.9587 -0.5647
  134MOL   H15342979   1.250   4.889   2.221  1.5938 -0.2695  2.6897
  134MOL   H15442980   1.178   4.838   2.377 -1.7400 -0.7412 -0.0572
  134MOL   H15542981   1.088   4.882   2.239  1.0343  0.4518 -3.4836
  134MOL   H15642982   1.300   4.513   2.222 -2.0897 -2.2960  1.6425
  134MOL   H15742983   1.224   4.308   2.308 -0.8388  1.6574 -0.3953
  134MOL   H15842984   1.217   4.304   2.496 -0.3271 -0.0524 -0.1686
  134MOL   H15942985   1.365   4.323   2.421 -0.0289  0.4131  2.9371
  134MOL   H16042986   1.084   4.633   2.490 -0.8611 -0.9793  0.5527
  134MOL   H16142987   1.084   4.447   2.544 -0.5902  0.5553  1.1427
  134MOL   C16242988   1.411   4.643   2.354 -0.4299 -0.6341  0.0051
  134MOL   C16342989   1.390   4.725   2.489  0.0578  0.0019  0.4852
  134MOL   C16442990   1.515   4.700   2.251  0.1084 -0.1398  0.0883
  134MOL   C16542991   1.533   4.613   2.127 -0.2951  0.9759  0.1986
  134MOL   C16642992   1.566   4.684   1.996  0.2460  0.8014 -0.2729
  134MOL   C16742993   1.528   4.479   2.121  0.1921  0.0227  0.1795
  134MOL   H16842994   1.458   4.551   2.388 -1.0252 -2.0718 -2.8524
  134MOL   H16942995   1.323   4.683   2.564  0.1154 -2.2558 -0.6936
  134MOL   H17042996   1.360   4.828   2.469 -0.2733 -0.1155  0.3748
  134MOL   H17142997   1.488   4.737   2.534  0.8147  0.5810 -1.2769
  134MOL   H17242998   1.483   4.788   2.195 -0.2317  0.0157  0.5273
  134MOL   H17342999   1.490   4.760   1.979  0.9612  1.5186 -0.2765
  134MOL   H17443000   1.563   4.622   1.906  0.8755 -0.2858  0.4429
  134MOL   H17543001   1.666   4.725   1.986  1.4978 -2.1512 -0.4927
  134MOL   H17643002   1.509   4.411   2.202 -0.8939 -2.8897 -2.4327
  134MOL   H17743003   1.540   4.426   2.028  1.1730 -0.1842  0.4153
  134MOL   C17843004   1.663   4.734   2.307  0.6033  0.0017 -0.6476
  134MOL   C17943005   1.710   4.621   2.406 -0.1321 -0.3461 -0.0975
  134MOL   C18043006   1.700   4.875   2.368  0.4143  0.4834 -0.7232
  134MOL   C18143007   1.637   4.993   2.290 -0.1524  0.6533 -0.3317
  134MOL   C18243008   1.692   5.014   2.158 -0.8815 -0.6648  0.3585
  134MOL   C18343009   1.530   5.054   2.328  0.0621 -0.3370 -0.2504
  134MOL   H18443010   1.727   4.727   2.219 -0.8879 -1.5001 -1.6569
  134MOL   H18543011   1.671   4.522   2.383 -0.1328 -0.2910 -0.3296
  134MOL   H18643012   1.667   4.634   2.505  3.9969  0.3950  1.7060
  134MOL   H18743013   1.819   4.620   2.409 -0.1446  0.0772  0.7302
  134MOL   H18843014   1.643   4.871   2.461 -0.0724  1.2113 -0.9827
  134MOL   H18943015   1.663   4.922   2.107  1.7380 -2.1766  1.4894
  134MOL   H19043016   1.801   5.025   2.159 -0.6367 -2.6586 -0.4062
  134MOL   H19143017   1.664   5.100   2.098  0.9966 -0.7667 -0.7020
  134MOL   H19243018   1.487   5.028   2.424 -1.6741  1.1179 -0.6008
  134MOL   H19343019   1.478   5.132   2.275 -0.8196  0.2512  1.4072
  134MOL   C19443020   1.843   4.913   2.421  0.2109  0.0267  0.3035
  134MOL   C19543021   1.949   4.852   2.321  0.7604 -0.3967  0.7821
  134MOL   C19643022   1.870   4.870   2.567  0.3304  0.3268  0.0979
  134MOL   C19743023   1.767   4.937   2.664  0.6136  0.3696 -0.4501
  134MOL   C19843024   1.743   5.085   2.671 -0.4679 -0.9410  0.2735
  134MOL   C19943025   1.687   4.857   2.741 -0.8311 -0.7840  0.4608
  134MOL   H20043026   1.855   5.022   2.425  3.3632 -0.2726  0.4369
  134MOL   H20143027   1.899   4.836   2.225  0.6184 -0.8115  0.9226
  134MOL   H20243028   1.987   4.761   2.366 -0.8289  0.6314  4.3751
  134MOL   H20343029   2.029   4.923   2.301  0.0936  0.5893  1.5562
  134MOL   H20443030   1.857   4.762   2.569  0.2247  0.3342 -0.2283
  134MOL   H20543031   1.752   5.128   2.571 -2.3271  0.1170  0.5443
  134MOL   H20643032   1.828   5.130   2.722  0.0289  0.0228 -1.3869
  134MOL   H20743033   1.652   5.121   2.719  0.6784  0.2374  1.5862
  134MOL   H20843034   1.700   4.750   2.742  0.9359 -0.5752  0.6601
  134MOL   H20943035   1.612   4.897   2.808 -2.6628 -3.2065 -0.0849
  134MOL   C21043036   2.014   4.897   2.632 -0.0030  0.7303 -0.3350
  134MOL   C21143037   2.068   5.026   2.589  0.4375 -0.3449  0.2730
  134MOL   C21243038   2.116   4.772   2.629 -0.2291  0.6760  0.4224
  134MOL   C21343039   2.058   4.636   2.664 -0.6793  0.2787  0.5012
  134MOL   C21443040   2.089   4.525   2.565  0.0430  0.2489  0.7037
  134MOL   C21543041   1.968   4.616   2.757  0.0423  1.0642  0.4968
  134MOL   H21643042   1.990   4.900   2.739  2.0069  1.2471  0.1261
  134MOL   H21743043   2.117   5.003   2.495  0.3106 -2.4852  0.7172
  134MOL   H21843044   2.148   5.066   2.651  0.2181  0.7954 -0.1681
  134MOL   H21943045   1.994   5.105   2.574 -0.0486 -1.2385 -2.3028
  134MOL   H22043046   2.130   4.777   2.521 -0.7486  1.5998  0.3927
  134MOL   H22143047   2.183   4.470   2.571 -0.1447 -0.5081 -2.2058
  134MOL   H22243048   2.089   4.561   2.462 -0.4132 -1.9192 -0.0970
  134MOL   H22343049   2.011   4.448   2.562  1.4865 -1.1841 -1.1122
  134MOL   H22443050   1.928   4.696   2.817  1.2507  2.8683 -1.0591
  134MOL   H22543051   1.933   4.515   2.776  1.5678  0.5272  0.5169
  134MOL   C22643052   2.249   4.789   2.712 -0.2184 -0.9343  0.4235
  134MOL   C22743053   2.215   4.846   2.853 -0.7561 -0.2831 -0.7459
  134MOL   C22843054   2.373   4.851   2.631  0.2216  0.0916 -0.0519
  134MOL   C22943055   2.385   4.824   2.482 -0.1737  0.2437  0.2928
  134MOL   C23043056   2.421   4.944   2.403 -0.2125  0.2018 -0.3493
  134MOL   C23143057   2.358   4.708   2.417 -0.1164  0.2657 -0.0983
  134MOL   H23243058   2.270   4.684   2.735  3.4441 -0.0624  1.3805
  134MOL   H23343059   2.137   4.794   2.909  1.2370 -0.4270  2.0095
  134MOL   H23443060   2.206   4.955   2.853  0.5503 -0.1642  0.0565
  134MOL   H23543061   2.309   4.827   2.905 -0.3312 -0.4408 -1.5671
  134MOL   H23643062   2.349   4.957   2.633 -0.1120  0.0023  1.4558
  134MOL   H23743063   2.519   4.972   2.441 -1.2941  1.6551  1.4360
  134MOL   H23843064   2.357   5.029   2.427 -1.3286 -0.4422 -0.9431
  134MOL   H23943065   2.439   4.917   2.299 -0.2656 -0.7063 -0.1280
  134MOL   H24043066   2.341   4.621   2.479  0.1050  0.9621  0.9706
  134MOL   H24143067   2.356   4.692   2.311  0.0692  1.1217 -0.2301
  134MOL   C24243068   2.512   4.835   2.700 -0.3175  0.1888 -0.5461
  134MOL   C24343069   2.544   4.695   2.758 -0.1178  0.0605  0.5752
  134MOL   C24443070   2.550   4.953   2.817  0.1970  0.0022 -0.4152
  134MOL   C24543071   2.477   5.093   2.795  0.6812 -0.0555  0.2109
  134MOL   C24643072   2.522   5.172   2.673  0.5831 -0.4506  0.4472
  134MOL   C24743073   2.394   5.156   2.879 -0.7186 -0.1340 -0.2114
  134MOL   H24843074   2.573   4.840   2.610  0.0112 -0.7502 -0.3916
  134MOL   H24943075   2.522   4.702   2.864  0.8133  2.0126  0.6636
  134MOL   H25043076   2.650   4.668   2.755 -0.3103 -0.5114 -2.8287
  134MOL   H25143077   2.491   4.617   2.704  0.1482  0.3812 -0.1576
  134MOL   H25243078   2.501   4.924   2.910  1.1851 -0.9636 -0.1812
  134MOL   H25343079   2.621   5.216   2.681 -0.2514  1.1172  2.4373
  134MOL   H25443080   2.450   5.244   2.634  1.0027 -0.8800 -1.1478
  134MOL   H25543081   2.519   5.097   2.594  0.1545  0.5536 -0.4983
  134MOL   H25643082   2.365   5.122   2.977 -0.5403  2.5400  0.7795
  134MOL   H25743083   2.354   5.250   2.844  2.0914  0.6508 -1.4838
  134MOL   C25843084   2.699   4.970   2.852  0.9411  0.0652 -0.1627
  134MOL   C25943085   2.782   4.952   2.726  0.2619  0.4532 -0.4225
  134MOL   C26043086   2.753   4.881   2.969 -0.0095  0.0624 -0.2047
  134MOL   C26143087   2.662   4.873   3.092  0.0718 -0.1113  0.2493
  134MOL   C26243088   2.610   5.006   3.155  0.1180 -0.1427  0.3278
  134MOL   C26343089   2.631   4.751   3.149  0.0886 -0.6347 -0.0418
  134MOL   H26443090   2.705   5.072   2.890 -3.0460 -0.0767  1.0584
  134MOL   H26543091   2.740   4.967   2.627 -1.0598 -0.5824 -0.0342
  134MOL   H26643092   2.831   4.855   2.727 -2.0984 -0.7973 -1.1372
  134MOL   H26743093   2.863   5.023   2.742 -1.1009  2.1970 -1.1168
  134MOL   H26843094   2.761   4.781   2.927 -0.7225  0.6004 -1.6588
  134MOL   H26943095   2.580   4.992   3.258 -1.7114  0.0007 -0.1680
  134MOL   H27043096   2.514   5.022   3.105  0.1091 -0.2291  0.3163
  134MOL   H27143097   2.681   5.088   3.144  0.4961 -0.6012 -0.7503
  134MOL   H27243098   2.671   4.659   3.108 -1.4061 -1.2788 -0.1067
  134MOL   H27343099   2.561   4.732   3.229  4.0139  0.2062  3.7924
  134MOL   C27443100   2.907   4.909   3.014 -0.2916  0.2484  0.7043
  134MOL   C27543101   2.940   5.061   3.035 -0.4469 -0.0697  0.2910
  134MOL   C27643102   3.021   4.823   2.936 -0.7426 -0.3000  0.3647
  134MOL   C27743103   2.990   4.670   2.940  0.3034 -0.9932 -0.0054
  134MOL   C27843104   3.002   4.601   3.074 -0.0652  0.4400  0.1640
  134MOL   C27943105   2.947   4.608   2.830  0.0289 -0.1032  0.0315
  134MOL   H28043106   2.904   4.877   3.118  0.0152 -1.9581  0.0490
  134MOL   H28143107   2.898   5.091   3.131  2.7824 -1.9293  2.3807
  134MOL   H28243108   2.898   5.114   2.950  2.0553  1.3545 -0.1002
  134MOL   H28343109   3.044   5.092   3.036 -1.1113  2.3149 -0.6499
  134MOL   H28443110   3.007   4.849   2.831 -1.1342  0.0758  0.5120
  134MOL   H28543111   2.948   4.659   3.149 -0.6789 -0.8514  0.7296
  134MOL   H28643112   3.103   4.593   3.114 -0.0170 -1.3183 -0.2747
  134MOL   H28743113   2.959   4.501   3.071  0.0864  0.2900  2.1745
  134MOL   H28843114   2.945   4.663   2.737 -0.4149  1.5079  0.9925
  134MOL   H28943115   2.914   4.505   2.835 -1.0468  0.2951  1.4217
  134MOL   C29043116   3.171   4.843   2.977 -0.0079  0.0198 -0.0728
  134MOL   C29143117   3.186   4.852   3.130  0.1457 -0.3709  0.6648
  134MOL   C29243118   3.251   4.947   2.895  0.2023 -0.6617  0.8002
  134MOL   C29343119   3.228   4.937   2.742  0.2640 -0.3493  0.6722
  134MOL   C29443120   3.284   4.820   2.668 -0.5743  0.1494 -0.5455
  134MOL   C29543121   3.176   5.043   2.674 -0.2743  0.4985 -0.0548
  134MOL   H29643122   3.232   4.757   2.949  1.3947  0.5544  1.2417
  134MOL   H29743123   3.168   4.956   3.157 -1.2403 -0.5025  0.2824
  134MOL   H29843124   3.275   4.812   3.178  0.1263 -0.0211  0.9933
  134MOL   H29943125   3.111   4.800   3.190  0.4546 -1.7616 -0.1386
  134MOL   H30043126   3.205   5.043   2.919 -0.7369 -0.6239 -1.0997
  134MOL   H30143127   3.262   4.811   2.562 -1.4176 -1.0885 -0.2716
  134MOL   H30243128   3.257   4.721   2.705  1.5953 -0.5871 -0.8559
  134MOL   H30343129   3.391   4.838   2.678 -0.4245 -1.8711  2.1535
  134MOL   H30443130   3.148   5.129   2.733  2.2634  1.1544  0.2221
  134MOL   H30543131   3.153   5.040   2.568 -1.0352 -2.4071  0.1687
  134MOL   C30643132   3.408   4.960   2.927  0.6653  0.5983  0.6150
  134MOL   C30743133   3.484   4.819   2.938 -0.0684  0.6172 -0.4162
  134MOL   C30843134   3.442   5.055   3.046  0.4526  0.1806 -0.1667
  134MOL   C30943135   3.461   5.206   2.997  0.0840  0.7485  0.0153
  134MOL   C31043136   3.571   5.230   2.887 -0.2284  0.0368 -0.5883
  134MOL   C31143137   3.375   5.301   3.040  0.1364  0.2633 -0.6664
  134MOL   H31243138   3.447   5.008   2.837  1.1651 -1.9196 -0.5454
  134MOL   H31343139   3.593   4.826   2.944  0.0621 -1.9180  0.7762
  134MOL   H31443140   3.465   4.755   2.852 -0.0569  0.1663 -0.0884
  134MOL   H31543141   3.457   4.760   3.026  0.3741 -0.6532 -1.1172
  134MOL   H31643142   3.355   5.038   3.110  0.8739  0.2314  0.4275
  134MOL   H31743143   3.639   5.149   2.916 -0.4293  0.1132  0.1002
  134MOL   H31843144   3.620   5.328   2.885 -0.5595  0.2482  0.9027
  134MOL   H31943145   3.541   5.213   2.784  1.4284 -0.7539 -0.9708
  134MOL   H32043146   3.302   5.270   3.113  0.9602 -0.3180 -0.0835
  134MOL   H32143147   3.381   5.406   3.014  0.9424  0.6883  1.1987
  134MOL   H32243148   3.531   5.039   3.107  1.2828  2.2132 -0.7959
  135MOL     C143149   3.884   4.959   5.047 -0.1963 -0.3702 -0.6978
  135MOL     C243150   3.954   5.064   5.127  0.1789  0.5109  0.2667
  135MOL     C343151   3.909   4.813   5.096 -0.3646  1.1626 -0.2604
  135MOL     C443152   4.056   4.789   5.112  0.5697 -0.6332  0.0952
  135MOL     C543153   4.108   4.760   5.254  0.0280 -0.6728 -0.0372
  135MOL     C643154   4.139   4.796   5.012 -0.0923 -0.5585 -1.9035
  135MOL     H743155   3.778   4.982   5.052 -0.5509 -1.6283 -2.2165
  135MOL     H843156   3.901   5.159   5.120 -0.9321 -0.1015  0.3019
  135MOL     H943157   4.052   5.087   5.085 -0.1187 -0.5788 -1.0381
  135MOL    H1043158   3.968   5.023   5.227 -2.1880  0.0508  0.4193
  135MOL    H1143159   3.870   4.802   5.197 -1.7587  2.5726 -0.6280
  135MOL    H1243160   4.202   4.706   5.243  0.4612  0.3954 -1.6851
  135MOL    H1343161   4.037   4.693   5.303  1.0350 -1.4258  0.3960
  135MOL    H1443162   4.110   4.854   5.309  0.0580 -0.6335 -0.1052
  135MOL    H1543163   4.111   4.821   4.911  1.3093 -0.5040 -2.2878
  135MOL    H1643164   4.244   4.782   5.032 -0.2556  0.0885 -0.5116
  135MOL    H1743165   3.922   4.965   4.945  0.6481  0.9562 -0.3304
  135MOL    C1843166   3.835   4.704   5.005  0.2024 -0.4486  0.3354
  135MOL    C1943167   3.680   4.713   5.024  0.5001 -0.3412  0.2799
  135MOL    C2043168   3.888   4.557   5.013 -0.1675 -0.1014  0.1913
  135MOL    C2143169   3.900   4.504   4.866 -0.3237  0.3687 -0.8866
  135MOL    C2243170   3.769   4.474   4.800 -0.0724  0.2101  0.1665
  135MOL    C2343171   4.017   4.498   4.797  0.1413  0.7411  0.2734
  135MOL    H2443172   3.854   4.745   4.906 -0.2304  1.0714  0.8779
  135MOL    H2543173   3.619   4.655   4.955  0.4951 -0.3217  0.2684
  135MOL    H2643174   3.651   4.818   5.027  0.3488 -0.4247  2.2181
  135MOL    H2743175   3.639   4.672   5.116 -0.0700  0.4500  0.3888
  135MOL    H2843176   3.988   4.568   5.056  0.4548  0.8529 -1.4265
  135MOL    H2943177   3.708   4.418   4.871 -0.8746  0.6718 -0.1502
  135MOL    H3043178   3.776   4.420   4.705  2.1435  2.5797 -1.0774
  135MOL    H3143179   3.713   4.562   4.768  0.6202  0.8874  0.8066
  135MOL    H3243180   4.107   4.509   4.856  1.1497 -4.0290 -0.1182
  135MOL    H3343181   4.021   4.469   4.693  1.0640  3.9002 -0.6118
  135MOL    C3443182   3.828   4.460   5.117  0.1403 -0.4718 -0.3372
  135MOL    C3543183   3.827   4.529   5.261  0.1240  0.4356 -0.3764
  135MOL    C3643184   3.892   4.321   5.121  0.1525  0.4050  0.3270
  135MOL    C3743185   3.784   4.220   5.141 -0.3893 -0.5825 -0.2463
  135MOL    C3843186   3.694   4.194   5.025 -0.4789 -0.7455 -0.4622
  135MOL    C3943187   3.756   4.160   5.258  0.6606  0.0384  1.0460
  135MOL    H4043188   3.725   4.457   5.084 -0.4032  0.5035  1.2073
  135MOL    H4143189   3.918   4.526   5.321 -1.2396  0.3633  1.7144
  135MOL    H4243190   3.753   4.482   5.326 -1.7411  3.2391 -0.3921
  135MOL    H4343191   3.785   4.630   5.264 -0.0066  0.3729 -0.0610
  135MOL    H4443192   3.903   4.303   5.014 -0.9078  1.5739  0.0013
  135MOL    H4543193   3.631   4.283   5.016  2.3183  1.3294 -0.0924
  135MOL    H4643194   3.627   4.109   5.040 -0.4767 -0.9160 -1.4058
  135MOL    H4743195   3.751   4.182   4.933 -0.2822 -0.2451 -0.4077
  135MOL    H4843196   3.807   4.186   5.350  1.7678  1.0350  0.1739
  135MOL    H4943197   3.669   4.098   5.267  1.3219 -1.1766 -0.7301
  135MOL    C5043198   4.029   4.292   5.197  0.7421  0.3808  0.4547
  135MOL    C5143199   4.130   4.403   5.183  0.4192  0.1466 -0.0656
  135MOL    C5243200   4.092   4.149   5.184 -0.1000 -0.8582 -0.7919
  135MOL    C5343201   4.150   4.107   5.328  0.3427 -0.2741  0.0282
  135MOL    C5443202   4.040   4.059   5.426 -0.1534 -0.3796  0.1466
  135MOL    C5543203   4.276   4.131   5.365 -0.3108  0.0445 -0.8416
  135MOL    H5643204   4.003   4.291   5.303  1.3845  2.2861  0.6471
  135MOL    H5743205   4.103   4.498   5.228  2.7839  0.4927  0.6635
  135MOL    H5843206   4.158   4.418   5.079 -1.4975  2.9099 -0.2186
  135MOL    H5943207   4.218   4.387   5.245  2.7075 -0.6972 -3.3579
  135MOL    H6043208   4.024   4.070   5.153  1.7618 -0.8753 -5.2490
  135MOL    H6143209   4.092   4.010   5.508 -0.0662 -1.2503 -0.4212
  135MOL    H6243210   3.978   3.992   5.366 -0.7386 -0.8421  1.2354
  135MOL    H6343211   3.982   4.141   5.468  1.6843 -0.1137  2.2640
  135MOL    H6443212   4.359   4.167   5.307  1.1623  0.6089  1.5250
  135MOL    H6543213   4.294   4.117   5.471 -1.1206 -0.0297 -0.7069
  135MOL    C6643214   4.201   4.138   5.066  0.2203 -0.1556 -0.6563
  135MOL    C6743215   4.140   4.168   4.931  0.7797 -0.7036 -0.4973
  135MOL    C6843216   4.278   3.997   5.069 -0.1044 -0.2035 -0.3396
  135MOL    C6943217   4.413   4.013   4.998  0.1561  0.5086  0.1285
  135MOL    C7043218   4.421   4.011   4.844 -0.5623  0.3745 -0.6630
  135MOL    C7143219   4.528   4.024   5.067  1.2818 -0.1832  0.0970
  135MOL    H7243220   4.278   4.215   5.071 -3.1279  3.3538 -0.4490
  135MOL    H7343221   4.113   4.273   4.923  1.6806 -0.4026  0.3066
  135MOL    H7443222   4.053   4.106   4.914 -0.1241  0.1100  1.0382
  135MOL    H7543223   4.209   4.150   4.848 -1.7023 -1.1071 -2.5099
  135MOL    H7643224   4.300   3.977   5.174 -0.5394  0.6553 -0.0828
  135MOL    H7743225   4.520   3.975   4.816 -0.1362  0.8203  0.2634
  135MOL    H7843226   4.424   4.114   4.806 -0.0510  0.3766 -0.6193
  135MOL    H7943227   4.348   3.948   4.792 -1.9906 -0.3059  2.0422
  135MOL    H8043228   4.526   4.016   5.175  0.6689  0.9535  0.1785
  135MOL    H8143229   4.621   4.046   5.016  0.8149 -3.2044 -2.1645
  135MOL    C8243230   4.200   3.864   5.021 -0.1026  0.0308  0.3257
  135MOL    C8343231   4.063   3.833   5.076 -1.0202  0.0464 -0.8978
  135MOL    C8443232   4.292   3.740   5.020  0.4472 -0.4016  0.2504
  135MOL    C8543233   4.272   3.642   4.895  0.8755 -0.6015 -0.3921
  135MOL    C8643234   4.350   3.666   4.772 -0.2112  0.5836  0.1266
  135MOL    C8743235   4.167   3.563   4.885  0.2018 -0.2966  0.1649
  135MOL    H8843236   4.179   3.880   4.915  0.9269 -1.4327 -0.1097
  135MOL    H8943237   4.065   3.830   5.185 -1.0585 -1.4741 -0.9329
  135MOL    H9043238   4.026   3.737   5.041  1.5856 -0.6597 -1.8849
  135MOL    H9143239   3.982   3.903   5.058 -1.2111 -0.3517 -1.6081
  135MOL    H9243240   4.394   3.777   5.003  0.4409 -1.1810 -1.6758
  135MOL    H9343241   4.456   3.693   4.778  0.0664 -0.7037  1.1829
  135MOL    H9443242   4.300   3.741   4.711 -0.3044  1.1442  0.8842
  135MOL    H9543243   4.349   3.577   4.709 -1.9952  0.6753  0.0213
  135MOL    H9643244   4.099   3.551   4.968 -0.1403  0.0026 -0.0720
  135MOL    H9743245   4.143   3.518   4.790  1.5845 -0.5013 -0.1047
  135MOL    C9843246   4.293   3.652   5.154 -0.0791 -0.2801  0.0153
  135MOL    C9943247   4.323   3.740   5.284  0.5453  0.3108 -0.1762
  135MOL   C10043248   4.364   3.519   5.158 -0.1364  0.2374  0.2769
  135MOL   C10143249   4.294   3.420   5.256  0.7364  0.3103 -0.1110
  135MOL   C10243250   4.156   3.365   5.210  0.2434 -0.3999 -0.3687
  135MOL   C10343251   4.340   3.373   5.374 -0.2228 -0.3098 -0.2478
  135MOL   H10443252   4.188   3.631   5.176  0.5608 -1.8625  1.7583
  135MOL   H10543253   4.238   3.798   5.319  0.1935 -1.2763  1.6440
  135MOL   H10643254   4.402   3.809   5.254  2.2175 -1.2692  0.5313
  135MOL   H10743255   4.360   3.675   5.363 -1.7498 -0.7551  0.0592
  135MOL   H10843256   4.344   3.467   5.065  0.4245 -2.6872  1.7369
  135MOL   H10943257   4.120   3.272   5.255 -0.3523 -0.7094 -1.4617
  135MOL   H11043258   4.179   3.323   5.112  0.4265 -0.8965 -0.1161
  135MOL   H11143259   4.079   3.442   5.203  1.0354  0.3804 -0.6004
  135MOL   H11243260   4.435   3.399   5.418 -0.4712 -1.7637  1.2002
  135MOL   H11343261   4.284   3.301   5.433 -0.3026 -1.4963 -1.7626
  135MOL   C11443262   4.520   3.524   5.171 -0.2176  0.2262 -0.9777
  135MOL   C11543263   4.605   3.643   5.106 -0.0334  0.3512 -0.1096
  135MOL   C11643264   4.589   3.381   5.149  0.4847  0.8361  0.3186
  135MOL   C11743265   4.729   3.370   5.199 -0.1060  0.1999  0.2968
  135MOL   C11843266   4.746   3.380   5.349 -0.1629 -0.3216 -0.3342
  135MOL   C11943267   4.834   3.367   5.121 -0.2513  0.4420  0.0896
  135MOL   H12043268   4.540   3.546   5.276  2.5012  0.7701 -1.5702
  135MOL   H12143269   4.590   3.726   5.175  0.8897 -0.3217  0.9096
  135MOL   H12243270   4.564   3.667   5.008  0.0493 -0.3807 -0.3210
  135MOL   H12343271   4.713   3.626   5.108 -0.0189  0.4620  0.1913
  135MOL   H12443272   4.525   3.326   5.217  0.1005  0.8079 -0.0570
  135MOL   H12543273   4.847   3.353   5.379 -0.1470 -1.1306 -1.0944
  135MOL   H12643274   4.684   3.311   5.406 -0.0848 -1.1744 -1.2556
  135MOL   H12743275   4.733   3.479   5.392 -2.1776 -1.0072  0.7120
  135MOL   H12843276   4.818   3.367   5.014  1.2469  0.0012 -0.1524
  135MOL   H12943277   4.937   3.362   5.155 -0.5235  0.7691  0.9770
  135MOL   C13043278   4.565   3.307   5.012 -0.1703 -0.5057 -0.3171
  135MOL   C13143279   4.561   3.413   4.894  0.6699  0.2525 -0.4294
  135MOL   C13243280   4.444   3.198   4.998  0.2376 -0.6640  0.4005
  135MOL   C13343281   4.434   3.091   5.106 -0.2597  0.1276  0.2052
  135MOL   C13443282   4.294   3.047   5.143 -0.0672 -0.1415  0.1265
  135MOL   C13543283   4.537   3.045   5.181 -0.5107 -0.0271 -0.0047
  135MOL   H13643284   4.650   3.241   4.995  0.7471  0.6968 -0.4922
  135MOL   H13743285   4.593   3.371   4.799  0.6032 -0.3932 -0.1705
  135MOL   H13843286   4.632   3.494   4.912  0.4105  0.2581  0.5864
  135MOL   H13943287   4.463   3.455   4.875  0.8275 -0.2504 -2.4576
  135MOL   H14043288   4.357   3.256   5.027  0.7480 -0.4788  1.6031
  135MOL   H14143289   4.209   3.084   5.086 -2.1621 -0.3974  2.9725
  135MOL   H14243290   4.286   3.080   5.247 -0.4507  0.5830 -0.1290
  135MOL   H14343291   4.287   2.939   5.154 -2.8195  0.1120  1.5284
  135MOL   H14443292   4.640   3.074   5.171 -0.5995 -0.0639 -1.1437
  135MOL   H14543293   4.510   2.965   5.248  0.0173 -1.6685 -1.7096
  135MOL   C14643294   4.429   3.138   4.854  0.7152 -0.2088  0.3956
  135MOL   C14743295   4.289   3.166   4.808 -0.0663  0.1461  0.0734
  135MOL   C14843296   4.463   2.988   4.834  0.2300  0.1658  0.2994
  135MOL   C14943297   4.618   2.961   4.856  0.0378 -0.4982  0.9164
  135MOL   C15043298   4.721   3.037   4.777 -0.5799 -0.8046  0.0799
  135MOL   C15143299   4.652   2.877   4.950 -0.0073 -0.3038 -0.0786
  135MOL   H15243300   4.484   3.192   4.777  2.2021 -0.1489  1.4832
  135MOL   H15343301   4.214   3.103   4.858  0.3640  1.5592  2.5563
  135MOL   H15443302   4.279   3.136   4.704 -1.1271 -1.8851  0.7201
  135MOL   H15543303   4.256   3.267   4.832  0.3213 -0.3948  3.0431
  135MOL   H15643304   4.404   2.944   4.915  0.3574  0.9484  0.8174
  135MOL   H15743305   4.701   3.144   4.767  0.3900 -0.5846  0.4318
  135MOL   H15843306   4.717   2.999   4.675  0.4808  0.9658 -0.6599
  135MOL   H15943307   4.817   3.025   4.828 -0.3544  1.4157  0.2228
  135MOL   H16043308   4.568   2.826   4.996 -0.4010 -0.0630 -0.5305
  135MOL   H16143309   4.755   2.862   4.979  0.3507 -0.0745 -1.2152
  135MOL   C16243310   4.418   2.903   4.706 -0.4386  0.6013 -0.5997
  135MOL   C16343311   4.464   2.976   4.570 -0.3996 -0.2695  0.7253
  135MOL   C16443312   4.278   2.832   4.707  0.0745  0.4350 -0.1991
  135MOL   C16543313   4.248   2.769   4.842  1.6040  0.6774  0.0039
  135MOL   C16643314   4.121   2.820   4.899  0.2511 -0.6999  0.7082
  135MOL   C16743315   4.325   2.682   4.907 -0.0647 -0.0493  0.1128
  135MOL   H16843316   4.490   2.822   4.706 -0.2342  0.7846 -1.0449
  135MOL   H16943317   4.536   3.056   4.580  0.0324 -0.8009  2.0183
  135MOL   H17043318   4.374   3.020   4.526  0.6883  1.6563  0.3978
  135MOL   H17143319   4.514   2.907   4.502  1.2624  2.6756 -1.1006
  135MOL   H17243320   4.211   2.917   4.692  1.5030  1.2229 -2.3370
  135MOL   H17343321   4.119   2.923   4.934 -0.5524 -0.5422  0.2235
  135MOL   H17443322   4.090   2.752   4.978  0.5273 -0.9781  0.5774
  135MOL   H17543323   4.033   2.814   4.836 -0.1135 -2.0610  1.3265
  135MOL   H17643324   4.420   2.640   4.875  0.4404  1.4241 -0.3832
  135MOL   H17743325   4.284   2.646   5.000  0.4448 -0.8881  0.0241
  135MOL   C17843326   4.248   2.722   4.603 -0.4934 -0.1435 -0.1856
  135MOL   C17943327   4.372   2.664   4.538 -0.6202 -0.0641  0.8028
  135MOL   C18043328   4.127   2.751   4.507 -0.4572  0.4026  0.2403
  135MOL   C18143329   4.143   2.886   4.430 -0.1545 -0.0266  1.0517
  135MOL   C18243330   4.219   2.880   4.289 -0.1709 -0.0726  0.1238
  135MOL   C18343331   4.073   2.996   4.459 -0.7154  0.4839 -0.2599
  135MOL   H18443332   4.204   2.636   4.653 -0.6033 -0.7442 -1.2812
  135MOL   H18543333   4.453   2.633   4.603  0.4422 -0.6007 -0.7402
  135MOL   H18643334   4.424   2.721   4.461  0.4201 -0.4459  1.2126
  135MOL   H18743335   4.354   2.575   4.477 -0.1453  1.0494 -0.9923
  135MOL   H18843336   4.149   2.681   4.427  0.0887 -0.1971  0.9040
  135MOL   H18943337   4.158   2.829   4.214  0.8763 -0.8985 -0.1730
  135MOL   H19043338   4.323   2.847   4.289  0.2498  1.2021 -1.0788
  135MOL   H19143339   4.220   2.983   4.253  0.9680 -0.1238  0.0003
  135MOL   H19243340   4.011   2.999   4.548  0.2505 -0.4993  0.4699
  135MOL   H19343341   4.074   3.080   4.392  1.7957  0.7412  0.0415
  135MOL   C19443342   3.980   2.719   4.556 -0.0455 -0.2223  0.3049
  135MOL   C19543343   3.969   2.582   4.629 -0.0471 -0.1905  0.2041
  135MOL   C19643344   3.860   2.753   4.447 -0.1545  0.3934  0.2930
  135MOL   C19743345   3.738   2.814   4.521  0.8796  0.2354  0.0113
  135MOL   C19843346   3.673   2.727   4.622 -0.5387 -0.4363  0.1456
  135MOL   C19943347   3.708   2.946   4.503 -0.4627  0.2467  1.1842
  135MOL   H20043348   3.966   2.795   4.632 -0.3449  1.7829 -1.7206
  135MOL   H20143349   4.001   2.595   4.732  2.3554 -1.3389 -0.3633
  135MOL   H20243350   4.033   2.503   4.589  2.6754 -0.2164  4.3124
  135MOL   H20343351   3.872   2.532   4.631 -0.9986  1.5906 -0.3813
  135MOL   H20443352   3.904   2.825   4.379  1.3164 -1.7403 -1.0682
  135MOL   H20543353   3.743   2.694   4.699  0.0429 -1.4562 -0.8184
  135MOL   H20643354   3.652   2.628   4.581  3.5998 -1.7034  0.8598
  135MOL   H20743355   3.588   2.776   4.670  1.2709  2.2673  0.6745
  135MOL   H20843356   3.745   3.023   4.437 -2.0002 -0.8451 -1.0196
  135MOL   H20943357   3.634   2.988   4.571  1.4838  3.3784  1.4568
  135MOL   C21043358   3.823   2.629   4.358  0.3096  0.8281  0.3481
  135MOL   C21143359   3.945   2.578   4.274 -0.1023  0.4270 -0.2936
  135MOL   C21243360   3.691   2.638   4.273 -1.0494 -0.5562  0.0442
  135MOL   C21343361   3.639   2.496   4.246  0.1829  0.1983 -0.4151
  135MOL   C21443362   3.540   2.449   4.346 -0.4921  0.7567 -0.6350
  135MOL   C21543363   3.678   2.420   4.139 -0.6231  0.8924  0.2686
  135MOL   H21643364   3.805   2.550   4.432 -0.6652  1.1716  0.4806
  135MOL   H21743365   4.025   2.533   4.333  0.9450  0.8772 -1.3384
  135MOL   H21843366   3.994   2.667   4.232  0.4952  0.0062 -0.5042
  135MOL   H21943367   3.923   2.506   4.195  1.0303  0.3672 -0.5642
  135MOL   H22043368   3.621   2.693   4.335 -0.1607  0.8983 -0.2184
  135MOL   H22143369   3.572   2.455   4.450  1.4604 -1.5190 -1.0683
  135MOL   H22243370   3.522   2.343   4.327 -2.7825  1.3813 -2.2562
  135MOL   H22343371   3.442   2.496   4.334  0.0184  1.8522 -0.5510
  135MOL   H22443372   3.751   2.449   4.066  0.2003 -1.4608  0.1114
  135MOL   H22543373   3.636   2.321   4.132 -0.9508  1.2194 -2.9212
  135MOL   C22643374   3.702   2.724   4.141  0.1333 -0.4546  0.4756
  135MOL   C22743375   3.781   2.855   4.152  0.4062  0.6350  0.3716
  135MOL   C22843376   3.567   2.743   4.063  0.3917 -0.3243 -0.0220
  135MOL   C22943377   3.581   2.686   3.916 -0.1186  0.1466  0.0186
  135MOL   C23043378   3.645   2.776   3.815  0.0512 -0.0732 -0.4453
  135MOL   C23143379   3.528   2.571   3.874  0.1545 -0.0980  0.1579
  135MOL   H23243380   3.761   2.672   4.066  0.1159 -0.9482  0.8055
  135MOL   H23343381   3.887   2.840   4.170  0.1679 -1.2836  0.3288
  135MOL   H23443382   3.751   2.929   4.225  1.6667  1.7116 -0.1852
  135MOL   H23543383   3.768   2.902   4.055  0.5409 -2.2474 -1.1169
  135MOL   H23643384   3.496   2.670   4.103  1.8598 -0.8686  1.6213
  135MOL   H23743385   3.737   2.811   3.863 -0.7512  1.1589  0.2223
  135MOL   H23843386   3.593   2.865   3.779 -1.1382  0.2486  1.9766
  135MOL   H23943387   3.665   2.722   3.723  0.1128 -0.1677 -0.3772
  135MOL   H24043388   3.473   2.517   3.949 -0.0393  0.3590  0.3474
  135MOL   H24143389   3.541   2.531   3.775 -0.6113  1.1464 -0.4542
  135MOL   C24243390   3.482   2.878   4.064 -1.0528 -0.7378 -0.6657
  135MOL   C24343391   3.439   2.915   4.202 -0.0562  0.1251  0.2372
  135MOL   C24443392   3.364   2.906   3.964  0.2164 -0.0761 -0.2510
  135MOL   C24543393   3.372   3.054   3.927  0.3042 -0.0255 -0.0702
  135MOL   C24643394   3.430   3.089   3.787 -0.0064  0.6172 -0.2596
  135MOL   C24743395   3.318   3.153   4.005  0.0518  0.5541 -0.0993
  135MOL   H24843396   3.565   2.939   4.029 -1.9900  1.2772  0.5545
  135MOL   H24943397   3.402   3.017   4.207 -2.2551 -0.6980  1.5760
  135MOL   H25043398   3.518   2.911   4.277 -0.8067 -0.8318  0.9904
  135MOL   H25143399   3.359   2.848   4.233 -0.4032 -1.1416 -3.1506
  135MOL   H25243400   3.380   2.858   3.868 -0.3236 -0.5879 -0.0888
  135MOL   H25343401   3.427   3.196   3.764 -1.7397  0.7211  0.3728
  135MOL   H25443402   3.386   3.029   3.709  0.4406 -0.2287  0.1260
  135MOL   H25543403   3.538   3.076   3.798 -0.2377 -1.2457 -0.0459
  135MOL   H25643404   3.284   3.141   4.107  0.8180  3.0912  0.5053
  135MOL   H25743405   3.312   3.257   3.976  0.6201  0.2036 -1.5118
  135MOL   C25843406   3.221   2.860   4.004 -0.0718 -0.2110  0.7176
  135MOL   C25943407   3.220   2.711   4.042  0.1110  0.1967 -0.3289
  135MOL   C26043408   3.106   2.889   3.894 -0.1147  0.4377 -0.8570
  135MOL   C26143409   2.977   2.919   3.978  0.4273 -0.2158 -0.2021
  135MOL   C26243410   2.943   3.059   4.008  0.6222  0.4077 -0.6485
  135MOL   C26343411   2.886   2.825   4.010  0.5347  0.0130  0.0792
  135MOL   H26443412   3.199   2.919   4.093 -1.8357 -0.3705  0.3966
  135MOL   H26543413   3.266   2.692   4.139 -1.1691  2.5953  0.7923
  135MOL   H26643414   3.266   2.642   3.971 -1.8536  0.3352 -1.7652
  135MOL   H26743415   3.122   2.668   4.060  0.2699  0.5870  1.5823
  135MOL   H26843416   3.136   2.980   3.842  0.9272  0.8980  0.5057
  135MOL   H26943417   3.020   3.107   4.067  0.3846  2.3507 -1.8718
  135MOL   H27043418   2.846   3.062   4.059  0.9499  0.4695 -0.0302
  135MOL   H27143419   2.930   3.111   3.913 -1.3530  0.7840 -0.1964
  135MOL   H27243420   2.906   2.720   3.999 -0.7101 -0.2265  0.0377
  135MOL   H27343421   2.788   2.837   4.055  0.3029 -0.9823 -0.1506
  135MOL   C27443422   3.088   2.782   3.780 -0.7052  1.0173  0.3728
  135MOL   C27543423   3.216   2.763   3.698  0.4698  0.2912 -0.3647
  135MOL   C27643424   2.957   2.786   3.692 -0.7064  0.2373 -0.1682
  135MOL   C27743425   2.897   2.647   3.674  0.4286  1.2539 -0.0872
  135MOL   C27843426   2.971   2.540   3.593  0.5805  0.1295  0.2906
  135MOL   C27943427   2.788   2.610   3.740 -0.2344 -0.3116 -0.1223
  135MOL   H28043428   3.072   2.685   3.828 -1.6190  0.0439 -1.8627
  135MOL   H28143429   3.252   2.852   3.646 -1.1114  0.5584 -1.0252
  135MOL   H28243430   3.213   2.691   3.616 -1.1141 -0.6478  0.5028
  135MOL   H28343431   3.286   2.725   3.773  0.3070 -0.3923 -0.5486
  135MOL   H28443432   2.882   2.846   3.744  0.5300  0.1901  1.7348
  135MOL   H28543433   3.050   2.494   3.652 -0.0918 -0.2240  0.9262
  135MOL   H28643434   3.011   2.582   3.501  0.5440 -1.1192 -0.3139
  135MOL   H28743435   2.894   2.467   3.568  2.2440 -0.1924 -4.2656
  135MOL   H28843436   2.726   2.677   3.798  0.5225  0.7718 -0.5314
  135MOL   H28943437   2.762   2.506   3.742  1.5024 -0.7508  0.2044
  135MOL   C29043438   2.974   2.858   3.550  0.5127  0.0679  0.2634
  135MOL   C29143439   3.043   2.996   3.558  0.4434 -0.2385  0.1679
  135MOL   C29243440   2.845   2.855   3.469 -0.0218  0.6366 -0.0335
  135MOL   C29343441   2.889   2.832   3.324  0.1905  0.4167  0.2127
  135MOL   C29443442   2.850   2.694   3.263  0.6780  0.1223 -0.2343
  135MOL   C29543443   2.950   2.922   3.247  0.1076  0.0548 -0.0301
  135MOL   H29643444   3.055   2.803   3.502  0.8741  0.6519  0.1917
  135MOL   H29743445   2.998   3.064   3.486  0.2119 -0.6165 -0.0457
  135MOL   H29843446   3.139   2.986   3.508 -0.7524  0.2395 -2.3159
  135MOL   H29943447   3.031   3.041   3.657 -0.9440  0.2611 -0.2095
  135MOL   H30043448   2.787   2.771   3.504  1.8835  0.0647  1.8158
  135MOL   H30143449   2.747   2.692   3.227  0.6308  0.3201 -0.1094
  135MOL   H30243450   2.859   2.613   3.335 -1.9132 -0.7614 -0.8640
  135MOL   H30343451   2.918   2.678   3.179  1.4175  0.9084  0.2073
  135MOL   H30443452   2.977   3.019   3.287  0.2626  0.0637 -0.1567
  135MOL   H30543453   2.981   2.905   3.145 -2.3413  1.5018 -1.0628
  135MOL   C30643454   2.746   2.976   3.471 -0.2058  0.9940  0.2537
  135MOL   C30743455   2.702   3.014   3.617 -0.6094  0.0547  0.0672
  135MOL   C30843456   2.611   2.946   3.396  0.4693 -0.2796 -0.0793
  135MOL   C30943457   2.533   3.073   3.368  0.2194  0.7261 -0.0847
  135MOL   C31043458   2.581   3.167   3.266  0.8380 -0.6389 -0.4226
  135MOL   C31143459   2.409   3.085   3.427 -0.3410  0.3627  0.0799
  135MOL   H31243460   2.795   3.064   3.429  3.4402 -1.6072 -1.2240
  135MOL   H31343461   2.794   3.028   3.674  0.0031  2.7579 -1.4611
  135MOL   H31443462   2.631   2.954   3.673  0.3915 -0.5403  0.7197
  135MOL   H31543463   2.669   3.118   3.620 -1.1048 -0.1285  1.0066
  135MOL   H31643464   2.637   2.906   3.298  2.8125  0.8556  0.0649
  135MOL   H31743465   2.688   3.187   3.265  1.1551 -2.1735  0.7162
  135MOL   H31843466   2.541   3.266   3.289  2.1412 -0.2843  0.4103
  135MOL   H31943467   2.544   3.137   3.168 -0.2883  0.9748 -0.5142
  135MOL   H32043468   2.362   3.018   3.497 -0.8079 -0.0187 -0.5962
  135MOL   H32143469   2.354   3.170   3.389 -0.2681  0.2414 -0.2949
  135MOL   H32243470   2.558   2.869   3.452  1.4856 -1.4766 -0.7483
  136MOL     C143471   7.248   3.463   4.773 -0.1563  0.6163 -0.2402
  136MOL     C243472   7.167   3.444   4.901  0.2073 -0.4314  0.5046
  136MOL     C343473   7.266   3.610   4.736 -0.0401 -0.0288 -0.1780
  136MOL     C443474   7.133   3.674   4.688 -0.3398  0.7140 -0.5712
  136MOL     C543475   7.060   3.611   4.572  0.1182  0.4089 -0.0132
  136MOL     C643476   7.081   3.778   4.748 -0.4302  0.3047 -0.1974
  136MOL     H743477   7.348   3.423   4.792 -0.8583 -0.8239  0.5609
  136MOL     H843478   7.214   3.500   4.982  3.4125 -0.4122 -1.3128
  136MOL     H943479   7.160   3.337   4.917  1.0960 -0.3046  1.8156
  136MOL    H1043480   7.063   3.477   4.892  0.3449  0.0862  0.8098
  136MOL    H1143481   7.292   3.656   4.831 -0.3185  1.0650 -0.6283
  136MOL    H1243482   7.047   3.504   4.589  3.2629  0.1711  1.3131
  136MOL    H1343483   7.110   3.631   4.477  0.7818  0.2846  0.3029
  136MOL    H1443484   6.960   3.654   4.567 -0.6114 -1.4537 -2.9081
  136MOL    H1543485   7.141   3.812   4.831 -3.6900  2.1664  1.4875
  136MOL    H1643486   6.997   3.840   4.723 -1.1999 -1.1535 -1.3092
  136MOL    H1743487   7.216   3.399   4.691 -0.6984  2.3638 -1.4337
  136MOL    C1843488   7.385   3.640   4.637  0.0548 -0.0343 -0.5540
  136MOL    C1943489   7.395   3.541   4.527  0.2933 -0.2722  0.2256
  136MOL    C2043490   7.526   3.670   4.703  0.5137 -0.3177 -0.0502
  136MOL    C2143491   7.574   3.578   4.810 -0.9923  0.2992  0.1319
  136MOL    C2243492   7.656   3.453   4.770  0.3492  0.2638  0.7241
  136MOL    C2343493   7.547   3.599   4.934  0.3540  0.6529  0.3577
  136MOL    H2443494   7.359   3.730   4.582 -1.9416 -1.1248 -1.4337
  136MOL    H2543495   7.301   3.517   4.479 -0.3739  2.2228  0.2562
  136MOL    H2643496   7.429   3.443   4.562 -1.4410 -0.5988  1.0520
  136MOL    H2743497   7.458   3.571   4.443 -0.2102  0.3159  0.0591
  136MOL    H2843498   7.591   3.636   4.622  0.7603 -0.5670  0.2508
  136MOL    H2943499   7.595   3.375   4.724  1.9711 -0.5421 -0.1038
  136MOL    H3043500   7.699   3.399   4.854 -2.0170 -3.3696 -0.2695
  136MOL    H3143501   7.735   3.477   4.698  1.2347  1.4363  2.0538
  136MOL    H3243502   7.485   3.679   4.971 -0.3123  1.5144 -2.5062
  136MOL    H3343503   7.579   3.528   5.009  0.1600  2.3866  2.1001
  136MOL    C3443504   7.571   3.817   4.726  0.4703  0.2513  0.1442
  136MOL    C3543505   7.449   3.897   4.790  0.1153  0.4782  0.1399
  136MOL    C3643506   7.645   3.879   4.596 -0.0560 -0.0195  0.6555
  136MOL    C3743507   7.754   3.792   4.539 -0.4355 -0.3007  0.1240
  136MOL    C3843508   7.772   3.797   4.391  0.0026  0.2919  0.5630
  136MOL    C3943509   7.836   3.727   4.614  0.0163 -0.0541  0.5702
  136MOL    H4043510   7.642   3.812   4.808 -1.8407  0.7907  2.2479
  136MOL    H4143511   7.363   3.909   4.724  1.3882 -2.2276 -2.0604
  136MOL    H4243512   7.485   3.997   4.816 -2.0498  1.4855 -0.6122
  136MOL    H4343513   7.405   3.849   4.878  0.1247  1.0102  0.4419
  136MOL    H4443514   7.573   3.851   4.519  1.8317 -0.6461 -0.9131
  136MOL    H4543515   7.815   3.895   4.370 -3.9244  2.2151  1.0775
  136MOL    H4643516   7.677   3.789   4.339  0.1363 -0.2690  0.4059
  136MOL    H4743517   7.835   3.716   4.355 -1.6167  0.4105 -2.7058
  136MOL    H4843518   7.835   3.724   4.722  1.6041  2.7777  0.7209
  136MOL    H4943519   0.025   3.667   4.576  0.1688 -1.7601  3.3963
  136MOL    C5043520   7.677   4.038   4.594 -0.2005  0.8841  0.2627
  136MOL    C5143521   7.748   4.065   4.728 -0.1817 -0.5255 -0.2857
  136MOL    C5243522   7.551   4.129   4.566  0.1991  0.3608 -0.1642
  136MOL    C5343523   7.493   4.080   4.430 -0.0165  0.3213 -0.1167
  136MOL    C5443524   7.560   4.131   4.302  0.2058 -0.5004  0.0053
  136MOL    C5543525   7.394   3.988   4.417  0.2503 -0.2612  0.1097
  136MOL    H5643526   7.753   4.066   4.520  1.7160 -1.6519  1.2283
  136MOL    H5743527   7.827   4.138   4.712  0.7575 -1.8799 -2.0961
  136MOL    H5843528   7.795   3.976   4.771 -0.6818 -0.7172 -0.1291
  136MOL    H5943529   7.671   4.096   4.798 -2.4697 -1.3663 -2.3586
  136MOL    H6043530   7.481   4.117   4.648 -1.8012  1.7889 -1.6112
  136MOL    H6143531   7.504   4.212   4.253  0.5390  0.6035  1.4101
  136MOL    H6243532   7.568   4.048   4.231 -1.2110  0.0503 -0.8283
  136MOL    H6343533   7.661   4.165   4.324  0.0631  0.1898 -0.3755
  136MOL    H6443534   7.344   3.956   4.507 -0.6635  1.0648  0.0939
  136MOL    H6543535   7.363   3.949   4.321 -1.1110 -1.2170  0.9277
  136MOL    C6643536   7.566   4.289   4.568 -0.1270 -0.2961  0.3769
  136MOL    C6743537   7.661   4.352   4.672 -0.3851  0.4563  0.1334
  136MOL    C6843538   7.422   4.356   4.554  0.6897 -0.3332  0.0044
  136MOL    C6943539   7.418   4.466   4.442  0.0392 -0.4157  0.1625
  136MOL    C7043540   7.472   4.603   4.477  0.5834  0.2497 -0.0351
  136MOL    C7143541   7.367   4.444   4.323 -0.7220  0.9085 -0.6426
  136MOL    H7243542   7.626   4.321   4.482  1.4690  1.1823  1.9893
  136MOL    H7343543   7.651   4.461   4.673 -2.0622  0.3204  2.8599
  136MOL    H7443544   7.767   4.327   4.661 -0.6623 -0.4817 -0.5281
  136MOL    H7543545   7.631   4.313   4.769 -2.4971 -0.8490 -1.0223
  136MOL    H7643546   7.367   4.277   4.503  0.6545  0.6957 -1.5726
  136MOL    H7743547   7.576   4.606   4.510  0.8276 -0.5430 -0.7220
  136MOL    H7843548   7.408   4.626   4.562  0.8961 -1.4199  0.6565
  136MOL    H7943549   7.451   4.677   4.399  0.5315  1.6858  1.3282
  136MOL    H8043550   7.327   4.345   4.304  1.1020 -0.1857  1.0592
  136MOL    H8143551   7.366   4.514   4.241  2.8595  0.3872 -1.1960
  136MOL    C8243552   7.333   4.398   4.687 -0.5742  0.0668 -0.2558
  136MOL    C8343553   7.318   4.277   4.780  0.4784 -0.5960  0.2113
  136MOL    C8443554   7.191   4.459   4.656  0.3019 -0.5147  0.3090
  136MOL    C8543555   7.154   4.550   4.780 -0.5245  0.0570 -0.4786
  136MOL    C8643556   7.215   4.686   4.776 -0.3501 -0.1153 -0.1206
  136MOL    C8743557   7.084   4.509   4.889 -0.2779 -0.4048  0.5381
  136MOL    H8843558   7.384   4.476   4.743 -0.0922 -0.8030  0.5364
  136MOL    H8943559   7.418   4.251   4.815 -0.4882 -2.0334  1.9606
  136MOL    H9043560   7.284   4.187   4.730 -3.0644  1.7010 -1.7316
  136MOL    H9143561   7.263   4.281   4.874  0.6476 -1.4659  0.3520
  136MOL    H9243562   7.191   4.526   4.570 -3.3742  0.0850  0.6802
  136MOL    H9343563   7.188   4.744   4.688  2.6878  1.3806 -0.1233
  136MOL    H9443564   7.323   4.677   4.777 -0.2835  0.4696 -1.2427
  136MOL    H9543565   7.193   4.750   4.862  0.0446 -0.2802  0.1022
  136MOL    H9643566   7.043   4.412   4.908  1.0938 -0.9719  0.6885
  136MOL    H9743567   7.063   4.578   4.969  0.2462  0.4826 -0.0739
  136MOL    C9843568   7.081   4.351   4.626  0.3134  0.0847  0.1271
  136MOL    C9943569   7.110   4.256   4.502  0.5996 -0.6141  0.0152
  136MOL   C10043570   6.936   4.410   4.609 -0.3798 -0.5910  0.3983
  136MOL   C10143571   6.828   4.307   4.645  0.3089  0.1986 -0.5652
  136MOL   C10243572   6.798   4.292   4.795 -0.2386 -0.0383  0.5349
  136MOL   C10343573   6.766   4.228   4.555  0.1623  0.4617 -0.2342
  136MOL   H10443574   7.076   4.289   4.716  0.0795 -2.1251 -1.3666
  136MOL   H10543575   7.146   4.293   4.406  0.9996 -0.1823  0.3288
  136MOL   H10643576   7.027   4.191   4.476 -0.4601  0.6036  0.3090
  136MOL   H10743577   7.188   4.185   4.529 -0.2281 -0.9140  1.6801
  136MOL   H10843578   6.914   4.478   4.692 -3.0313 -0.9941  0.0703
  136MOL   H10943579   6.720   4.218   4.811 -0.3672  0.1004  0.5549
  136MOL   H11043580   6.764   4.388   4.834  1.0770  0.4377  0.5286
  136MOL   H11143581   6.888   4.263   4.848  1.0512 -1.9925 -2.6046
  136MOL   H11243582   6.793   4.231   4.450  0.1194  0.1727 -0.2536
  136MOL   H11343583   6.696   4.150   4.581  0.3107 -0.0722 -1.3770
  136MOL   C11443584   6.895   4.484   4.470 -0.1821  0.4727  0.1904
  136MOL   C11543585   7.004   4.590   4.419  0.0669 -0.2782 -0.7547
  136MOL   C11643586   6.751   4.554   4.476  0.0940 -0.2133 -0.2700
  136MOL   C11743587   6.717   4.569   4.320 -0.4996 -0.4272  0.3570
  136MOL   C11843588   6.647   4.451   4.264 -0.4335 -0.3248 -0.4215
  136MOL   C11943589   6.740   4.671   4.243 -0.1453  0.4733  0.0534
  136MOL   H12043590   6.889   4.410   4.391  1.1152  0.4985  0.0566
  136MOL   H12143591   7.022   4.666   4.496  0.1720 -0.1771 -0.8796
  136MOL   H12243592   6.976   4.637   4.325  1.6370 -0.8924 -1.5449
  136MOL   H12343593   7.101   4.549   4.389  0.1528 -2.8020  2.6491
  136MOL   H12443594   6.672   4.492   4.519  0.1807  1.2854  2.1405
  136MOL   H12543595   6.566   4.494   4.205 -1.3166 -3.9566 -1.9888
  136MOL   H12643596   6.605   4.381   4.336  1.3501  0.6487  1.6195
  136MOL   H12743597   6.719   4.393   4.206  0.1616  1.0948 -1.1281
  136MOL   H12843598   6.789   4.761   4.276  0.2411  0.0756  0.5812
  136MOL   H12943599   6.715   4.675   4.138  0.9188 -2.7248 -0.3731
  136MOL   C13043600   6.724   4.689   4.552 -0.0381  0.0866 -0.0074
  136MOL   C13143601   6.796   4.705   4.682  0.4789  0.2311 -0.1983
  136MOL   C13243602   6.574   4.733   4.541 -0.6514  0.5117 -0.6555
  136MOL   C13343603   6.548   4.856   4.448 -0.3247  1.2681  0.6384
  136MOL   C13443604   6.421   4.848   4.362  0.0539  0.3751  0.5468
  136MOL   C13543605   6.618   4.973   4.446 -0.0682 -0.1613  0.0353
  136MOL   H13643606   6.780   4.753   4.484  0.3271  0.0122  0.2217
  136MOL   H13743607   6.786   4.810   4.712  1.2917  0.3042 -0.1570
  136MOL   H13843608   6.902   4.684   4.694  0.1165 -0.4607  2.0597
  136MOL   H13943609   6.743   4.641   4.753 -0.8681  0.3088 -1.1291
  136MOL   H14043610   6.525   4.649   4.492  1.6986 -0.1195 -1.9656
  136MOL   H14143611   6.391   4.926   4.291  0.5370 -0.8667 -1.0381
  136MOL   H14243612   6.337   4.855   4.431  0.7025  1.0226  1.2749
  136MOL   H14343613   6.422   4.751   4.312 -0.3798  0.2467  0.7851
  136MOL   H14443614   6.709   4.984   4.504 -1.2827  1.9502  1.5930
  136MOL   H14543615   6.579   5.047   4.378 -1.2136 -1.3655 -0.6682
  136MOL   C14643616   6.489   4.746   4.670 -0.7931 -0.1053 -0.5422
  136MOL   C14743617   6.546   4.846   4.777  0.1207 -0.7577  0.3715
  136MOL   C14843618   6.423   4.620   4.742  0.1905  0.6927 -0.7475
  136MOL   C14943619   6.376   4.503   4.650  0.3695  0.3125  0.1630
  136MOL   C15043620   6.244   4.514   4.579  0.2818  0.1376 -0.2230
  136MOL   C15143621   6.451   4.391   4.633  0.0167  0.1558  0.1686
  136MOL   H15243622   6.400   4.795   4.629  0.7775  0.3521 -3.5922
  136MOL   H15343623   6.601   4.804   4.861  2.4503  1.8957  0.2283
  136MOL   H15443624   6.462   4.893   4.828 -0.3023 -1.4775  0.3551
  136MOL   H15543625   6.609   4.922   4.732 -1.5328  1.5706  1.9171
  136MOL   H15643626   6.497   4.568   4.803 -1.9410  0.6448  1.8951
  136MOL   H15743627   6.166   4.536   4.652  0.3319  1.2298 -0.4997
  136MOL   H15843628   6.218   4.429   4.516 -1.0293 -1.6177  2.5752
  136MOL   H15943629   6.252   4.600   4.514 -0.0793 -1.2071 -2.0743
  136MOL   H16043630   6.543   4.390   4.689  0.3628  1.0049 -0.3814
  136MOL   H16143631   6.423   4.309   4.568 -0.3262  0.6226 -0.2778
  136MOL   C16243632   6.316   4.646   4.855 -0.4033  0.0021  0.0577
  136MOL   C16343633   6.217   4.761   4.820  0.2582  0.0334  0.5143
  136MOL   C16443634   6.369   4.659   5.005 -0.0141 -0.1670 -0.4633
  136MOL   C16543635   6.460   4.542   5.051 -0.0034 -0.1241 -0.3161
  136MOL   C16643636   6.574   4.577   5.147  0.5445  0.0565  0.1606
  136MOL   C16743637   6.450   4.413   5.009 -0.8083  0.0704  0.3705
  136MOL   H16843638   6.254   4.557   4.859 -1.1002  0.3619 -2.2061
  136MOL   H16943639   6.117   4.763   4.863  0.0308 -2.5088  0.2291
  136MOL   H17043640   6.185   4.747   4.716  1.4938  0.4598  0.0735
  136MOL   H17143641   6.258   4.861   4.822  0.8003 -0.2123  3.1138
  136MOL   H17243642   6.450   4.732   5.007  0.5518 -0.7527 -1.3594
  136MOL   H17343643   6.651   4.501   5.141  1.0687  0.6217 -0.3503
  136MOL   H17443644   6.529   4.561   5.245  0.9511 -3.0220 -0.1054
  136MOL   H17543645   6.617   4.676   5.129  1.9437 -0.7904 -1.1999
  136MOL   H17643646   6.385   4.383   4.928  0.5637  1.9294 -1.4676
  136MOL   H17743647   6.512   4.330   5.040 -1.7839 -0.5618  0.6610
  136MOL   C17843648   6.261   4.704   5.115 -0.0050 -0.1781  0.0375
  136MOL   C17943649   6.142   4.606   5.109  0.6008  0.6194  1.1990
  136MOL   C18043650   6.227   4.862   5.125  0.4931 -0.6667  0.3717
  136MOL   C18143651   6.355   4.946   5.136  0.0305  0.1567 -0.3066
  136MOL   C18243652   6.351   5.085   5.072 -0.0660 -0.1898 -0.0982
  136MOL   C18343653   6.464   4.908   5.204  0.6022  0.6239  0.2032
  136MOL   H18443654   6.302   4.685   5.214 -1.2165 -0.9382  0.4019
  136MOL   H18543655   6.067   4.621   5.031  1.7786  0.8275  0.0891
  136MOL   H18643656   6.087   4.613   5.203 -0.3434  3.1487  0.5137
  136MOL   H18743657   6.180   4.505   5.096  1.1108  1.1740 -2.0557
  136MOL   H18843658   6.182   4.887   5.029 -0.9797 -0.5532  1.0812
  136MOL   H18943659   6.453   5.119   5.086  0.5141 -2.3142  1.1073
  136MOL   H19043660   6.280   5.149   5.125  1.1207  0.0470  1.2283
  136MOL   H19143661   6.333   5.076   4.965 -1.2833 -0.2301  0.0915
  136MOL   H19243662   6.469   4.818   5.264  0.4205  1.7670  1.9797
  136MOL   H19343663   6.557   4.962   5.210  0.5418  0.7016  0.4423
  136MOL   C19443664   6.124   4.900   5.236 -0.3101 -0.4758 -0.0432
  136MOL   C19543665   6.160   4.840   5.375  0.7017 -0.1268  0.2475
  136MOL   C19643666   5.972   4.894   5.195 -0.2491 -0.0712  0.2226
  136MOL   C19743667   5.934   4.934   5.048  0.0838 -0.0975 -0.0241
  136MOL   C19843668   5.844   4.845   4.975  0.0033 -0.0166 -0.0729
  136MOL   C19943669   5.989   5.037   4.985  0.1267 -0.1482 -0.2147
  136MOL   H20043670   6.143   5.006   5.251 -1.1111 -0.4710  0.9531
  136MOL   H20143671   6.268   4.842   5.385  0.7765 -3.3111  0.7953
  136MOL   H20243672   6.131   4.735   5.381 -0.0110 -0.1661 -3.0722
  136MOL   H20343673   6.099   4.884   5.454 -0.2172 -0.3766 -0.3172
  136MOL   H20443674   5.952   4.787   5.199  0.5817 -0.3006 -1.3191
  136MOL   H20543675   5.743   4.844   5.015  0.7417 -1.9246  1.8327
  136MOL   H20643676   5.882   4.743   4.980 -0.2475 -0.1328 -0.5788
  136MOL   H20743677   5.849   4.862   4.868  0.9013 -0.6518 -0.1429
  136MOL   H20843678   6.053   5.098   5.047 -0.4971 -0.6650  0.9543
  136MOL   H20943679   5.964   5.066   4.884  2.2998  0.1258 -0.6937
  136MOL   C21043680   5.862   4.957   5.290 -0.9699  0.1607  1.0139
  136MOL   C21143681   5.905   5.096   5.335  0.2265 -0.2853 -0.5841
  136MOL   C21243682   5.807   4.867   5.409  0.5030  0.5139  0.2864
  136MOL   C21343683   5.780   4.716   5.379  0.9200  0.4161 -0.8263
  136MOL   C21443684   5.844   4.618   5.475  0.4880  0.5245  0.2633
  136MOL   C21543685   5.712   4.665   5.270  0.0621  0.5392 -0.7593
  136MOL   H21643686   5.770   4.970   5.233 -0.4715  1.1310  0.4219
  136MOL   H21743687   5.945   5.102   5.436 -0.4515 -2.9348 -0.1184
  136MOL   H21843688   5.812   5.153   5.336  1.5324  1.9186  1.2251
  136MOL   H21943689   5.972   5.144   5.263  0.0224 -0.6228 -1.0041
  136MOL   H22043690   5.894   4.872   5.474  0.4916 -1.2581  0.4701
  136MOL   H22143691   5.801   4.640   5.573  1.4709  0.7417  0.6454
  136MOL   H22243692   5.950   4.641   5.477  0.3627  1.1061  0.4239
  136MOL   H22343693   5.835   4.511   5.459  3.5685  0.1600  0.8680
  136MOL   H22443694   5.676   4.726   5.188  2.5640 -1.1747 -3.2522
  136MOL   H22543695   5.700   4.558   5.262 -0.9392  0.6325 -0.4817
  136MOL   C22643696   5.686   4.930   5.486 -0.1296  0.1248  0.8176
  136MOL   C22743697   5.581   4.986   5.379  0.4821  0.0923  0.0729
  136MOL   C22843698   5.725   5.029   5.600  0.2582 -0.5744  0.6110
  136MOL   C22943699   5.839   4.976   5.696  0.5744  0.6682  0.4974
  136MOL   C23043700   5.951   5.071   5.730 -0.9055 -0.6061  0.0212
  136MOL   C23143701   5.842   4.849   5.739  0.3360 -0.4205 -0.5859
  136MOL   H23243702   5.628   4.845   5.523  2.4887 -1.4079  1.5052
  136MOL   H23343703   5.560   4.913   5.301 -1.5336 -0.4011  1.0532
  136MOL   H23443704   5.592   5.085   5.335 -0.5644 -0.2538 -0.9992
  136MOL   H23543705   5.485   5.010   5.423 -1.5415 -0.4076 -3.8546
  136MOL   H23643706   5.773   5.116   5.556  2.9691 -1.7257  1.1835
  136MOL   H23743707   6.013   5.098   5.644 -1.0497 -2.1157 -0.5719
  136MOL   H23843708   6.021   5.026   5.800  0.4603  1.8616  0.3168
  136MOL   H23943709   5.906   5.157   5.780 -0.3923  1.3515 -2.7621
  136MOL   H24043710   5.760   4.787   5.708 -0.2284 -0.1882  0.4306
  136MOL   H24143711   5.920   4.810   5.803  1.4822 -0.6792 -2.0951
  136MOL   C24243712   5.607   5.085   5.681  0.1504 -0.6273 -0.0861
  136MOL   C24343713   5.495   4.974   5.713 -0.5070  0.0070  0.2284
  136MOL   C24443714   5.533   5.215   5.635  0.1275 -0.3972 -0.7149
  136MOL   C24543715   5.632   5.325   5.597 -0.5750  0.7988  0.3622
  136MOL   C24643716   5.722   5.390   5.700  0.1097  0.0675  0.5586
  136MOL   C24743717   5.639   5.375   5.469 -0.1334 -0.3908 -0.2950
  136MOL   H24843718   5.647   5.105   5.780  0.3398  0.3322 -0.3530
  136MOL   H24943719   5.543   4.876   5.716 -3.4416 -1.4622  0.7837
  136MOL   H25043720   5.423   4.970   5.631  0.6081  3.0287 -0.9989
  136MOL   H25143721   5.433   4.983   5.802 -0.7136  0.2705  0.0578
  136MOL   H25243722   5.482   5.195   5.541 -2.4489  0.5644  0.4329
  136MOL   H25343723   5.776   5.477   5.661 -1.5244  0.9262  0.1903
  136MOL   H25443724   5.804   5.323   5.728 -0.4349 -0.5132  0.7720
  136MOL   H25543725   5.679   5.408   5.798 -0.0336  1.0279  0.3224
  136MOL   H25643726   5.579   5.335   5.389 -0.0808 -0.8257 -0.1150
  136MOL   H25743727   5.695   5.461   5.435 -2.3384  1.6174  0.9815
  136MOL   C25843728   5.422   5.280   5.735  0.0150  0.4334 -0.2060
  136MOL   C25943729   5.457   5.249   5.881 -0.2995 -0.1697 -0.2945
  136MOL   C26043730   5.272   5.250   5.692 -0.3150  0.2330  0.1851
  136MOL   C26143731   5.247   5.304   5.552  0.5545 -0.5489 -0.0103
  136MOL   C26243732   5.135   5.231   5.473 -0.0706  0.2654 -0.3224
  136MOL   C26343733   5.307   5.416   5.504  0.6501 -0.0973 -0.3684
  136MOL   H26443734   5.436   5.388   5.733  1.6325  0.2918  1.4145
  136MOL   H26543735   5.394   5.173   5.927 -0.3463  0.2249  0.2947
  136MOL   H26643736   5.432   5.342   5.931 -3.1033  0.0701 -2.0367
  136MOL   H26743737   5.563   5.246   5.906  0.4917  1.1650 -3.2197
  136MOL   H26843738   5.276   5.142   5.677 -1.0925  0.4068 -1.3717
  136MOL   H26943739   5.042   5.210   5.526  0.3025  1.4017  0.8305
  136MOL   H27043740   5.183   5.136   5.450 -2.3923 -0.9698 -0.2288
  136MOL   H27143741   5.109   5.274   5.377 -0.7047 -0.2988 -0.4069
  136MOL   H27243742   5.379   5.475   5.558  2.6279 -2.7627  0.0560
  136MOL   H27343743   5.287   5.456   5.406 -0.8272 -1.8920 -0.8146
  136MOL   C27443744   5.152   5.295   5.788 -0.7830  0.3639  1.1919
  136MOL   C27543745   5.177   5.438   5.833  0.4172 -0.6411 -0.2016
  136MOL   C27643746   5.108   5.200   5.906 -0.4971 -0.2535  0.4640
  136MOL   C27743747   5.120   5.049   5.866 -0.1373 -0.5160 -0.7657
  136MOL   C27843748   5.191   4.958   5.975 -0.2244  0.3517 -0.2431
  136MOL   C27943749   5.063   4.998   5.756 -0.2606  0.3520  0.0924
  136MOL   H28043750   5.060   5.303   5.730 -0.3270  0.4298  0.4772
  136MOL   H28143751   5.079   5.480   5.858 -0.5862 -3.3275  0.5920
  136MOL   H28243752   5.229   5.493   5.755  0.2841 -1.5032 -0.9100
  136MOL   H28343753   5.244   5.439   5.919 -0.1622  0.0474  0.2510
  136MOL   H28443754   5.185   5.227   5.977  0.3802  0.3494 -0.6976
  136MOL   H28543755   5.118   4.940   6.054  0.4473 -0.3041  0.2332
  136MOL   H28643756   5.281   5.004   6.015  1.9460 -4.3157  0.5712
  136MOL   H28743757   5.222   4.858   5.945  1.0883  0.3370  1.1448
  136MOL   H28843758   5.003   5.052   5.684  0.8322 -0.5792 -1.5807
  136MOL   H28943759   5.076   4.892   5.741 -1.0928  0.0407  1.6110
  136MOL   C29043760   4.969   5.219   5.981  0.3264 -0.0371  0.6688
  136MOL   C29143761   4.856   5.256   5.888  0.1218  0.2908 -0.9809
  136MOL   C29243762   4.983   5.318   6.101 -0.7506 -0.1250 -0.4142
  136MOL   C29343763   5.082   5.269   6.209 -0.1689  0.3907 -0.4845
  136MOL   C29443764   5.164   5.375   6.273 -0.7115  0.5741 -0.1799
  136MOL   C29543765   5.080   5.147   6.263 -0.1080  0.2444 -0.3140
  136MOL   H29643766   4.938   5.122   6.019  1.9484 -1.6883 -2.0578
  136MOL   H29743767   4.758   5.241   5.933  0.7352  0.4261  0.4313
  136MOL   H29843768   4.846   5.195   5.797  3.0848  0.7239 -1.6399
  136MOL   H29943769   4.868   5.360   5.859  0.7892  0.0572 -1.5774
  136MOL   H30043770   5.028   5.407   6.058  1.5144  0.1838  2.4421
  136MOL   H30143771   5.257   5.324   6.299 -1.8416 -1.5115 -0.0644
  136MOL   H30243772   5.108   5.419   6.355 -0.5687 -0.7836  0.6695
  136MOL   H30343773   5.180   5.459   6.205  0.4740  2.4244  2.3260
  136MOL   H30443774   5.017   5.069   6.223  1.2529 -1.2367  0.3718
  136MOL   H30543775   5.137   5.126   6.352 -2.2806  0.2248  1.1088
  136MOL   C30643776   4.849   5.361   6.169 -0.1583 -0.0873 -0.2583
  136MOL   C30743777   4.867   5.497   6.250 -0.4721  0.9164  0.1182
  136MOL   C30843778   4.775   5.255   6.258  0.5116  0.1204  0.1927
  136MOL   C30943779   4.633   5.287   6.310  0.2690 -0.6577 -0.4200
  136MOL   C31043780   4.590   5.221   6.442  0.7145  0.0512  0.4524
  136MOL   C31143781   4.535   5.351   6.236 -0.0349 -0.3694 -0.2911
  136MOL   H31243782   4.775   5.390   6.094  0.2258  2.7054  0.3863
  136MOL   H31343783   4.960   5.542   6.215  0.7089 -0.7900  1.0354
  136MOL   H31443784   4.884   5.483   6.356  0.7741  1.6888  0.0387
  136MOL   H31543785   4.787   5.567   6.222 -0.7578  0.3657 -0.4599
  136MOL   H31643786   4.769   5.167   6.194  0.6969  0.3655 -0.1635
  136MOL   H31743787   4.665   5.230   6.521 -0.2196  2.9843  1.0606
  136MOL   H31843788   4.566   5.118   6.414 -2.0820  0.6947  0.3698
  136MOL   H31943789   4.505   5.282   6.472  1.5509  1.3285  0.2541
  136MOL   H32043790   4.571   5.380   6.138 -2.4012 -1.2843 -1.4777
  136MOL   H32143791   4.431   5.363   6.263 -0.4624  0.1272 -2.0559
  136MOL   H32243792   4.825   5.233   6.352 -0.2583  0.5951  0.7154
  137MOL     C143793   1.990   1.451   6.331  0.3281  0.1084  0.1385
  137MOL     C243794   1.999   1.527   6.461 -0.5395  0.2737 -0.0739
  137MOL     C343795   1.866   1.357   6.328  0.0248  0.1892 -0.5293
  137MOL     C443796   1.877   1.246   6.432  0.7091  0.0248 -0.1821
  137MOL     C543797   1.962   1.127   6.415  0.1133  0.4672  0.1277
  137MOL     C643798   1.797   1.260   6.542 -0.1677  0.4213 -0.1707
  137MOL     H743799   1.986   1.527   6.254 -0.3064 -1.4903 -1.4327
  137MOL     H843800   1.907   1.577   6.490  0.1282  1.6455 -0.2740
  137MOL     H943801   2.079   1.601   6.449  1.4986 -1.7649  0.4580
  137MOL    H1043802   2.015   1.471   6.553  0.2344 -0.6865 -0.7756
  137MOL    H1143803   1.790   1.423   6.369 -1.5023 -2.4244  1.0507
  137MOL    H1243804   1.938   1.078   6.321  0.3211  0.7455 -0.0722
  137MOL    H1343805   1.935   1.050   6.488  0.0086  0.9781  0.6258
  137MOL    H1443806   2.065   1.162   6.421  0.5577 -1.0393  2.2393
  137MOL    H1543807   1.732   1.345   6.554  1.3020  1.4795  0.5112
  137MOL    H1643808   1.790   1.178   6.612 -0.1750  0.4399 -0.1502
  137MOL    H1743809   2.073   1.380   6.323  0.8241  0.8558 -1.4074
  137MOL    C1843810   1.818   1.317   6.185  0.1368 -0.8733 -1.2229
  137MOL    C1943811   1.942   1.282   6.090  0.4696  0.2610 -0.1970
  137MOL    C2043812   1.717   1.410   6.121 -0.0257  0.6571  0.2149
  137MOL    C2143813   1.786   1.547   6.077  0.3270 -0.1603  0.0428
  137MOL    C2243814   1.851   1.563   5.943  0.0087  0.5271  0.2079
  137MOL    C2343815   1.786   1.650   6.163 -0.5412  0.5486  0.3766
  137MOL    H2443816   1.766   1.223   6.206  0.2262 -1.3742 -3.1675
  137MOL    H2543817   2.009   1.367   6.082 -1.7343  2.0654  0.0108
  137MOL    H2643818   1.909   1.249   5.992 -2.7441 -1.0838  1.2544
  137MOL    H2743819   1.993   1.200   6.141  0.8404 -0.1472 -1.2151
  137MOL    H2843820   1.702   1.361   6.025 -1.0814 -3.7207  2.4451
  137MOL    H2943821   1.930   1.638   5.936 -0.9281  1.3350 -2.6405
  137MOL    H3043822   1.774   1.601   5.876 -1.1050 -2.9873 -0.6081
  137MOL    H3143823   1.884   1.467   5.903 -0.2209 -0.0862  1.4772
  137MOL    H3243824   1.733   1.647   6.256  0.6593 -0.8507  1.0334
  137MOL    H3343825   1.841   1.740   6.137  0.2852 -0.3728 -1.1336
  137MOL    C3443826   1.583   1.419   6.205 -0.9752 -0.1229 -0.0428
  137MOL    C3543827   1.538   1.288   6.280 -0.0111  0.5719  0.1983
  137MOL    C3643828   1.469   1.496   6.129  0.0147 -0.0867 -0.1954
  137MOL    C3743829   1.384   1.579   6.214 -0.0401 -0.3988 -0.1112
  137MOL    C3843830   1.286   1.518   6.305 -0.4914 -0.2086 -0.2293
  137MOL    C3943831   1.384   1.713   6.204 -0.6894  0.7195  0.0737
  137MOL    H4043832   1.608   1.490   6.284  0.5948  0.4085 -0.9809
  137MOL    H4143833   1.612   1.266   6.357 -0.8907  1.4403  1.3053
  137MOL    H4243834   1.515   1.205   6.213 -1.5899  0.6592  0.6200
  137MOL    H4343835   1.453   1.299   6.347 -3.1905  0.0451 -3.5456
  137MOL    H4443836   1.520   1.574   6.071 -0.6199  0.2559 -0.2925
  137MOL    H4543837   1.329   1.482   6.398 -1.6866 -1.3698 -0.1166
  137MOL    H4643838   1.249   1.424   6.264 -1.1738 -0.1376  0.2185
  137MOL    H4743839   1.202   1.582   6.333 -0.0795  1.1516 -1.9946
  137MOL    H4843840   1.448   1.760   6.131  0.0533  1.4049  1.1509
  137MOL    H4943841   1.320   1.773   6.269 -0.5236 -0.1578  1.0604
  137MOL    C5043842   1.376   1.413   6.022  0.7511  0.1777 -0.6403
  137MOL    C5143843   1.446   1.309   5.945 -0.1159  0.7777  0.0552
  137MOL    C5243844   1.295   1.506   5.918  0.1120 -0.4827  0.7339
  137MOL    C5343845   1.155   1.456   5.912 -0.1569  0.2449  0.1895
  137MOL    C5443846   1.060   1.510   6.020 -0.2380  0.0222  0.2479
  137MOL    C5543847   1.109   1.373   5.824  0.1365 -0.4222 -0.4069
  137MOL    H5643848   1.300   1.363   6.082 -1.0758  0.5021 -2.6091
  137MOL    H5743849   1.492   1.230   6.005 -0.3986 -0.1476 -0.9352
  137MOL    H5843850   1.537   1.333   5.890  0.0171 -1.9979 -1.0061
  137MOL    H5943851   1.381   1.258   5.874  0.8608  0.1060 -0.3796
  137MOL    H6043852   1.272   1.595   5.976 -1.8559 -1.9604  2.3074
  137MOL    H6143853   0.985   1.441   6.057  1.6094 -1.8992  0.5406
  137MOL    H6243854   1.010   1.602   5.990  0.2164  0.7875  1.8254
  137MOL    H6343855   1.118   1.542   6.107  2.2725  0.4345 -1.5018
  137MOL    H6443856   1.168   1.343   5.738  1.7705  0.0715  0.5310
  137MOL    H6543857   1.008   1.337   5.839  0.5528 -1.0311  1.0243
  137MOL    C6643858   1.358   1.545   5.786 -0.0456 -1.0562 -0.0970
  137MOL    C6743859   1.511   1.590   5.791  0.3662 -0.2959 -0.3851
  137MOL    C6843860   1.281   1.640   5.685 -0.3350  0.0297 -0.8871
  137MOL    C6943861   1.314   1.586   5.551 -1.3513 -0.7079  0.3759
  137MOL    C7043862   1.229   1.474   5.498 -0.2342 -0.2686  0.4317
  137MOL    C7143863   1.403   1.653   5.469 -0.0651 -0.1308 -0.5279
  137MOL    H7243864   1.369   1.448   5.738  2.5560 -1.8618  2.0094
  137MOL    H7343865   1.574   1.532   5.858  0.3929 -0.0413 -0.1900
  137MOL    H7443866   1.516   1.685   5.844  1.3784  0.6947 -2.2045
  137MOL    H7543867   1.555   1.601   5.692 -2.4551  1.3296 -1.4915
  137MOL    H7643868   1.173   1.626   5.693 -0.1839  0.0278  1.8943
  137MOL    H7743869   1.246   1.463   5.391 -0.7128  2.7324  0.0139
  137MOL    H7843870   1.122   1.494   5.504 -0.4332 -1.7597  2.1736
  137MOL    H7943871   1.247   1.376   5.542  1.0171 -0.0930  0.3322
  137MOL    H8043872   1.459   1.741   5.499 -2.6805  1.8731 -1.3944
  137MOL    H8143873   1.410   1.612   5.369 -1.6870  2.6343 -1.8281
  137MOL    C8243874   1.300   1.799   5.708 -0.1230  0.2199  0.1456
  137MOL    C8343875   1.270   1.835   5.860 -0.9933  1.1042 -0.2565
  137MOL    C8443876   1.224   1.889   5.607  0.2666  0.1235  0.3176
  137MOL    C8543877   1.313   2.011   5.566  0.0885  0.9431 -0.5414
  137MOL    C8643878   1.346   2.117   5.670  0.2798  0.0257  0.1843
  137MOL    C8743879   1.360   2.033   5.443  0.0082  0.3008 -0.9131
  137MOL    H8843880   1.405   1.816   5.683  0.2764  1.6496  2.6608
  137MOL    H8943881   1.279   1.940   5.888  3.5666  1.1468 -1.5717
  137MOL    H9043882   1.339   1.803   5.938 -1.1185 -0.1727 -0.6607
  137MOL    H9143883   1.173   1.795   5.892 -0.6842  1.6801  1.4581
  137MOL    H9243884   1.204   1.831   5.516 -1.7101  0.4517  0.5124
  137MOL    H9343885   1.273   2.127   5.751  0.4370  2.8385  0.0228
  137MOL    H9443886   1.344   2.212   5.617 -0.9957  0.0781  0.2951
  137MOL    H9543887   1.440   2.087   5.716  0.0953 -1.6714 -0.5103
  137MOL    H9643888   1.346   1.967   5.359 -0.0239 -0.9437  0.0560
  137MOL    H9743889   1.412   2.123   5.415  0.9431  0.4233  1.1414
  137MOL    C9843890   1.076   1.931   5.639  0.2371 -0.0912 -0.6270
  137MOL    C9943891   0.979   1.819   5.654 -0.6508 -0.0294  0.1136
  137MOL   C10043892   1.014   2.045   5.548  0.2468 -0.8109  0.0371
  137MOL   C10143893   0.920   2.132   5.637 -0.4875 -0.1731 -0.4074
  137MOL   C10243894   0.991   2.247   5.715  0.0595 -0.3641  0.1912
  137MOL   C10343895   0.786   2.118   5.640  0.0928 -0.1504  0.3009
  137MOL   H10443896   1.095   1.985   5.732 -0.3664  1.4347 -1.3726
  137MOL   H10543897   0.986   1.743   5.576 -1.6624  0.3029 -0.3115
  137MOL   H10643898   0.878   1.854   5.672  0.0249  2.1633 -0.2773
  137MOL   H10743899   0.998   1.760   5.744 -1.4434 -0.6484 -0.1149
  137MOL   H10843900   1.087   2.122   5.524 -2.9588  1.5794 -2.5520
  137MOL   H10943901   0.920   2.306   5.773  0.5502  2.8835 -2.3383
  137MOL   H11043902   1.044   2.318   5.652  2.5827 -0.2783  2.3163
  137MOL   H11143903   1.060   2.202   5.786  1.0127  1.5922  0.5469
  137MOL   H11243904   0.730   2.041   5.591 -1.3764 -0.3645  2.2438
  137MOL   H11343905   0.732   2.191   5.699  1.2302  1.7078 -0.9012
  137MOL   C11443906   0.938   1.994   5.415 -0.0826  0.0243 -0.2653
  137MOL   C11543907   1.022   1.897   5.321  0.8382  0.1408 -0.8454
  137MOL   C11643908   0.867   2.107   5.321 -0.0836 -0.0894 -0.2848
  137MOL   C11743909   0.753   2.044   5.249  0.0739  0.9987 -0.1830
  137MOL   C11843910   0.625   2.030   5.335  0.0332 -0.4394  0.1321
  137MOL   C11943911   0.750   2.013   5.124  0.2449  0.3819 -0.2249
  137MOL   H12043912   0.860   1.930   5.457 -0.6307 -0.3872 -1.8613
  137MOL   H12143913   0.962   1.867   5.235  0.1423 -2.0658  0.3514
  137MOL   H12243914   1.042   1.803   5.373 -1.3695  0.3979  0.5619
  137MOL   H12343915   1.113   1.941   5.281  0.9336  0.9955  0.2954
  137MOL   H12443916   0.820   2.172   5.395 -2.4533 -2.3343  0.2475
  137MOL   H12543917   0.628   1.943   5.400  0.2019  0.4586  1.3480
  137MOL   H12643918   0.531   2.009   5.283 -0.5753 -1.2506  1.5458
  137MOL   H12743919   0.606   2.115   5.401 -0.5642 -0.2620 -0.2562
  137MOL   H12843920   0.834   2.014   5.056  0.8276  1.0137  0.4857
  137MOL   H12943921   0.653   1.985   5.086 -0.1232  1.3261 -0.0140
  137MOL   C13043922   0.951   2.203   5.231  0.0243  0.3195  0.1445
  137MOL   C13143923   1.086   2.231   5.293 -0.3815  0.1874 -0.2817
  137MOL   C13243924   0.875   2.332   5.182  0.2847  0.0195 -0.3657
  137MOL   C13343925   0.901   2.341   5.030 -0.2087  0.1156  0.4038
  137MOL   C13443926   1.037   2.388   4.979 -0.6855  0.8623  0.4962
  137MOL   C13543927   0.825   2.288   4.936  0.7545  0.0313 -0.0816
  137MOL   H13643928   0.969   2.139   5.145  1.2873  0.7402  0.0926
  137MOL   H13743929   1.093   2.281   5.389 -1.1858  0.8419 -0.5657
  137MOL   H13843930   1.147   2.286   5.221  0.6809 -0.6164 -0.0228
  137MOL   H13943931   1.148   2.141   5.297  0.0532  0.4745 -0.5217
  137MOL   H14043932   0.768   2.313   5.180  0.1143  1.0704 -1.6810
  137MOL   H14143933   1.103   2.448   5.042  0.6223 -2.4249  2.4203
  137MOL   H14243934   1.025   2.435   4.881  0.2588 -0.1439 -0.1174
  137MOL   H14343935   1.094   2.299   4.952  1.0277  2.2553 -0.5920
  137MOL   H14443936   0.734   2.234   4.955  1.2959 -1.9745 -2.8435
  137MOL   H14543937   0.855   2.284   4.833 -0.3210 -0.9665 -0.3656
  137MOL   C14643938   0.899   2.467   5.266  0.5244 -0.3751 -0.1141
  137MOL   C14743939   0.869   2.457   5.417  0.6890  0.1828  0.0806
  137MOL   C14843940   0.829   2.586   5.194 -0.2187 -0.1559 -0.1303
  137MOL   C14943941   0.931   2.693   5.143 -0.5155 -0.1383 -0.6344
  137MOL   C15043942   0.909   2.744   4.998 -0.9670  0.7667  0.7505
  137MOL   C15143943   1.036   2.737   5.222  0.0354 -0.1728  0.4471
  137MOL   H15243944   1.004   2.497   5.270  0.5644 -0.6516  1.1891
  137MOL   H15343945   0.906   2.538   5.480 -3.8582  0.6401  2.3806
  137MOL   H15443946   0.917   2.366   5.454 -0.7038 -1.2529 -1.5269
  137MOL   H15543947   0.763   2.437   5.438  0.6960 -0.0201 -0.0768
  137MOL   H15643948   0.792   2.545   5.100 -2.3838  2.6110 -0.5438
  137MOL   H15743949   0.855   2.839   4.993 -0.6649  0.9175  0.3550
  137MOL   H15843950   0.883   2.669   4.924  0.0303  0.9993  0.1559
  137MOL   H15943951   1.008   2.782   4.973 -1.2195  0.2738 -1.0794
  137MOL   H16043952   1.054   2.690   5.317 -1.9661 -1.8885  0.0213
  137MOL   H16143953   1.104   2.818   5.197 -0.0409 -0.9208 -2.3539
  137MOL   C16243954   0.701   2.657   5.257 -0.2050 -0.2938  1.0027
  137MOL   C16343955   0.727   2.736   5.391  0.2259  0.2166  0.4414
  137MOL   C16443956   0.575   2.576   5.244 -0.0049 -0.0917 -0.0229
  137MOL   C16543957   0.541   2.531   5.098 -0.0376  0.2774 -0.8993
  137MOL   C16643958   0.520   2.623   4.980  0.1924  0.0165 -0.0442
  137MOL   C16743959   0.527   2.398   5.075 -0.3961  0.3350  0.1001
  137MOL   H16843960   0.679   2.740   5.190  1.7292  0.0478  0.7692
  137MOL   H16943961   0.649   2.810   5.408  0.4889  0.0184  2.7524
  137MOL   H17043962   0.828   2.778   5.397  0.4635 -0.3590  0.4930
  137MOL   H17143963   0.721   2.669   5.477  0.2941 -1.8938 -1.1592
  137MOL   H17243964   0.610   2.488   5.298  1.8649 -0.0228 -1.0826
  137MOL   H17343965   0.434   2.688   4.989  0.1574 -0.2493  1.6379
  137MOL   H17443966   0.503   2.570   4.886 -1.1386 -0.5148  0.4934
  137MOL   H17543967   0.614   2.678   4.968 -0.7058  1.5451 -0.1388
  137MOL   H17643968   0.522   2.333   5.161 -2.3667  1.8385  1.1703
  137MOL   H17743969   0.519   2.353   4.977 -2.0656  2.0714 -0.6006
  137MOL   C17843970   0.439   2.634   5.311 -0.3315  0.6423  0.3649
  137MOL   C17943971   0.410   2.778   5.265  0.9784  0.5920  0.1734
  137MOL   C18043972   0.422   2.623   5.468  0.3499  0.5493  0.4754
  137MOL   C18143973   0.451   2.485   5.521 -0.0581 -0.2533  0.1679
  137MOL   C18243974   0.527   2.478   5.652 -0.0527 -0.2048 -1.1822
  137MOL   C18343975   0.408   2.375   5.458  0.6750 -0.5620 -0.2145
  137MOL   H18443976   0.362   2.575   5.262  1.3103 -3.3545  2.2562
  137MOL   H18543977   0.303   2.793   5.248  0.8231 -1.2259 -0.5618
  137MOL   H18643978   0.454   2.790   5.167  0.6584 -1.4571 -0.2549
  137MOL   H18743979   0.454   2.850   5.334  0.9989  1.1139 -0.3820
  137MOL   H18843980   0.503   2.682   5.512  1.2846  1.4582 -2.3240
  137MOL   H18943981   0.630   2.508   5.634  0.6541 -1.0826  1.1971
  137MOL   H19043982   0.527   2.383   5.705  0.5151  1.4537  1.9149
  137MOL   H19143983   0.465   2.550   5.706  0.1206 -1.4764  0.7644
  137MOL   H19243984   0.349   2.382   5.368 -0.2811 -0.4308  0.4214
  137MOL   H19343985   0.432   2.274   5.488 -2.0288 -0.4010  2.7371
  137MOL   C19443986   0.292   2.682   5.540  0.0435 -0.0387  0.3670
  137MOL   C19543987   0.167   2.643   5.459 -0.4274  0.4893 -0.4198
  137MOL   C19643988   0.299   2.838   5.577  0.3893  0.1436  0.3881
  137MOL   C19743989   0.417   2.875   5.667  0.4298 -0.1760  0.6028
  137MOL   C19843990   0.484   2.995   5.627 -0.1656 -0.3154  0.9989
  137MOL   C19943991   0.444   2.814   5.783 -0.0130  0.6564  0.7744
  137MOL   H20043992   0.276   2.631   5.635 -0.0493  2.3640  1.6686
  137MOL   H20143993   0.147   2.704   5.371  1.3173 -1.2113 -2.0609
  137MOL   H20243994   0.073   2.644   5.514 -0.3339 -0.3394 -0.2342
  137MOL   H20343995   0.176   2.538   5.432 -0.0224 -0.1274  1.9493
  137MOL   H20443996   0.300   2.889   5.480 -0.9251 -1.7641 -0.6529
  137MOL   H20543997   0.536   3.051   5.705 -2.9505  1.9818  1.3120
  137MOL   H20643998   0.412   3.070   5.593  1.5437  1.1002  0.4088
  137MOL   H20743999   0.550   2.977   5.542  0.1457  2.2471  0.6311
  137MOL   H20844000   0.384   2.732   5.821  0.1067  0.2061  0.0127
  137MOL   H20944001   0.523   2.841   5.852  0.9968 -0.6014  0.1215
  137MOL   C21044002   0.171   2.911   5.636 -0.5149 -0.8817 -0.3952
  137MOL   C21144003   0.112   2.829   5.751  0.2314 -0.0148  0.5631
  137MOL   C21244004   0.054   2.958   5.530 -0.2233  0.2368 -0.2240
  137MOL   C21344005   0.120   3.033   5.408 -0.3471  0.7793  0.1254
  137MOL   C21444006   0.178   3.181   5.424 -0.7185  0.1741  0.7135
  137MOL   C21544007   0.109   2.984   5.286 -0.3496 -0.2545 -0.5665
  137MOL   H21644008   0.200   3.009   5.674  1.4244 -1.4054 -0.4758
  137MOL   H21744009   0.024   2.886   5.781 -0.5088  0.7125 -2.7326
  137MOL   H21844010   0.185   2.820   5.832  0.4440 -0.2029  0.3518
  137MOL   H21944011   0.091   2.730   5.711 -0.4517  0.7108 -0.9210
  137MOL   H22044012   0.027   2.864   5.483 -1.8079 -0.4998  2.0442
  137MOL   H22144013   0.239   3.209   5.339 -1.5764  2.9734  0.9623
  137MOL   H22244014   0.239   3.189   5.514 -1.1648  0.2059  1.0145
  137MOL   H22344015   0.094   3.249   5.439 -1.2387  0.0176 -1.4398
  137MOL   H22444016   0.066   2.887   5.262 -1.1479  0.3404 -1.5550
  137MOL   H22544017   0.137   3.034   5.195  0.0448  0.2004 -0.1971
  137MOL   C22644018   7.805   3.030   5.572 -0.7841 -0.6486 -0.2894
  137MOL   C22744019   7.843   3.140   5.674 -0.3218 -0.7869  0.3773
  137MOL   C22844020   7.688   2.930   5.608 -0.5672  0.3958  0.4016
  137MOL   C22944021   7.683   2.804   5.521  0.1435  0.3920  0.9315
  137MOL   C23044022   7.655   2.814   5.365  0.0129 -0.1688 -0.2157
  137MOL   C23144023   7.710   2.684   5.572  0.1352  0.1339  0.3306
  137MOL   H23244024   7.777   3.087   5.483  1.6625  0.3676 -0.4435
  137MOL   H23344025   7.856   3.105   5.776 -0.5915  1.5549  1.2282
  137MOL   H23444026   7.777   3.227   5.667 -0.0055 -0.0654  4.9526
  137MOL   H23544027   0.042   3.190   5.643 -0.0750 -1.3008  0.2752
  137MOL   H23644028   7.716   2.891   5.706 -1.9892  1.5529  1.2852
  137MOL   H23744029   7.641   2.711   5.330 -0.2755  0.0036 -0.6017
  137MOL   H23844030   7.731   2.874   5.316 -1.0252  1.1837 -0.1798
  137MOL   H23944031   7.559   2.863   5.347 -0.1812  0.0858  1.4172
  137MOL   H24044032   7.743   2.670   5.674  0.0075  4.5924  1.0700
  137MOL   H24144033   7.700   2.593   5.514  0.0281 -0.3652  1.1261
  137MOL   C24244034   7.553   3.002   5.631  0.7134  0.2812 -0.2840
  137MOL   C24344035   7.516   3.106   5.523 -0.0151 -0.6480 -0.3664
  137MOL   C24444036   7.532   3.056   5.774 -0.5368  0.1231  0.2684
  137MOL   C24544037   7.547   2.955   5.892 -0.1283  0.0266  0.6007
  137MOL   C24644038   7.484   2.823   5.865  0.6670  0.2478 -0.1928
  137MOL   C24744039   7.621   2.975   6.006 -0.1266 -0.3187  0.0054
  137MOL   H24844040   7.466   2.938   5.615  1.7635 -0.3902 -3.7003
  137MOL   H24944041   7.552   3.069   5.426  1.0083 -0.6962  0.0328
  137MOL   H25044042   7.561   3.203   5.540  0.1893 -0.9647  0.9720
  137MOL   H25144043   7.409   3.116   5.501 -1.6956 -1.9472  6.2711
  137MOL   H25244044   7.612   3.125   5.799 -0.1293  0.3136 -1.5308
  137MOL   H25344045   7.378   2.829   5.843  1.0081  1.8023 -1.5442
  137MOL   H25444046   7.499   2.767   5.957 -1.2219  0.6626  0.3870
  137MOL   H25544047   7.539   2.765   5.791  1.0446  0.0937  0.2038
  137MOL   H25644048   7.675   3.067   6.021 -0.5260  0.1358 -1.2224
  137MOL   H25744049   7.629   2.900   6.083  2.1458  0.3079  0.3989
  137MOL   C25844050   7.400   3.136   5.795  0.7702 -0.1541  0.2646
  137MOL   C25944051   7.266   3.090   5.734  0.3324 -0.4433 -0.2183
  137MOL   C26044052   7.415   3.292   5.783  0.7692 -0.1612 -0.5279
  137MOL   C26144053   7.546   3.359   5.834  0.5400 -0.2934  0.0965
  137MOL   C26244054   7.582   3.350   5.984  0.0283 -0.7047  0.9353
  137MOL   C26344055   7.634   3.430   5.759  0.0108  0.1124 -0.1555
  137MOL   H26444056   7.374   3.127   5.901  1.4163 -0.3344  0.4119
  137MOL   H26544057   7.270   2.984   5.709  1.1663 -0.3582 -0.4840
  137MOL   H26644058   7.243   3.131   5.636  1.5561  0.5007 -0.1210
  137MOL   H26744059   7.188   3.121   5.803  1.4539  1.9621 -0.0051
  137MOL   H26844060   7.437   3.302   5.677  3.1313  0.0653 -0.0480
  137MOL   H26944061   7.527   3.268   6.029 -1.0422  0.5914  2.0436
  137MOL   H27044062   7.534   3.434   6.035  0.7343 -0.2006  0.7674
  137MOL   H27144063   7.687   3.365   6.009  0.1223  0.0709  0.0936
  137MOL   H27244064   7.624   3.443   5.652  0.2617 -2.0047 -0.4559
  137MOL   H27344065   7.721   3.476   5.802 -0.7150 -0.2770  1.7523
  137MOL   C27444066   7.295   3.398   5.819  0.1817 -0.4473 -1.0122
  137MOL   C27544067   7.231   3.356   5.949 -0.0910 -0.5572 -0.9785
  137MOL   C27644068   7.184   3.421   5.711  0.0516  0.0551  0.3259
  137MOL   C27744069   7.242   3.449   5.571 -0.3178  0.1163  0.0423
  137MOL   C27844070   7.155   3.411   5.453 -0.2548 -0.2887  0.0306
  137MOL   C27944071   7.356   3.521   5.559 -0.3711  0.3766 -0.2816
  137MOL   H28044072   7.344   3.495   5.831  2.0288 -1.6457  1.3735
  137MOL   H28144073   7.308   3.315   6.013  0.9334  2.1257 -0.4314
  137MOL   H28244074   7.144   3.290   5.944  0.9634 -1.9243 -1.4220
  137MOL   H28344075   7.191   3.441   6.005 -0.4428  0.6242 -2.9512
  137MOL   H28444076   7.125   3.330   5.698  0.2317  0.2860 -2.3174
  137MOL   H28544077   7.222   3.364   5.381 -0.1104 -1.6215  1.0330
  137MOL   H28644078   7.112   3.500   5.406 -0.3243 -0.1660  0.3254
  137MOL   H28744079   7.065   3.357   5.480 -1.3882  1.6818  0.3390
  137MOL   H28844080   7.408   3.544   5.651 -0.8346 -0.0076  0.0785
  137MOL   H28944081   7.399   3.550   5.464 -0.6601  2.2298  0.1418
  137MOL   C29044082   7.091   3.546   5.735 -0.2365 -0.7263 -0.2047
  137MOL   C29144083   7.159   3.672   5.790 -0.0124  0.7700 -0.0750
  137MOL   C29244084   6.947   3.521   5.804  0.4223 -0.4429  0.7966
  137MOL   C29344085   6.874   3.402   5.739  0.7150  0.0309  0.1530
  137MOL   C29444086   6.835   3.420   5.593 -0.7097  1.2015  0.7351
  137MOL   C29544087   6.858   3.286   5.806  0.5341 -0.1005  0.2671
  137MOL   H29644088   7.051   3.592   5.645 -1.8505 -0.8054  0.4496
  137MOL   H29744089   7.189   3.640   5.890  0.3523 -2.2477 -1.0998
  137MOL   H29844090   7.106   3.766   5.802 -2.6887 -0.5672 -1.0415
  137MOL   H29944091   7.253   3.696   5.740 -0.0054  1.4069  0.2354
  137MOL   H30044092   6.979   3.483   5.901  2.1074  1.7622  1.1412
  137MOL   H30144093   6.742   3.478   5.593 -1.8813 -0.6464  0.8741
  137MOL   H30244094   6.815   3.324   5.546  0.7169  0.7171  1.0949
  137MOL   H30344095   6.904   3.471   5.526 -1.9169  0.4168 -1.1372
  137MOL   H30444096   6.880   3.267   5.910  0.4924  1.0392  0.4894
  137MOL   H30544097   6.819   3.202   5.751 -0.6230  0.5407  0.0985
  137MOL   C30644098   6.856   3.635   5.847 -0.7377  0.4294  0.3218
  137MOL   C30744099   6.728   3.592   5.917  0.0587 -0.3948 -0.0098
  137MOL   C30844100   6.829   3.731   5.730  0.2013 -0.1818 -0.0298
  137MOL   C30944101   6.743   3.847   5.774  0.2994  0.2412 -0.3868
  137MOL   C31044102   6.600   3.843   5.745  0.8418  0.4183 -0.1573
  137MOL   C31144103   6.804   3.949   5.832  0.3463 -0.0282  0.0096
  137MOL   H31244104   6.916   3.689   5.920 -1.2795  2.3501 -0.6171
  137MOL   H31344105   6.640   3.551   5.867  1.4466 -1.4808 -1.6338
  137MOL   H31444106   6.690   3.684   5.961  2.2273  0.2954  0.4996
  137MOL   H31544107   6.749   3.516   5.992  2.4762  0.8525  0.6357
  137MOL   H31644108   6.924   3.769   5.694 -1.1899  2.9921 -0.4848
  137MOL   H31744109   6.576   3.788   5.654 -0.8229  1.7902 -0.5727
  137MOL   H31844110   6.570   3.946   5.726 -0.7529  0.4190  2.1600
  137MOL   H31944111   6.537   3.802   5.824  1.8801 -1.3364 -0.2116
  137MOL   H32044112   6.911   3.954   5.827  0.3402 -1.4413 -1.9733
  137MOL   H32144113   6.757   4.035   5.879  1.2204  0.6828 -0.3960
  137MOL   H32244114   6.770   3.678   5.655  1.8567 -3.9361  1.1983
  138MOL     C144115   1.307   7.486   4.514  0.1874 -0.8523 -0.6084
  138MOL     C244116   1.269   7.343   4.477 -0.8163 -0.0149 -0.4629
  138MOL     C344117   1.190   7.577   4.553  0.1908 -0.0769  0.2502
  138MOL     C444118   1.233   7.730   4.560  0.3265 -0.4536 -0.2314
  138MOL     C544119   1.130   7.823   4.496  0.0753 -0.0140  0.3013
  138MOL     C644120   1.347   7.773   4.615  0.1724 -0.3181  0.4764
  138MOL     H744121   1.379   7.489   4.596 -0.2636  1.5128 -0.2560
  138MOL     H844122   1.187   7.334   4.407 -0.2742 -2.0954 -0.8717
  138MOL     H944123   1.267   7.283   4.569 -0.9880  3.2321  1.7269
  138MOL    H1044124   1.350   7.295   4.422 -0.3429 -0.5338  0.6528
  138MOL    H1144125   1.140   7.578   4.456  0.5801  1.3598  0.0508
  138MOL    H1244126   1.099   7.791   4.397  0.9241  0.6860 -0.2101
  138MOL    H1344127   1.184   0.025   4.485 -1.3677  0.9173  1.1619
  138MOL    H1444128   1.046   7.839   4.563 -0.7914  1.3637 -1.0842
  138MOL    H1544129   1.413   7.706   4.668  0.2199  0.0727  0.9075
  138MOL    H1644130   1.364   7.879   4.616 -1.0176 -0.1191  1.2937
  138MOL    H1744131   1.356   7.526   4.425 -0.3277  0.7428 -0.2023
  138MOL    C1844132   1.106   7.539   4.679 -0.1405 -0.1176  0.2566
  138MOL    C1944133   1.204   7.514   4.801  0.1475 -0.1975  0.0251
  138MOL    C2044134   0.995   7.438   4.659 -0.5243  0.5083 -0.2500
  138MOL    C2144135   0.910   7.474   4.538 -0.0037  0.0860  0.0906
  138MOL    C2244136   0.822   7.596   4.543  0.0529 -0.4302  0.0256
  138MOL    C2344137   0.901   7.394   4.429 -0.1427 -0.2611  0.0736
  138MOL    H2444138   1.053   7.629   4.712 -0.0790  0.6450 -1.6484
  138MOL    H2544139   1.244   7.413   4.807  1.4110  0.3320  0.4965
  138MOL    H2644140   1.156   7.513   4.899  0.0244 -0.4429 -0.0357
  138MOL    H2744141   1.285   7.587   4.802  0.7877 -0.9089  1.2176
  138MOL    H2844142   1.040   7.344   4.624 -0.3873  0.8369 -0.9709
  138MOL    H2944143   0.795   7.618   4.440  0.2850  0.1474  0.0816
  138MOL    H3044144   0.874   7.687   4.575  1.6909 -1.1298 -0.5840
  138MOL    H3144145   0.734   7.582   4.606 -0.6640  1.7552 -0.4397
  138MOL    H3244146   0.960   7.304   4.428  1.2756  0.6328  1.2005
  138MOL    H3344147   0.838   7.413   4.343 -0.8486  0.7119  0.7950
  138MOL    C3444148   0.905   7.393   4.783  0.5400 -0.6937  0.1700
  138MOL    C3544149   0.879   7.524   4.867 -0.2786  0.4944  0.8851
  138MOL    C3644150   0.969   7.284   4.878  0.0359 -0.1880 -0.0367
  138MOL    C3744151   1.036   7.175   4.804  0.0491  0.2548 -0.8999
  138MOL    C3844152   0.947   7.089   4.712 -0.3277  0.0687 -0.1426
  138MOL    C3944153   1.170   7.158   4.809 -0.8784 -1.2932 -0.5104
  138MOL    H4044154   0.808   7.353   4.754 -0.7662  2.1822  0.4150
  138MOL    H4144155   0.844   7.611   4.811 -0.5569 -1.0573 -1.4567
  138MOL    H4244156   0.953   7.554   4.940 -1.3662 -0.9243  2.5885
  138MOL    H4344157   0.787   7.514   4.924 -1.4134 -0.0965 -0.9882
  138MOL    H4444158   1.056   7.329   4.925 -1.3221  2.1417  0.3008
  138MOL    H4544159   0.881   7.023   4.768 -0.9924  0.9979  0.1949
  138MOL    H4644160   1.004   7.026   4.644  0.1801 -1.0365  1.2945
  138MOL    H4744161   0.880   7.143   4.644  0.8844 -0.2835 -1.6591
  138MOL    H4844162   1.243   7.209   4.871 -1.2435 -1.0070 -0.3203
  138MOL    H4944163   1.225   7.086   4.750  0.0448  0.5569 -1.9463
  138MOL    C5044164   0.891   7.232   5.001  0.6126  0.3373  0.1603
  138MOL    C5144165   0.743   7.211   4.973  0.0468 -0.0100  0.2553
  138MOL    C5244166   0.921   7.311   5.141  0.3472  0.3451 -0.1062
  138MOL    C5344167   1.070   7.315   5.192  0.3249 -0.4902  0.2432
  138MOL    C5444168   1.150   7.188   5.205 -0.1858  0.1822 -0.2096
  138MOL    C5544169   1.126   7.434   5.207 -0.4510 -0.6312  0.7721
  138MOL    H5644170   0.928   7.131   5.015  0.3630 -0.0510 -1.8064
  138MOL    H5744171   0.679   7.159   5.045  0.7031  1.1998  1.7468
  138MOL    H5844172   0.737   7.182   4.868  0.4693  2.4627 -0.4648
  138MOL    H5944173   0.708   7.314   4.973  0.3416  0.1925  4.1150
  138MOL    H6044174   0.910   7.415   5.108 -0.9939  0.2313 -0.0697
  138MOL    H6144175   1.257   7.210   5.202 -0.4831  2.1459  2.3219
  138MOL    H6244176   1.120   7.119   5.126  0.6698 -0.3728 -0.0565
  138MOL    H6344177   1.129   7.142   5.301  2.0526  1.5497  0.9718
  138MOL    H6444178   1.074   7.528   5.190  2.3066  0.7193 -0.6570
  138MOL    H6544179   1.230   7.448   5.233 -0.3774  1.8400 -0.6167
  138MOL    C6644180   0.834   7.287   5.270 -0.5365  0.0585  0.0136
  138MOL    C6744181   0.822   7.141   5.291 -1.1252  0.3069  0.0043
  138MOL    C6844182   0.699   7.366   5.276  0.4112  0.4292  0.2305
  138MOL    C6944183   0.723   7.519   5.266 -0.5368 -0.0143  0.5261
  138MOL    C7044184   0.626   7.587   5.170  0.6272  0.1129  0.0759
  138MOL    C7144185   0.829   7.586   5.320  0.2982  0.0242  0.2534
  138MOL    H7244186   0.893   7.317   5.357  0.4326 -0.3164 -0.5045
  138MOL    H7344187   0.907   7.087   5.249 -0.3630  1.7770 -0.3711
  138MOL    H7444188   0.742   7.098   5.231  1.7230 -0.0326 -3.7477
  138MOL    H7544189   0.807   7.115   5.396 -0.3381  0.8858  0.2690
  138MOL    H7644190   0.650   7.339   5.183  0.4701  0.8360  0.0816
  138MOL    H7744191   0.523   7.585   5.207  1.3320 -1.1478  2.0522
  138MOL    H7844192   0.634   7.522   5.083  2.2291  1.1792 -0.5994
  138MOL    H7944193   0.646   7.693   5.150  2.9276 -0.1050  1.0691
  138MOL    H8044194   0.895   7.536   5.389 -0.3271 -1.9569 -0.5445
  138MOL    H8144195   0.850   7.689   5.292  1.1840  0.0761  1.1017
  138MOL    C8244196   0.598   7.336   5.393 -0.1937 -0.3290  0.3577
  138MOL    C8344197   0.648   7.384   5.530 -0.6211  0.7077 -0.3487
  138MOL    C8444198   0.511   7.202   5.396 -0.5214  0.2106 -0.0926
  138MOL    C8544199   0.445   7.172   5.258  0.2829  0.1292  0.7828
  138MOL    C8644200   0.445   7.028   5.215  0.4583  0.3952 -0.4164
  138MOL    C8744201   0.393   7.267   5.184 -0.1816 -1.0697  0.5438
  138MOL    H8844202   0.522   7.411   5.371 -0.7999 -0.2631  2.5510
  138MOL    H8944203   0.564   7.391   5.599 -1.7594  0.8075 -1.7310
  138MOL    H9044204   0.710   7.474   5.529  1.2035 -0.5324 -0.1619
  138MOL    H9144205   0.709   7.308   5.577 -1.0857  1.1485  0.9850
  138MOL    H9244206   0.587   7.130   5.427 -2.1779 -1.1484  0.9386
  138MOL    H9344207   0.422   7.024   5.108 -5.3295 -0.8012  0.7013
  138MOL    H9444208   0.373   6.961   5.262  0.9233 -0.4438 -0.8900
  138MOL    H9544209   0.541   6.980   5.232  0.2203  0.7488  2.1145
  138MOL    H9644210   0.388   7.372   5.208 -0.0656 -0.1273 -3.2185
  138MOL    H9744211   0.353   7.238   5.088 -0.4530  2.1845 -0.4113
  138MOL    C9844212   0.401   7.169   5.515 -0.1537 -0.0158  0.6294
  138MOL    C9944213   0.321   7.294   5.556  0.7093 -0.0901 -0.0495
  138MOL   C10044214   0.459   7.099   5.642 -0.1612  0.7873 -0.4186
  138MOL   C10144215   0.549   6.974   5.610  0.0583 -0.0843 -0.2247
  138MOL   C10244216   0.686   6.972   5.670  0.0611  0.1769  0.0248
  138MOL   C10344217   0.516   6.879   5.522 -0.0938  0.2735  0.7585
  138MOL   H10444218   0.325   7.111   5.464  1.0644 -2.0518  1.0704
  138MOL   H10544219   0.360   7.358   5.635 -0.1559  0.3114  0.0577
  138MOL   H10644220   0.222   7.256   5.580  1.0379 -0.2131  1.1366
  138MOL   H10744221   0.309   7.358   5.468  0.3190 -1.1877 -0.8054
  138MOL   H10844222   0.524   7.163   5.701  0.8737 -0.8281  0.2314
  138MOL   H10944223   0.672   6.975   5.778  1.7839  1.0830  0.2355
  138MOL   H11044224   0.743   7.062   5.647  0.4359 -0.0336  0.1150
  138MOL   H11144225   0.750   6.893   5.629  1.3006  2.5510 -2.7709
  138MOL   H11244226   0.419   6.890   5.475  0.1546  0.8554  0.3596
  138MOL   H11344227   0.583   6.800   5.491  0.3107 -0.2277  2.8715
  138MOL   C11444228   0.349   7.051   5.751 -0.2432 -0.0509  0.2579
  138MOL   C11544229   0.222   6.982   5.688  0.0623 -0.1926  0.3048
  138MOL   C11644230   0.323   7.162   5.864  0.6059  0.4014  0.7437
  138MOL   C11744231   0.449   7.206   5.944  0.0407  0.5838 -0.0047
  138MOL   C11844232   0.484   7.354   5.968  0.7103  0.7015 -0.0086
  138MOL   C11944233   0.532   7.108   5.986  0.2691  0.2687 -0.6255
  138MOL   H12044234   0.394   6.967   5.803  1.7550  1.4360  1.0172
  138MOL   H12144235   0.159   6.934   5.763  1.8870 -0.9713  1.3748
  138MOL   H12244236   0.244   6.908   5.611 -0.3034 -0.2669  0.2732
  138MOL   H12344237   0.159   7.059   5.642  1.3552  0.8799  0.2961
  138MOL   H12444238   0.289   7.251   5.811  0.8010  0.3475  0.5261
  138MOL   H12544239   0.500   7.407   5.873  3.2477 -1.1589 -0.6705
  138MOL   H12644240   0.578   7.348   6.023  0.3208 -2.1963  0.4310
  138MOL   H12744241   0.409   7.405   6.028 -0.1243  0.0054 -0.4523
  138MOL   H12844242   0.520   7.004   5.959  1.3442  0.8331 -3.3731
  138MOL   H12944243   0.621   7.131   6.044  0.1318 -0.4833 -0.1070
  138MOL   C13044244   0.201   7.150   5.960  0.0742 -0.0756 -0.1350
  138MOL   C13144245   0.203   7.010   6.020 -0.4727 -0.3933  0.4699
  138MOL   C13244246   0.053   7.201   5.920  0.2176  0.2848 -0.1110
  138MOL   C13344247   0.068   7.351   5.898  0.3743  0.4677  0.0304
  138MOL   C13444248   0.013   7.408   5.767 -0.4406  0.6843 -0.3147
  138MOL   C13544249   0.121   7.433   5.993  0.4938  0.9199 -0.4688
  138MOL   H13644250   0.225   7.210   6.048  0.0541  0.0091 -0.1860
  138MOL   H13744251   0.137   7.001   6.106 -2.0197 -1.4591 -0.8074
  138MOL   H13844252   0.302   6.978   6.054 -0.7064 -1.7271 -0.0746
  138MOL   H13944253   0.171   6.931   5.952 -0.0750  1.1144 -1.5357
  138MOL   H14044254   0.040   7.149   5.825  0.3786  0.3196 -0.1508
  138MOL   H14144255   0.031   7.513   5.743 -1.1726  0.4883 -1.7637
  138MOL   H14244256   7.797   7.396   5.760 -0.1065 -1.2905 -2.5564
  138MOL   H14344257   0.042   7.352   5.678  1.4408 -0.0508  0.7197
  138MOL   H14444258   0.157   7.407   6.091 -0.1575  0.4343 -0.3572
  138MOL   H14544259   0.131   7.536   5.962  1.7470  1.0889  0.4529
  138MOL   C14644260   7.828   7.165   6.015 -0.3603  0.0066 -0.4575
  138MOL   C14744261   7.845   7.212   6.160 -0.1029  0.2151  0.2251
  138MOL   C14844262   7.770   7.018   6.003 -0.3392 -0.2833 -0.1787
  138MOL   C14944263   7.763   6.974   5.850  0.0727 -0.1729  0.1573
  138MOL   C15044264   7.678   7.069   5.759 -0.1184  0.6406  0.1232
  138MOL   C15144265   7.798   6.850   5.817  0.8339  0.2495 -0.5687
  138MOL   H15244266   7.743   7.219   5.975 -0.0251  0.7840 -0.1286
  138MOL   H15344267   7.758   7.186   6.222 -0.7975  1.9673  0.0069
  138MOL   H15444268   7.855   7.320   6.163 -0.9974  0.3447 -0.9137
  138MOL   H15544269   0.041   7.157   6.193  0.3795 -0.2411 -1.7833
  138MOL   H15644270   7.842   6.946   6.040  0.7574  0.3855 -0.9975
  138MOL   H15744271   7.691   7.049   5.652 -1.1555  1.9699 -0.2592
  138MOL   H15844272   7.694   7.175   5.776 -2.0742  1.0954 -0.7662
  138MOL   H15944273   7.571   7.058   5.775 -0.0091  2.0839  2.0220
  138MOL   H16044274   7.851   6.781   5.881  0.2449  0.8627  0.5882
  138MOL   H16144275   7.771   6.809   5.721 -0.1108 -0.5402  0.0198
  138MOL   C16244276   7.648   6.968   6.085  0.0398 -0.4545  0.0625
  138MOL   C16344277   7.531   7.077   6.097 -0.6782  0.7091  0.4434
  138MOL   C16444278   7.675   6.902   6.223 -0.2369 -0.0080 -0.4368
  138MOL   C16544279   7.806   6.811   6.240  0.8325 -0.1756  0.9061
  138MOL   C16644280   0.013   6.840   6.346 -0.1788  0.4954 -0.0604
  138MOL   C16744281   7.830   6.708   6.157 -0.4181  0.0340  0.2376
  138MOL   H16844282   7.607   6.881   6.034 -0.6418  0.1646 -0.4610
  138MOL   H16944283   7.530   7.133   6.190  0.8909  1.1710  0.2135
  138MOL   H17044284   7.434   7.034   6.073 -1.6770  2.8117  0.5353
  138MOL   H17144285   7.545   7.151   6.017  0.2150  1.4559  1.2724
  138MOL   H17244286   7.705   6.984   6.288  2.1984 -3.2049  2.7039
  138MOL   H17344287   0.014   6.949   6.355 -1.3045  0.8675 -3.5158
  138MOL   H17444288   0.116   6.811   6.326  0.0173  0.5924  0.8048
  138MOL   H17544289   7.871   6.805   6.443 -1.6223  1.8658 -0.0592
  138MOL   H17644290   7.774   6.674   6.071  0.8296 -1.1588 -0.1273
  138MOL   H17744291   0.027   6.650   6.176 -2.5229 -3.1665  0.8769
  138MOL   C17844292   7.553   6.834   6.292  0.0922 -0.0207 -0.0319
  138MOL   C17944293   7.469   6.742   6.196 -0.2957  0.0744 -0.6275
  138MOL   C18044294   7.448   6.922   6.376  0.3269  0.5227 -0.1305
  138MOL   C18144295   7.524   7.015   6.479  1.0810 -0.2653  0.3397
  138MOL   C18244296   7.455   7.154   6.497 -0.6990 -0.5098  0.2636
  138MOL   C18344297   7.639   6.984   6.549  0.0700  0.1762 -0.4744
  138MOL   H18444298   7.591   6.775   6.375  0.8797 -0.7399 -0.8969
  138MOL   H18544299   7.532   6.677   6.135 -1.8315 -0.0068 -2.1783
  138MOL   H18644300   7.399   6.804   6.139  1.4882  1.9471 -0.8437
  138MOL   H18744301   7.409   6.673   6.255  1.0101 -0.9989 -0.5296
  138MOL   H18844302   7.402   6.985   6.300 -0.0809  0.4943  0.0926
  138MOL   H18944303   7.353   7.146   6.536 -0.5201 -0.7253  0.6856
  138MOL   H19044304   7.442   7.220   6.411 -0.7623  1.2416  1.6061
  138MOL   H19144305   7.507   7.223   6.562  2.4875 -2.7750  0.2277
  138MOL   H19244306   7.678   6.883   6.540 -0.6998 -0.3452  1.7260
  138MOL   H19344307   7.691   7.056   6.610  1.6773 -1.3277 -0.0092
  138MOL   C19444308   7.331   6.843   6.449 -0.5699 -0.2748 -0.2693
  138MOL   C19544309   7.389   6.723   6.528 -0.5608 -0.1213 -0.2332
  138MOL   C19644310   7.200   6.813   6.369 -0.0098  1.5403 -0.1799
  138MOL   C19744311   7.146   6.940   6.289 -0.6904 -0.3827 -0.3118
  138MOL   C19844312   7.094   6.912   6.145 -0.0027  0.2828 -0.7308
  138MOL   C19944313   7.148   7.058   6.343  0.1857 -0.3127 -0.6480
  138MOL   H20044314   7.304   6.905   6.534 -0.3476 -0.0793 -0.3421
  138MOL   H20144315   7.415   6.634   6.471  1.7705 -1.7927  3.2595
  138MOL   H20244316   7.332   6.688   6.614  0.7441 -2.0670 -0.1358
  138MOL   H20344317   7.485   6.756   6.567 -0.8808 -0.2318  0.6621
  138MOL   H20444318   7.229   6.740   6.294  2.6210  0.1193  2.1032
  138MOL   H20544319   7.010   6.845   6.161 -0.0714  0.6132  0.3689
  138MOL   H20644320   7.179   6.876   6.088 -1.2794 -2.2121 -1.0981
  138MOL   H20744321   7.053   6.994   6.086  1.4125 -0.0897 -2.2533
  138MOL   H20844322   7.198   7.079   6.436 -0.5934  2.6849 -0.8524
  138MOL   H20944323   7.112   7.142   6.285  0.3738  2.0869  2.6147
  138MOL   C21044324   7.080   6.741   6.446  0.4054 -0.3569  0.3513
  138MOL   C21144325   7.049   6.813   6.578  0.6236  0.7134  0.2777
  138MOL   C21244326   7.087   6.583   6.470  0.1846  0.1397  0.3402
  138MOL   C21344327   7.129   6.509   6.350 -0.1979  0.1155  0.9073
  138MOL   C21444328   7.204   6.369   6.373  0.0475 -0.5405 -0.2692
  138MOL   C21544329   7.099   6.541   6.222 -0.8203  0.5596  0.4499
  138MOL   H21644330   7.003   6.764   6.372  1.8683  0.8432 -0.8571
  138MOL   H21744331   7.110   6.777   6.661 -0.8270 -0.3365  0.9050
  138MOL   H21844332   6.951   6.774   6.607 -0.1620  2.5251  0.1517
  138MOL   H21944333   7.038   6.920   6.565 -0.1713  0.8505  1.9856
  138MOL   H22044334   7.173   6.562   6.533 -1.3565 -1.2588  2.0456
  138MOL   H22144335   7.147   6.289   6.419 -1.0536  1.1228  1.3396
  138MOL   H22244336   7.294   6.379   6.435  0.3149 -0.0693 -0.7253
  138MOL   H22344337   7.247   6.334   6.280 -1.1371 -0.0451 -1.0136
  138MOL   H22444338   7.058   6.634   6.186 -0.2027 -0.1274 -2.2064
  138MOL   H22544339   7.121   6.474   6.140  2.8339  2.3552 -0.1310
  138MOL   C22644340   6.956   6.513   6.529 -0.0623 -0.4953  0.4708
  138MOL   C22744341   6.845   6.562   6.439  0.1607 -0.8837  0.6558
  138MOL   C22844342   6.933   6.506   6.687 -0.5566 -0.1686 -0.5464
  138MOL   C22944343   7.055   6.462   6.763 -0.3271  0.8348  0.3002
  138MOL   C23044344   7.100   6.317   6.741  0.7672  0.3809  0.3471
  138MOL   C23144345   7.128   6.533   6.843 -0.3509  0.3507  0.0151
  138MOL   H23244346   6.965   6.408   6.505  1.3195 -0.7615  2.0367
  138MOL   H23344347   6.770   6.483   6.448 -3.1208  2.1751  1.4091
  138MOL   H23444348   6.867   6.582   6.335  1.8568 -1.1707  0.9416
  138MOL   H23544349   6.811   6.658   6.477 -0.1223 -0.7553  0.0864
  138MOL   H23644350   6.922   6.607   6.727  0.6684  0.0310 -0.6893
  138MOL   H23744351   7.195   6.295   6.790  0.4023 -0.8927  0.4999
  138MOL   H23844352   7.122   6.302   6.635 -1.9453  1.1377 -0.3608
  138MOL   H23944353   7.030   6.240   6.772  0.9396  0.3962  0.7795
  138MOL   H24044354   7.106   6.637   6.862  0.4353  0.4264  0.5323
  138MOL   H24144355   7.209   6.485   6.896 -1.2563  1.5503  2.6060
  138MOL   C24244356   6.809   6.415   6.737  0.5670  0.2050 -0.1630
  138MOL   C24344357   6.780   6.293   6.647  0.2714  0.0534  0.6016
  138MOL   C24444358   6.677   6.497   6.765  0.4019  0.6244  0.0216
  138MOL   C24544359   6.700   6.616   6.859  0.3411 -0.3010 -1.2089
  138MOL   C24644360   6.717   6.582   7.005  0.2190  0.2667  0.2667
  138MOL   C24744361   6.699   6.745   6.815 -0.6149 -0.3765 -0.4418
  138MOL   H24844362   6.837   6.372   6.833  1.9379  1.7818  0.1663
  138MOL   H24944363   6.730   6.211   6.699 -0.0565  0.6011  1.1615
  138MOL   H25044364   6.877   6.256   6.613 -0.4301 -1.0189 -0.2581
  138MOL   H25144365   6.723   6.324   6.559  0.6857 -0.1758  0.2529
  138MOL   H25244366   6.644   6.542   6.671 -1.0772  1.3881  0.8914
  138MOL   H25344367   6.740   6.671   7.064 -2.6586 -0.9492  3.4045
  138MOL   H25444368   6.796   6.511   7.029 -1.0670 -0.6354  1.8998
  138MOL   H25544369   6.628   6.532   7.043  0.5320 -0.6071 -0.1542
  138MOL   H25644370   6.671   6.758   6.712 -0.3044  0.7979 -0.3803
  138MOL   H25744371   6.707   6.833   6.878  3.2694 -1.4845  0.7337
  138MOL   C25844372   6.551   6.411   6.818  0.2805 -1.2265 -0.1699
  138MOL   C25944373   6.590   6.304   6.919 -0.5599  0.0083 -0.0290
  138MOL   C26044374   6.465   6.345   6.702  0.7159 -0.7674  0.0614
  138MOL   C26144375   6.419   6.447   6.595  0.6189 -0.8067 -0.5194
  138MOL   C26244376   6.384   6.398   6.459 -0.7726 -0.2817  0.0200
  138MOL   C26344377   6.386   6.575   6.624  0.1958  0.6078  0.0531
  138MOL   H26444378   6.477   6.477   6.863  0.6004  0.0909 -1.5119
  138MOL   H26544379   6.506   6.301   6.988  0.7013 -0.3025  1.5407
  138MOL   H26644380   6.680   6.333   6.974 -0.1924 -3.0271  1.0601
  138MOL   H26744381   6.617   6.202   6.891  0.9849  0.2272  0.6069
  138MOL   H26844382   6.529   6.275   6.648 -0.6376 -1.8022 -0.2054
  138MOL   H26944383   6.390   6.474   6.381  0.5265 -0.8800 -0.4786
  138MOL   H27044384   6.279   6.367   6.460 -0.1937 -2.2907 -0.0093
  138MOL   H27144385   6.443   6.320   6.411  0.2801 -0.1316  1.0350
  138MOL   H27244386   6.392   6.624   6.720  0.6151  1.2745 -0.3054
  138MOL   H27344387   6.338   6.636   6.549 -1.8342  1.0573  1.6923
  138MOL   C27444388   6.333   6.256   6.744  0.0080  0.6713  0.5416
  138MOL   C27544389   6.252   6.319   6.859  0.1870  0.2258 -0.9040
  138MOL   C27644390   6.360   6.103   6.780  0.2540  0.2707  0.3682
  138MOL   C27744391   6.438   6.037   6.666 -0.0325 -0.4455 -0.5874
  138MOL   C27844392   6.558   5.957   6.711 -0.1377  0.4971 -0.1721
  138MOL   C27944393   6.412   6.046   6.535 -0.4216  0.1918  0.3230
  138MOL   H28044394   6.265   6.265   6.659 -2.3063 -2.3275  1.9730
  138MOL   H28144395   6.256   6.427   6.848 -3.0692  0.4006 -0.7215
  138MOL   H28244396   6.299   6.302   6.956 -0.2177  1.2892 -0.5106
  138MOL   H28344397   6.145   6.301   6.862  0.5334 -2.0808 -1.6250
  138MOL   H28444398   6.429   6.104   6.865  3.8216  0.8778 -2.3964
  138MOL   H28544399   6.612   5.920   6.624  0.0082 -0.2069  0.2096
  138MOL   H28644400   6.515   5.871   6.763 -0.6870  0.0970 -1.2681
  138MOL   H28744401   6.632   6.019   6.762  0.2033 -0.3384  0.3587
  138MOL   H28844402   6.334   6.102   6.487 -1.4848 -0.1333  1.6580
  138MOL   H28944403   6.481   5.998   6.466 -0.0012  2.2418 -0.7171
  138MOL   C29044404   6.228   6.022   6.818 -0.1436  0.1952  0.1468
  138MOL   C29144405   6.112   6.042   6.716  0.9548 -0.0836  0.0986
  138MOL   C29244406   6.191   6.032   6.970  0.2272  0.2650 -0.4580
  138MOL   C29344407   6.305   6.014   7.071  0.2381 -0.5912 -0.4792
  138MOL   C29444408   6.314   6.116   7.176 -0.1838 -0.2048 -0.6497
  138MOL   C29544409   6.405   5.922   7.058  0.0797 -0.5607 -0.3210
  138MOL   H29644410   6.258   5.920   6.795  3.5758  1.1016  0.6527
  138MOL   H29744411   6.050   5.952   6.715  1.8061 -0.6863  0.3087
  138MOL   H29844412   6.152   6.058   6.616  0.1784 -1.8394 -0.5221
  138MOL   H29944413   6.035   6.116   6.734  1.5316  0.2069  1.4280
  138MOL   H30044414   6.158   6.134   6.985  0.3606  0.4592 -1.4419
  138MOL   H30144415   6.214   6.123   7.218 -0.2177 -1.5449 -0.5102
  138MOL   H30244416   6.361   6.208   7.142 -1.2015 -0.0509 -1.6626
  138MOL   H30344417   6.381   6.067   7.247 -1.9697 -0.5788  0.8076
  138MOL   H30444418   6.412   5.850   6.977  0.7324 -2.1873  1.1392
  138MOL   H30544419   6.490   5.915   7.125  0.1641  1.2615 -0.2164
  138MOL   C30644420   6.063   5.953   7.012  0.7597 -0.4379 -0.1261
  138MOL   C30744421   6.009   6.022   7.143 -0.0859  0.1307  0.4337
  138MOL   C30844422   6.093   5.805   7.036 -0.0086  0.6566  0.3686
  138MOL   C30944423   6.061   5.726   6.913 -0.1781  0.4627  0.0946
  138MOL   C31044424   5.920   5.710   6.868 -0.5675  0.2335 -0.1006
  138MOL   C31144425   6.158   5.672   6.834  0.1920 -0.4595  0.4212
  138MOL   H31244426   5.984   5.944   6.937  1.0209  1.7224 -0.6931
  138MOL   H31344427   6.058   5.986   7.233  3.0639  0.0293 -1.2708
  138MOL   H31444428   5.905   5.992   7.158 -0.7745  1.0797 -2.0933
  138MOL   H31544429   5.996   6.129   7.130  0.9719 -0.1072 -3.0432
  138MOL   H31644430   6.188   5.788   7.086  0.2244  2.1905  0.4907
  138MOL   H31744431   5.883   5.804   6.827  1.1680  2.0829  2.4805
  138MOL   H31844432   5.852   5.660   6.938  0.3793 -0.4140  0.3631
  138MOL   H31944433   5.918   5.635   6.789 -3.1721 -0.6988  0.7717
  138MOL   H32044434   6.264   5.690   6.848  0.3274 -1.9763  1.4780
  138MOL   H32144435   6.134   5.606   6.752 -0.6199 -0.8012  0.9223
  138MOL   H32244436   6.025   5.765   7.111  1.2745 -0.1523  1.1003
  139MOL     C144437   6.352   6.109   4.006 -0.3091  0.4137 -0.3333
  139MOL     C244438   6.292   6.012   4.109 -0.4557  0.4286 -0.1225
  139MOL     C344439   6.258   6.220   3.963 -0.4026 -0.2079  0.5540
  139MOL     C444440   6.122   6.169   3.911  0.3095  0.4617  0.4172
  139MOL     C544441   6.002   6.245   3.968 -0.0295 -0.3844 -0.1707
  139MOL     C644442   6.103   6.062   3.830 -0.6533 -0.0715 -0.4499
  139MOL     H744443   6.447   6.150   4.042 -1.8230  3.6278  0.2132
  139MOL     H844444   6.252   6.060   4.199  1.1793 -0.5463  1.1531
  139MOL     H944445   6.358   5.933   4.145 -4.6117 -3.0960  0.2159
  139MOL    H1044446   6.208   5.953   4.071 -0.4911 -0.0034  0.6109
  139MOL    H1144447   6.242   6.271   4.058 -0.5991  0.7846 -0.0113
  139MOL    H1244448   5.991   6.337   3.911  0.2915  0.1079  0.5583
  139MOL    H1344449   6.001   6.266   4.074 -1.7681  0.0187 -0.2549
  139MOL    H1444450   5.916   6.178   3.971 -0.0708 -0.2814  1.3157
  139MOL    H1544451   6.180   6.000   3.789 -0.3296  0.9530 -1.4365
  139MOL    H1644452   5.999   6.034   3.817 -1.0900  1.0529  0.4556
  139MOL    H1744453   6.383   6.042   3.925 -1.3950  1.1432 -1.3676
  139MOL    C1844454   6.311   6.329   3.864  0.3582  0.2255  0.1493
  139MOL    C1944455   6.352   6.269   3.733  0.4497 -0.4646  0.3297
  139MOL    C2044456   6.400   6.445   3.920 -1.0425  0.4047  0.1487
  139MOL    C2144457   6.532   6.404   3.996  0.6190 -0.4092 -0.1011
  139MOL    C2244458   6.661   6.397   3.914 -0.2013 -0.0283 -0.1112
  139MOL    C2344459   6.531   6.382   4.128  0.5747 -0.3169  0.1290
  139MOL    H2444460   6.223   6.388   3.839 -0.4294 -0.3285  1.5287
  139MOL    H2544461   6.433   6.199   3.751 -0.2137 -1.4194 -0.3464
  139MOL    H2644462   6.382   6.353   3.671  0.8216 -0.7484  0.1232
  139MOL    H2744463   6.289   6.204   3.672  1.8486  0.1534 -1.8339
  139MOL    H2844464   6.437   6.500   3.834 -2.3854  0.2918 -0.5015
  139MOL    H2944465   6.667   6.318   3.840  0.3744  0.2562 -0.3733
  139MOL    H3044466   6.745   6.381   3.982 -1.0934 -0.0956  0.9841
  139MOL    H3144467   6.692   6.485   3.857 -1.2395 -0.2755 -1.0605
  139MOL    H3244468   6.437   6.401   4.177  1.5947  3.2901  0.8456
  139MOL    H3344469   6.621   6.354   4.182  0.1831  1.3635  1.6868
  139MOL    C3444470   6.339   6.571   3.985  0.1971 -0.4677  0.0252
  139MOL    C3544471   6.223   6.617   3.901 -0.0698  1.0758 -0.3060
  139MOL    C3644472   6.432   6.690   4.022  0.2210  0.3175  0.1263
  139MOL    C3744473   6.377   6.753   4.153 -1.1681 -0.6950  0.9309
  139MOL    C3844474   6.450   6.720   4.276 -0.0888 -0.1142  0.0449
  139MOL    C3944475   6.292   6.851   4.156 -0.7551  0.2082 -0.2332
  139MOL    H4044476   6.287   6.532   4.073 -0.7625 -1.6597 -1.0551
  139MOL    H4144477   6.239   6.638   3.796  0.4003 -0.7458 -0.6152
  139MOL    H4244478   6.201   6.721   3.927  1.2992  1.5630 -1.0126
  139MOL    H4344479   6.131   6.559   3.907 -0.3808  1.5890 -0.0253
  139MOL    H4444480   6.527   6.645   4.052 -0.4548 -1.2763 -0.0761
  139MOL    H4544481   6.393   6.740   4.367 -1.3415 -0.3261 -0.6744
  139MOL    H4644482   6.548   6.766   4.285  0.6528 -1.3880 -1.3057
  139MOL    H4744483   6.472   6.614   4.266 -1.2372 -0.3286 -0.2757
  139MOL    H4844484   6.238   6.899   4.076 -0.5141  2.0763  0.7066
  139MOL    H4944485   6.267   6.884   4.256  1.0130 -1.3699  0.7571
  139MOL    C5044486   6.476   6.804   3.927  0.2446  0.5351 -0.6079
  139MOL    C5144487   6.526   6.751   3.794  0.4761 -0.3086 -0.1719
  139MOL    C5244488   6.574   6.914   3.980 -0.7745  0.5711  0.1160
  139MOL    C5344489   6.539   7.054   3.912  0.6097  0.9819 -1.1926
  139MOL    C5444490   6.428   7.130   3.976  0.6200 -0.1249 -0.0411
  139MOL    C5544491   6.590   7.099   3.795  0.1954 -0.4015  0.5037
  139MOL    H5644492   6.380   6.852   3.907  0.2930  1.2033  0.6962
  139MOL    H5744493   6.440   6.722   3.733  0.9491 -1.6647 -0.2108
  139MOL    H5844494   6.604   6.676   3.784 -0.5289 -1.3510 -0.2877
  139MOL    H5944495   6.566   6.825   3.726  0.5527 -0.5704 -0.4117
  139MOL    H6044496   6.552   6.931   4.085 -1.0770 -0.6454  0.2546
  139MOL    H6144497   6.346   7.142   3.905 -0.6412  0.6530  1.5311
  139MOL    H6244498   6.452   7.235   3.994  1.1711 -0.6789  2.6540
  139MOL    H6344499   6.397   7.086   4.071  1.9503 -0.3127  0.3160
  139MOL    H6444500   6.672   7.051   3.744 -0.6255  1.3789 -2.6461
  139MOL    H6544501   6.546   7.189   3.755 -2.2494 -2.4441 -1.5978
  139MOL    C6644502   6.736   6.891   3.998 -0.0422  0.3930  0.2914
  139MOL    C6744503   6.769   6.785   4.105 -0.3216  0.6842  0.6162
  139MOL    C6844504   6.831   7.014   4.004 -0.9164 -0.0123 -0.5019
  139MOL    C6944505   6.961   6.984   3.928  0.4559 -0.1642  1.1153
  139MOL    C7044506   7.061   6.888   3.978  0.6778  0.1306  0.1361
  139MOL    C7144507   6.979   7.034   3.806  1.1189  0.8049 -0.3513
  139MOL    H7244508   6.766   6.845   3.903 -1.1494  0.1191  0.0650
  139MOL    H7344509   6.731   6.806   4.205 -2.4713 -0.5722  0.0909
  139MOL    H7444510   6.877   6.777   4.121 -0.4592 -0.1230  1.2189
  139MOL    H7544511   6.742   6.684   4.073  2.5760 -0.0490  0.2440
  139MOL    H7644512   6.789   7.102   3.956  0.1494  1.0432  0.4941
  139MOL    H7744513   7.157   6.883   3.928  0.5662 -2.6311  0.1304
  139MOL    H7844514   7.018   6.789   3.963 -0.3747  0.5347  0.4356
  139MOL    H7944515   7.085   6.895   4.084  0.4343  1.7035  0.1004
  139MOL    H8044516   6.912   7.107   3.762 -1.7840 -2.1189 -0.9801
  139MOL    H8144517   7.062   6.996   3.748  0.7585 -2.3745  1.1171
  139MOL    C8244518   6.850   7.068   4.146 -0.5917  0.1778  0.6542
  139MOL    C8344519   6.716   7.100   4.225  0.3345 -1.2577  0.8171
  139MOL    C8444520   6.955   7.187   4.152  0.5949 -0.4308  0.2539
  139MOL    C8544521   7.029   7.176   4.283 -0.0988  0.2129  0.0425
  139MOL    C8644522   6.957   7.232   4.405 -0.0003  0.3335 -0.2660
  139MOL    C8744523   7.155   7.119   4.287  0.0379  0.2249 -0.2114
  139MOL    H8844524   6.886   6.992   4.216  0.5423 -1.6402 -1.8402
  139MOL    H8944525   6.726   7.161   4.315 -0.3397 -0.6374  0.4778
  139MOL    H9044526   6.681   7.003   4.260  1.3808 -1.4212  1.4300
  139MOL    H9144527   6.642   7.140   4.155  1.9288 -0.2010 -0.2935
  139MOL    H9244528   7.028   7.170   4.073 -1.3302 -0.7670 -1.4982
  139MOL    H9344529   6.877   7.301   4.380 -1.2560 -0.2473  1.9356
  139MOL    H9444530   7.042   7.269   4.462 -0.1232 -0.9857  0.8167
  139MOL    H9544531   6.903   7.158   4.466 -1.3490  0.8499 -0.8220
  139MOL    H9644532   7.203   7.079   4.199 -0.7618 -2.0327  0.3248
  139MOL    H9744533   7.214   7.115   4.377 -2.2938  0.4926  1.3780
  139MOL    C9844534   6.899   7.334   4.119  0.0925  0.1893 -1.0691
  139MOL    C9944535   6.833   7.354   3.979  0.0110 -0.9758  0.0013
  139MOL   C10044536   6.987   7.454   4.159  0.3978 -0.4840  0.4173
  139MOL   C10144537   6.907   7.579   4.215 -0.2309  0.4251  0.1014
  139MOL   C10244538   6.800   7.650   4.131  0.1048  0.0611  0.2406
  139MOL   C10344539   6.918   7.610   4.346 -0.1301  0.2564  0.3446
  139MOL   H10444540   6.809   7.340   4.181 -0.7109 -1.2080 -2.0835
  139MOL   H10544541   6.878   7.290   3.903 -0.1380 -0.8527 -0.1897
  139MOL   H10644542   6.844   7.456   3.942 -0.4943 -0.7019  0.5969
  139MOL   H10744543   6.727   7.330   3.982 -0.1628 -0.3690 -1.1108
  139MOL   H10844544   7.045   7.421   4.246 -0.6109 -1.9751  0.5380
  139MOL   H10944545   6.728   7.591   4.076  0.4315  0.2249 -0.3711
  139MOL   H11044546   6.849   7.716   4.059  0.4548  0.5274  0.8943
  139MOL   H11144547   6.739   7.729   4.174  1.0646  1.6930 -1.2959
  139MOL   H11244548   6.996   7.557   4.399  0.8604  1.3740  0.0449
  139MOL   H11344549   6.860   7.686   4.396  1.6712  1.7246  0.2913
  139MOL   C11444550   7.094   7.511   4.058  0.6162 -0.4896 -0.1471
  139MOL   C11544551   7.160   7.402   3.969 -0.4563 -0.6743  1.0363
  139MOL   C11644552   7.195   7.618   4.120 -0.4705 -0.3966  0.3768
  139MOL   C11744553   7.215   7.725   4.020  0.3978  0.2156 -1.1777
  139MOL   C11844554   7.107   7.835   4.022  0.5351  0.1358  0.0869
  139MOL   C11944555   7.313   7.731   3.933  0.8077  0.3921 -0.0590
  139MOL   H12044556   7.033   7.568   3.988  2.2804 -0.3915 -1.5232
  139MOL   H12144557   7.081   7.375   3.899  1.7186 -0.7820 -1.4595
  139MOL   H12244558   7.196   7.316   4.026  0.7272  0.0837  1.4688
  139MOL   H12344559   7.238   7.445   3.906 -0.7645 -2.0850 -0.3232
  139MOL   H12444560   7.144   7.677   4.197  0.0235  0.7709 -0.1786
  139MOL   H12544561   7.091   7.872   4.123  0.5349 -0.3525  0.2671
  139MOL   H12644562   7.014   7.791   3.987  0.4519  0.8441 -0.5832
  139MOL   H12744563   7.129   0.024   3.953  1.0075 -3.2705 -3.9829
  139MOL   H12844564   7.388   7.654   3.919 -0.8338 -1.3555  0.5076
  139MOL   H12944565   7.314   7.810   3.859  0.7918 -0.5791 -1.1124
  139MOL   C13044566   7.321   7.563   4.197 -0.0621 -1.0202 -0.1601
  139MOL   C13144567   7.314   7.424   4.267  0.0101 -1.2340 -0.0876
  139MOL   C13244568   7.414   7.670   4.262  0.4757  0.2125 -0.2563
  139MOL   C13344569   7.565   7.635   4.243  0.2581  0.2487  0.1781
  139MOL   C13444570   7.637   7.710   4.134  0.5866 -0.1183 -0.2468
  139MOL   C13544571   7.628   7.546   4.322 -0.4019  0.0293  0.3008
  139MOL   H13644572   7.384   7.539   4.112 -0.5999 -1.1139 -0.5341
  139MOL   H13744573   7.321   7.341   4.197  1.5439 -1.0644 -0.1569
  139MOL   H13844574   7.228   7.419   4.333 -0.5607  0.2191 -0.6937
  139MOL   H13944575   7.400   7.411   4.333  0.7630 -1.9118 -1.1960
  139MOL   H14044576   7.419   7.757   4.197  0.6534 -0.6815 -1.4504
  139MOL   H14144577   7.645   7.819   4.143 -2.9328  0.2264 -0.5940
  139MOL   H14244578   7.591   7.693   4.037  1.7607  0.2165 -0.8773
  139MOL   H14344579   7.739   7.670   4.134  0.6065 -0.0918 -1.4500
  139MOL   H14444580   7.574   7.501   4.404 -2.6774  0.9540 -0.6557
  139MOL   H14544581   7.734   7.525   4.320  0.3138  3.3350  0.5272
  139MOL   C14644582   7.373   7.740   4.398  0.3011  0.0909 -0.0976
  139MOL   C14744583   7.293   7.644   4.489  0.0439  0.7278 -0.0591
  139MOL   C14844584   7.316   7.888   4.384 -0.1773  0.2101 -0.0873
  139MOL   C14944585   7.430   0.095   4.349  0.5040  0.0346  0.1228
  139MOL   C15044586   7.392   0.204   4.244  0.2144 -0.4910  0.3599
  139MOL   C15144587   7.552   0.095   4.403  0.6315  0.5855  0.6145
  139MOL   H15244588   7.464   7.756   4.454 -0.4617 -0.8540  1.4264
  139MOL   H15344589   7.194   7.640   4.443 -0.0085  1.5247 -0.0264
  139MOL   H15444590   7.277   7.680   4.590 -2.7005 -1.9139  0.5104
  139MOL   H15544591   7.335   7.545   4.506 -1.6689 -0.1140 -0.5662
  139MOL   H15644592   7.247   7.891   4.300  1.1705 -0.4562 -1.2246
  139MOL   H15744593   7.419   0.164   4.147  0.1969  1.7467 -0.6076
  139MOL   H15844594   7.460   0.286   4.268  0.1851 -0.4689  0.3643
  139MOL   H15944595   7.287   0.234   4.244  0.1333 -0.7739 -0.2961
  139MOL   H16044596   7.579   0.030   4.485 -1.6478 -0.2084  0.7714
  139MOL   H16144597   7.632   0.158   4.368  1.4207 -0.8675 -0.2099
  139MOL   C16244598   7.230   0.047   4.508 -0.3736 -0.0981 -0.6254
  139MOL   C16344599   7.132   0.154   4.465  0.6555 -0.6060 -0.0543
  139MOL   C16444600   7.285   0.059   4.661 -0.2425  0.3147 -0.5780
  139MOL   C16544601   7.207   7.867   4.763 -0.5106  0.9838 -0.0905
  139MOL   C16644602   7.053   7.887   4.770 -0.1655 -0.0422  0.2391
  139MOL   C16744603   7.266   7.783   4.848  0.9307 -0.3947 -1.0362
  139MOL   H16844604   7.165   7.852   4.509  2.7346 -2.4938  0.5364
  139MOL   H16944605   7.084   0.121   4.373 -1.0999 -0.4139  0.7704
  139MOL   H17044606   7.175   0.252   4.447  1.2460 -0.9416 -0.4925
  139MOL   H17144607   7.058   0.154   4.545  0.3703 -1.0272 -0.3119
  139MOL   H17244608   7.388   0.024   4.671 -0.2243  0.1574 -1.2991
  139MOL   H17344609   7.007   7.835   4.854 -0.2713 -1.0971 -0.4667
  139MOL   H17444610   6.999   7.857   4.680 -1.4476 -1.0652  1.3183
  139MOL   H17544611   7.030   0.099   4.792  2.6671  0.9657 -1.3913
  139MOL   H17644612   7.373   7.765   4.840  0.7787 -0.6777 -2.6736
  139MOL   H17744613   7.211   7.730   4.924  1.2035 -2.1140 -2.0008
  139MOL   C17844614   7.299   0.209   4.709  0.2179  0.0916 -0.2059
  139MOL   C17944615   7.405   0.285   4.632 -0.1564 -0.7539 -0.0438
  139MOL   C18044616   7.302   0.238   4.869 -0.3085 -0.3122 -0.5512
  139MOL   C18144617   7.194   0.347   4.910 -0.4746 -0.5400  0.4566
  139MOL   C18244618   7.215   0.487   4.850  0.8897  0.0071 -0.0402
  139MOL   C18344619   7.100   0.320   5.007 -0.3578  0.2538  0.6317
  139MOL   H18444620   7.210   0.268   4.686 -0.3041  0.1075  1.7341
  139MOL   H18544621   7.510   0.255   4.632  0.2415  0.5315  1.3653
  139MOL   H18644622   7.407   0.388   4.668  2.4833 -0.9740  0.5299
  139MOL   H18744623   7.383   0.292   4.526  0.9716 -0.9234 -0.2964
  139MOL   H18844624   7.273   0.146   4.918  0.5952 -0.9522 -1.1959
  139MOL   H18944625   7.299   0.545   4.887 -0.3556  1.2467  0.8868
  139MOL   H19044626   7.136   0.555   4.883  0.7739 -1.0078  1.8467
  139MOL   H19144627   7.216   0.484   4.741  0.9320 -0.3614 -0.0289
  139MOL   H19244628   7.097   0.225   5.058  1.1134 -1.1372 -1.7719
  139MOL   H19344629   7.032   0.394   5.046  1.0662  0.3770  2.9943
  139MOL   C19444630   7.447   0.265   4.928 -1.0334 -0.0047  0.1274
  139MOL   C19544631   7.536   0.139   4.913  0.1725  0.1103 -0.5643
  139MOL   C19644632   7.472   0.327   5.071 -0.6072  0.3255  0.7402
  139MOL   C19744633   7.573   0.436   5.060 -0.6986  0.2983  0.0547
  139MOL   C19844634   7.721   0.389   5.045  0.0807 -0.3904 -0.1129
  139MOL   C19944635   7.545   0.562   5.069  0.0726  0.0419 -0.2989
  139MOL   H20044636   7.488   0.340   4.862 -2.8998  0.5024 -0.4993
  139MOL   H20144637   7.531   0.106   4.809 -1.7083 -0.0418 -0.4469
  139MOL   H20244638   7.501   0.055   4.974  1.0828  1.2238  1.5134
  139MOL   H20344639   7.638   0.151   4.949  0.7431 -1.7569 -1.4922
  139MOL   H20444640   7.377   0.375   5.092 -1.0667 -1.0098  1.8160
  139MOL   H20544641   7.746   0.339   4.951 -0.4272  0.7557 -0.8719
  139MOL   H20644642   7.745   0.323   5.129  0.4066  0.5585  0.5474
  139MOL   H20744643   7.793   0.470   5.058 -2.5089  1.7631  1.4839
  139MOL   H20844644   7.439   0.582   5.063 -0.0162  0.1923  1.4586
  139MOL   H20944645   7.617   0.642   5.079  0.3895 -0.4067  1.2431
  139MOL   C21044646   7.483   0.230   5.200 -1.0861 -0.2525  0.3227
  139MOL   C21144647   7.356   0.137   5.214  0.0591 -0.0854  0.4681
  139MOL   C21244648   7.527   0.309   5.343  0.1216 -0.3684  0.6147
  139MOL   C21344649   7.613   0.217   5.427  0.0362  0.7347  0.3307
  139MOL   C21444650   7.766   0.230   5.417 -0.0037 -0.2182 -0.1365
  139MOL   C21544651   7.569   0.113   5.493 -0.3608 -0.3350  0.1991
  139MOL   H21644652   7.570   0.167   5.181 -1.4887 -0.0461 -2.4042
  139MOL   H21744653   7.359   0.098   5.315 -1.0773  0.1593  0.6065
  139MOL   H21844654   7.368   0.053   5.145 -2.0893 -0.5466  0.6124
  139MOL   H21944655   7.258   0.177   5.189 -0.9462 -1.5157  2.0105
  139MOL   H22044656   7.594   0.392   5.320 -0.5610 -0.3723 -1.5598
  139MOL   H22144657   7.801   0.193   5.320  0.0427  0.7489 -0.4926
  139MOL   H22244658   7.821   0.183   5.498 -1.5400 -1.1393  0.3726
  139MOL   H22344659   7.785   0.336   5.436  0.4138 -0.7798  2.7303
  139MOL   H22444660   7.464   0.088   5.493 -0.9137  1.8661  0.9930
  139MOL   H22544661   7.623   0.035   5.544 -1.5799 -2.1907 -1.2517
  139MOL   C22644662   7.406   0.363   5.430  0.3847 -0.0113 -0.6986
  139MOL   C22744663   7.302   0.452   5.356  0.1082  0.0123 -0.5440
  139MOL   C22844664   7.457   0.427   5.565 -0.2430  0.6129 -0.3402
  139MOL   C22944665   7.356   0.390   5.674  0.2170 -0.2099 -0.3380
  139MOL   C23044666   7.223   0.472   5.679  0.0780 -0.5914  0.4085
  139MOL   C23144667   7.376   0.294   5.764  0.1779 -0.2500  0.0596
  139MOL   H23244668   7.353   0.271   5.453  1.4391 -0.5520 -0.4145
  139MOL   H23344669   7.213   0.480   5.413  0.7574 -1.3275  1.1751
  139MOL   H23444670   7.266   0.395   5.271 -0.7472  1.3938 -1.1295
  139MOL   H23544671   7.351   0.539   5.314  1.7675 -0.8205 -0.3694
  139MOL   H23644672   7.552   0.379   5.590 -1.2439 -2.4300 -2.0305
  139MOL   H23744673   7.155   0.432   5.604 -1.3517 -1.2710  2.0444
  139MOL   H23844674   7.238   0.579   5.666 -0.0622 -0.2377  2.8464
  139MOL   H23944675   7.172   0.452   5.773  0.3223 -0.7349  0.5107
  139MOL   H24044676   7.465   0.233   5.760 -0.5553 -1.3637  0.3871
  139MOL   H24144677   7.299   0.274   5.837 -0.1698 -0.6505 -0.4103
  139MOL   C24244678   7.501   0.573   5.558 -0.3862  0.1298 -0.8361
  139MOL   C24344679   7.623   0.598   5.472 -0.3632 -0.1757 -0.0574
  139MOL   C24444680   7.513   0.652   5.692 -0.1926 -0.0627  0.1484
  139MOL   C24544681   7.463   0.796   5.670 -0.1269 -0.0762 -0.6333
  139MOL   C24644682   7.320   0.830   5.705  0.7643  0.1766  0.0578
  139MOL   C24744683   7.533   0.891   5.602  0.4250  0.6544  0.4090
  139MOL   H24844684   7.428   0.632   5.501  0.6692  2.3998  0.0946
  139MOL   H24944685   7.588   0.613   5.370  0.3676  0.9226 -0.1584
  139MOL   H25044686   7.690   0.512   5.482 -0.4304 -0.1581  0.5504
  139MOL   H25144687   7.682   0.690   5.479  1.0880 -1.2344  2.0679
  139MOL   H25244688   7.449   0.607   5.768  1.8016  0.6533  2.3068
  139MOL   H25344689   7.293   0.782   5.800  2.9481 -0.8319  0.1884
  139MOL   H25444690   7.251   0.789   5.631 -0.5579  1.0949  0.7534
  139MOL   H25544691   7.311   0.938   5.702  1.3070  0.2857  1.9457
  139MOL   H25644692   7.631   0.869   5.563  0.1651  2.3619 -1.2958
  139MOL   H25744693   7.492   0.989   5.582 -1.1491 -0.3915 -1.7789
  139MOL   C25844694   7.652   0.659   5.768 -1.1679 -0.3852 -0.1903
  139MOL   C25944695   7.722   0.520   5.788  0.2477  0.4026 -0.5081
  139MOL   C26044696   7.658   0.743   5.905 -0.1662 -0.3254  0.2427
  139MOL   C26144697   7.793   0.822   5.914  0.1524  0.0515  0.0210
  139MOL   C26244698   7.790   0.957   5.835 -0.2840  0.1912  0.2481
  139MOL   C26344699   0.009   0.780   5.977  0.1069 -0.2068 -0.4874
  139MOL   H26444700   7.721   0.702   5.695 -1.3047 -1.7886 -1.1566
  139MOL   H26544701   7.766   0.488   5.693  0.1862  1.1990 -0.8098
  139MOL   H26644702   7.657   0.440   5.823 -0.1632  0.0685 -2.0063
  139MOL   H26744703   7.804   0.521   5.860 -0.5414  0.0232  0.4041
  139MOL   H26844704   7.578   0.817   5.897  0.2205  0.0954  0.2665
  139MOL   H26944705   7.768   0.940   5.730 -0.8737  3.4151 -0.1976
  139MOL   H27044706   7.885   1.009   5.842 -0.5939  1.0637 -1.8439
  139MOL   H27144707   7.716   1.026   5.875  0.8191  2.7514 -2.0171
  139MOL   H27244708   0.016   0.680   6.016  0.6141 -0.7378 -1.9179
  139MOL   H27344709   0.097   0.843   5.989  0.0697 -0.5730  2.0499
  139MOL   C27444710   7.628   0.668   6.036  0.2839 -1.0441 -0.5125
  139MOL   C27544711   7.508   0.562   6.049  0.7477  0.2809 -0.1572
  139MOL   C27644712   7.629   0.764   6.164 -0.3169  0.0676  0.6239
  139MOL   C27744713   7.708   0.694   6.275 -0.5798 -0.1316  0.1765
  139MOL   C27844714   7.639   0.586   6.348  0.0717  0.0031 -0.5020
  139MOL   C27944715   7.827   0.734   6.318  0.2849  0.2688 -0.0701
  139MOL   H28044716   7.716   0.607   6.055  0.9355  0.2059  0.5719
  139MOL   H28144717   7.428   0.590   5.980  0.1015  0.1174  0.5139
  139MOL   H28244718   7.450   0.548   6.141 -0.0608 -0.0960 -0.7192
  139MOL   H28344719   7.529   0.459   6.021  0.2987  0.2439 -0.3593
  139MOL   H28444720   7.693   0.849   6.141  0.8302 -0.9837 -0.1200
  139MOL   H28544721   7.709   0.551   6.423  0.0988  0.5808 -0.2560
  139MOL   H28644722   7.610   0.504   6.282  0.1242  0.4401 -1.0714
  139MOL   H28744723   7.550   0.615   6.405 -1.0893  0.4169 -2.4760
  139MOL   H28844724   7.878   0.814   6.266 -1.0753  1.0495 -0.2323
  139MOL   H28944725   7.877   0.684   6.399 -1.1436 -1.7522 -0.3789
  139MOL   C29044726   7.486   0.822   6.207  0.0324  0.1054  0.1253
  139MOL   C29144727   7.385   0.853   6.090 -1.0936 -0.5328  0.3384
  139MOL   C29244728   7.509   0.937   6.310  0.7544  0.0913 -0.3328
  139MOL   C29344729   7.428   0.916   6.439  0.2095 -0.2342  0.4661
  139MOL   C29444730   7.505   0.904   6.569  0.8470 -0.1523  0.1687
  139MOL   C29544731   7.293   0.923   6.442  0.1240 -0.8541  0.3654
  139MOL   H29644732   7.445   0.739   6.264  1.0804 -0.1616  0.4903
  139MOL   H29744733   7.354   0.766   6.032  2.2461 -1.2893 -0.3756
  139MOL   H29844734   7.420   0.927   6.018 -0.8394 -1.6804 -0.7213
  139MOL   H29944735   7.289   0.899   6.115 -0.0539  1.3892  0.9342
  139MOL   H30044736   7.612   0.929   6.346 -0.3537 -1.5553  2.6936
  139MOL   H30144737   7.583   0.829   6.565  1.3498  0.2938  1.3152
  139MOL   H30244738   7.440   0.869   6.650  1.0525  1.6901  1.1604
  139MOL   H30344739   7.542   1.002   6.600 -2.5480  1.5399 -0.8275
  139MOL   H30444740   7.257   0.941   6.342 -0.5487  0.8644  0.8958
  139MOL   H30544741   7.232   0.916   6.531  2.2642 -0.9618  1.8754
  139MOL   C30644742   7.500   1.082   6.248  0.3515 -0.4958 -0.2067
  139MOL   C30744743   7.607   1.111   6.142  0.0646  0.4075 -0.2173
  139MOL   C30844744   7.519   1.187   6.360 -0.4227 -0.6714 -0.5885
  139MOL   C30944745   7.396   1.233   6.428 -0.1955  0.3218 -0.1148
  139MOL   C31044746   7.268   1.256   6.347  0.3143  0.3746  0.5637
  139MOL   C31144747   7.387   1.249   6.561 -0.5103  0.0011  0.0466
  139MOL   H31244748   7.405   1.083   6.195  0.0102  0.1654  0.4119
  139MOL   H31344749   7.601   1.042   6.057  0.1978  0.0819  0.0344
  139MOL   H31444750   7.712   1.111   6.173  0.6461 -1.3227 -2.0771
  139MOL   H31544751   7.599   1.211   6.101 -0.4922  0.6696  0.5277
  139MOL   H31644752   7.592   1.145   6.430 -2.4186  0.1843  2.0836
  139MOL   H31744753   7.191   1.320   6.389  1.0051  0.6123  1.4872
  139MOL   H31844754   7.221   1.161   6.320 -2.7256  2.0410 -0.1936
  139MOL   H31944755   7.300   1.296   6.251 -2.1773  0.1308 -0.3850
  139MOL   H32044756   7.477   1.244   6.622  0.1066 -0.8663 -0.9215
  139MOL   H32144757   7.298   1.271   6.618 -0.9259  1.0219 -0.9954
  139MOL   H32244758   7.569   1.278   6.326  0.4212 -0.9048 -0.0121
  140MOL     C144759   7.637   4.395   0.323 -0.5666 -0.4393  0.2209
  140MOL     C244760   7.622   4.483   0.204 -0.8544  0.2475  0.0237
  140MOL     C344761   7.724   4.267   0.305  0.2936 -0.0976 -0.2889
  140MOL     C444762   7.673   4.180   0.189 -0.3298 -0.5144 -0.5132
  140MOL     C544763   7.530   4.116   0.204 -0.1292  0.2971  0.4336
  140MOL     C644764   7.748   4.174   0.079  0.0878 -0.6623 -0.1808
  140MOL     H744765   7.687   4.460   0.395 -1.6528  0.1543  0.4487
  140MOL     H844766   7.579   4.580   0.231 -0.1553  0.2169  1.2965
  140MOL     H944767   7.566   4.430   0.127 -2.6728  1.0551  0.7670
  140MOL    H1044768   7.715   4.498   0.149 -1.0366  0.2253 -0.2922
  140MOL    H1144769   7.822   4.307   0.282  0.0923 -0.2471 -1.4185
  140MOL    H1244770   7.551   4.012   0.232 -1.5690 -0.4915 -1.2805
  140MOL    H1344771   7.469   4.108   0.114  2.0009 -1.5108 -0.9199
  140MOL    H1444772   7.474   4.165   0.284  1.7585 -0.9818  2.5982
  140MOL    H1544773   7.840   4.230   0.076 -0.0408 -0.4319  0.2309
  140MOL    H1644774   7.716   4.122   7.882 -1.3303  0.5577 -0.3964
  140MOL    H1744775   7.536   4.393   0.365  0.0921 -1.3468  1.7870
  140MOL    C1844776   7.746   4.179   0.436  0.6075  0.5488  0.5599
  140MOL    C1944777   7.748   4.262   0.569 -0.5443 -0.4831 -0.5198
  140MOL    C2044778   7.865   4.087   0.416  0.3033  0.3957 -0.4654
  140MOL    C2144779   7.826   3.943   0.459  0.2239  0.3156  0.2459
  140MOL    C2244780   7.767   3.918   0.594  0.2648  0.3615  0.1055
  140MOL    C2344781   7.831   3.846   0.371 -0.5331  0.0897 -0.2330
  140MOL    H2444782   7.653   4.122   0.442 -0.4939  1.8165 -2.8579
  140MOL    H2544783   7.772   4.193   0.651 -0.3956 -0.9570 -0.9552
  140MOL    H2644784   7.654   4.314   0.586  0.3964  1.4743 -1.1376
  140MOL    H2744785   7.832   4.330   0.582 -1.3384  0.2696  0.6683
  140MOL    H2844786   7.873   4.063   0.310  0.3628 -2.6989  0.1975
  140MOL    H2944787   7.685   3.990   0.603  1.8911  2.1194  1.2428
  140MOL    H3044788   7.836   3.933   0.677  0.1996 -0.1630  0.2542
  140MOL    H3144789   7.722   3.819   0.593 -2.4132  1.5116  0.1968
  140MOL    H3244790   7.858   3.855   0.267  0.0335  0.0024 -0.0968
  140MOL    H3344791   7.799   3.749   0.407 -2.0071  0.5009 -0.4081
  140MOL    C3444792   0.125   4.117   0.447  0.6052 -0.0204  0.5551
  140MOL    C3544793   0.140   4.121   0.607  0.8850  0.0387 -0.2098
  140MOL    C3644794   0.193   4.246   0.380  0.1942  0.3883  0.5553
  140MOL    C3744795   0.198   4.232   0.227  0.1299 -0.5704 -0.2436
  140MOL    C3844796   0.199   4.357   0.143 -0.0719 -0.0010  0.2906
  140MOL    C3944797   0.193   4.116   0.161  0.2597 -0.7015  0.1945
  140MOL    H4044798   0.197   4.037   0.427  0.6839  0.5723 -1.6061
  140MOL    H4144799   0.110   4.021   0.638 -1.3663  0.7968  0.1131
  140MOL    H4244800   0.083   4.199   0.657 -0.0905 -0.7114 -0.1449
  140MOL    H4344801   0.240   4.125   0.651  0.6006  1.3010  0.3422
  140MOL    H4444802   0.135   4.337   0.397 -0.9445  0.0828 -1.5326
  140MOL    H4544803   0.176   4.339   0.038 -0.5990  0.0058  0.4019
  140MOL    H4644804   0.295   4.409   0.142 -0.2271  0.5255  4.8024
  140MOL    H4744805   0.136   4.440   0.177 -0.6556  0.7321 -2.4058
  140MOL    H4844806   0.187   4.021   0.213  0.6549 -1.1258 -0.5325
  140MOL    H4944807   0.205   4.111   0.054  0.2846 -1.5590  0.2350
  140MOL    C5044808   0.334   4.291   0.431  0.4721 -0.3461 -0.3674
  140MOL    C5144809   0.433   4.165   0.429 -0.7006 -0.6832 -1.1443
  140MOL    C5244810   0.341   4.393   0.550 -0.0858 -0.2093 -0.7687
  140MOL    C5344811   0.253   4.520   0.517  0.3045  0.5737  0.6547
  140MOL    C5444812   0.163   4.556   0.631 -0.4016 -0.0167  0.6256
  140MOL    C5544813   0.260   4.597   0.405 -0.3621 -0.3062 -0.2437
  140MOL    H5644814   0.387   4.343   0.352 -0.0591 -0.3412 -0.7237
  140MOL    H5744815   0.406   4.087   0.358  2.0883 -2.7717  0.0121
  140MOL    H5844816   0.426   4.114   0.525 -1.4380  0.1246 -0.7555
  140MOL    H5944817   0.536   4.190   0.404 -0.4786  1.1981  1.4672
  140MOL    H6044818   0.285   4.338   0.626 -0.9798 -2.3771 -2.9457
  140MOL    H6144819   0.219   4.570   0.724  0.4745  2.6113 -0.2356
  140MOL    H6244820   0.072   4.496   0.637  0.8498 -1.8216  2.0115
  140MOL    H6344821   0.121   4.656   0.617 -0.5856 -0.0959  0.6155
  140MOL    H6444822   0.324   4.570   0.322  2.8263 -0.4526  2.1577
  140MOL    H6544823   0.205   4.689   0.391  0.0972  0.0137  0.0386
  140MOL    C6644824   0.484   4.430   0.605 -0.4551 -0.5841 -0.4833
  140MOL    C6744825   0.578   4.468   0.488  0.2904  0.1920 -0.4734
  140MOL    C6844826   0.551   4.328   0.709  0.7854 -0.1644  0.0377
  140MOL    C6944827   0.465   4.295   0.829  0.7252 -0.2800  0.3305
  140MOL    C7044828   0.479   4.156   0.889 -0.2747  0.1351  0.0159
  140MOL    C7144829   0.386   4.386   0.888 -0.3125 -0.4517  0.6179
  140MOL    H7244830   0.468   4.525   0.656  0.5865 -0.4282 -0.4246
  140MOL    H7344831   0.608   4.381   0.430  0.0847  0.0749 -0.4056
  140MOL    H7444832   0.669   4.514   0.526  0.1993 -1.8252  2.3314
  140MOL    H7544833   0.537   4.531   0.409 -0.0563  0.4904 -0.0573
  140MOL    H7644834   0.550   4.228   0.666  4.1341 -0.6374  0.8924
  140MOL    H7744835   0.402   4.142   0.965 -1.0292 -0.2209 -0.8038
  140MOL    H7844836   0.580   4.153   0.931 -0.0916 -0.4225 -0.4628
  140MOL    H7944837   0.466   4.081   0.811  0.1583 -0.4267  0.4741
  140MOL    H8044838   0.380   4.490   0.862 -0.1261 -1.0901 -2.0803
  140MOL    H8144839   0.326   4.357   0.973  0.7783 -1.8735  0.9310
  140MOL    C8244840   0.700   4.359   0.766 -0.4277  0.6442 -0.2983
  140MOL    C8344841   0.717   4.508   0.809  0.4409 -0.1960 -0.1381
  140MOL    C8444842   0.816   4.297   0.682 -0.1823 -0.6851  0.2212
  140MOL    C8544843   0.784   4.153   0.630  0.2908  0.2049  0.2911
  140MOL    C8644844   0.783   4.038   0.732  0.6189  0.1029 -0.1455
  140MOL    C8744845   0.778   4.119   0.502 -0.0950  0.1349  0.6253
  140MOL    H8844846   0.708   4.297   0.855 -1.0657  0.0467 -0.6499
  140MOL    H8944847   0.638   4.534   0.879 -0.1173 -0.1696 -0.7808
  140MOL    H9044848   0.693   4.578   0.729 -3.0316 -0.8110  0.2894
  140MOL    H9144849   0.814   4.544   0.846 -1.2398  3.2991  1.1120
  140MOL    H9244850   0.810   4.359   0.593 -0.7188 -0.5081  0.3764
  140MOL    H9344851   0.883   4.013   0.767 -0.0420 -0.2071  1.6109
  140MOL    H9444852   0.735   3.948   0.695  0.9332  0.3763 -1.2228
  140MOL    H9544853   0.733   4.069   0.825  0.8184  2.0537 -0.6654
  140MOL    H9644854   0.796   4.191   0.424 -0.5979  0.4981  0.8466
  140MOL    H9744855   0.757   4.019   0.467 -1.4966  0.9620 -0.9267
  140MOL    C9844856   0.967   4.299   0.733 -0.0611  0.2143 -0.5231
  140MOL    C9944857   0.974   4.264   0.890  0.1979  0.2153 -0.0982
  140MOL   C10044858   1.058   4.416   0.684  0.1734 -0.1510 -0.7038
  140MOL   C10144859   1.037   4.461   0.542 -0.4282 -0.5086 -0.2504
  140MOL   C10244860   1.098   4.373   0.439  0.3489 -0.1901 -0.1942
  140MOL   C10344861   0.966   4.572   0.503 -0.6523  0.1564 -0.2586
  140MOL   H10444862   1.015   4.212   0.688  0.2052  1.5254 -2.7932
  140MOL   H10544863   1.077   4.249   0.920  0.8644  2.6430 -1.0791
  140MOL   H10644864   0.915   4.175   0.913 -0.4679 -0.3109 -3.5324
  140MOL   H10744865   0.941   4.351   0.947  1.6053  0.4604  0.3507
  140MOL   H10844866   1.011   4.495   0.742 -0.8622 -1.2252 -0.0731
  140MOL   H10944867   1.082   4.270   0.468  2.2952  0.0153  1.7604
  140MOL   H11044868   1.205   4.380   0.455  0.2822  0.0157  0.1755
  140MOL   H11144869   1.058   4.388   0.338  0.9262  1.2283 -0.2258
  140MOL   H11244870   0.933   4.640   0.580  0.2459 -1.9527  2.0281
  140MOL   H11344871   0.951   4.587   0.397  1.5007  0.1599 -0.5755
  140MOL   C11444872   1.213   4.418   0.726 -0.1061 -0.4831 -0.4902
  140MOL   C11544873   1.271   4.277   0.728  0.2749 -0.2642  0.2346
  140MOL   C11644874   1.235   4.490   0.872  0.2461 -0.1964  0.4688
  140MOL   C11744875   1.192   4.640   0.865  0.0067  0.1608 -1.0833
  140MOL   C11844876   1.141   4.708   0.992 -0.8535 -0.5553  1.0733
  140MOL   C11944877   1.198   4.716   0.753 -0.5366  0.1931  0.2176
  140MOL   H12044878   1.274   4.472   0.654  0.8823 -0.5833  0.2670
  140MOL   H12144879   1.243   4.211   0.810 -5.0389  0.4753 -0.7598
  140MOL   H12244880   1.379   4.274   0.713  0.2617  0.2363  0.0251
  140MOL   H12344881   1.234   4.216   0.645  0.9995  0.4794 -0.6508
  140MOL   H12444882   1.171   4.438   0.944 -1.3244  0.2158 -0.6127
  140MOL   H12544883   1.120   4.638   1.072 -0.4270 -2.5333 -0.5025
  140MOL   H12644884   1.048   4.763   0.974 -1.1221 -1.1929  0.5257
  140MOL   H12744885   1.215   4.781   1.025 -0.3331  0.5333 -2.2619
  140MOL   H12844886   1.238   4.683   0.658 -0.7876  0.4726  0.0141
  140MOL   H12944887   1.160   4.817   0.750 -0.2203  0.2858 -0.6292
  140MOL   C13044888   1.383   4.492   0.938  0.4895  0.2797 -0.1851
  140MOL   C13144889   1.491   4.534   0.833 -0.2187 -0.4243 -0.6515
  140MOL   C13244890   1.434   4.358   1.012 -0.4526 -0.7576  0.3894
  140MOL   C13344891   1.326   4.314   1.113 -0.6647  0.5573 -0.1298
  140MOL   C13444892   1.301   4.165   1.111  0.0825  0.0125 -0.1087
  140MOL   C13544893   1.257   4.391   1.205  0.2699  0.0118  0.2795
  140MOL   H13644894   1.393   4.572   1.011 -0.9309  0.7852 -0.5255
  140MOL   H13744895   1.474   4.628   0.781  2.2500 -0.9387 -2.4703
  140MOL   H13844896   1.507   4.463   0.752  0.9706 -2.7072  1.5135
  140MOL   H13944897   1.579   4.565   0.889  0.6334 -0.5058 -1.9310
  140MOL   H14044898   1.423   4.286   0.931  0.0987 -1.2837  0.7768
  140MOL   H14144899   1.395   4.110   1.117  0.0297 -0.2212 -1.3263
  140MOL   H14244900   1.260   4.152   1.011  0.4594  3.4865 -0.7896
  140MOL   H14344901   1.225   4.130   1.180 -1.4944  2.5119 -0.5065
  140MOL   H14444902   1.273   4.497   1.219 -0.5943  0.0334  1.1567
  140MOL   H14544903   1.181   4.355   1.273  1.0371 -0.8170  0.7039
  140MOL   C14644904   1.583   4.353   1.068 -0.9823  0.5097 -0.0016
  140MOL   C14744905   1.624   4.484   1.154  0.0893 -0.5922  0.2648
  140MOL   C14844906   1.693   4.320   0.964 -0.2367  0.2908 -0.7535
  140MOL   C14944907   1.644   4.209   0.867  0.1421  0.7771 -0.4375
  140MOL   C15044908   1.671   4.240   0.724 -0.6634 -0.5168  0.0766
  140MOL   C15144909   1.596   4.085   0.899  0.4028 -0.6003 -0.4287
  140MOL   H15244910   1.573   4.271   1.139 -1.1096  0.4160 -0.1286
  140MOL   H15344911   1.547   4.499   1.230 -0.6849 -0.7576 -0.4772
  140MOL   H15444912   1.647   4.572   1.093 -2.4419  0.2424  0.4356
  140MOL   H15544913   1.711   4.454   1.212 -0.1863 -1.4853  0.2296
  140MOL   H15644914   1.714   4.401   0.894 -4.2197  1.6088 -0.5381
  140MOL   H15744915   1.759   4.183   0.695  0.6314  1.9618 -1.0569
  140MOL   H15844916   1.686   4.344   0.693 -0.3504 -0.3345  0.8115
  140MOL   H15944917   1.585   4.209   0.665  0.6592 -2.6795 -0.7531
  140MOL   H16044918   1.590   4.061   1.004 -1.5407  2.0193  0.1350
  140MOL   H16144919   1.569   4.002   0.837 -2.3527  0.7346 -1.1148
  140MOL   C16244920   1.836   4.279   1.024  0.2581 -0.3277  0.0777
  140MOL   C16344921   1.821   4.210   1.161  0.0746  0.5155 -0.9727
  140MOL   C16444922   1.949   4.393   1.035 -0.3479  0.7445  0.1961
  140MOL   C16544923   1.945   4.485   0.910 -0.1288  0.1248  0.3808
  140MOL   C16644924   2.003   4.442   0.777 -0.1233  0.3551  0.0276
  140MOL   C16744925   1.919   4.611   0.927  0.6660 -0.5828  0.2655
  140MOL   H16844926   1.862   4.205   0.947 -2.9921  0.1476 -1.5727
  140MOL   H16944927   1.807   4.262   1.256  2.0541  0.0709 -0.4094
  140MOL   H17044928   1.900   4.135   1.170  0.1643  0.5101 -1.7584
  140MOL   H17144929   1.730   4.150   1.152  0.4949 -1.4479  5.2889
  140MOL   H17244930   1.912   4.458   1.114  0.8636  2.2375 -0.4362
  140MOL   H17344931   2.104   4.404   0.791 -0.9321 -2.8749 -2.3402
  140MOL   H17444932   2.003   4.527   0.709 -0.5530 -0.3184 -0.8209
  140MOL   H17544933   1.945   4.359   0.736  2.2376 -1.2098 -0.2183
  140MOL   H17644934   1.884   4.650   1.021  1.3555  1.0815 -0.1629
  140MOL   H17744935   1.929   4.685   0.849  2.4742  0.7607  1.7424
  140MOL   C17844936   2.099   4.354   1.072  0.2228 -0.2546 -0.4821
  140MOL   C17944937   2.139   4.224   1.006  0.1915  0.1236 -0.0375
  140MOL   C18044938   2.132   4.379   1.225 -0.2101  0.5548  0.1468
  140MOL   C18144939   2.092   4.516   1.288 -0.3335 -0.5807  0.1469
  140MOL   C18244940   2.019   4.524   1.425  0.2964  0.2640 -0.4528
  140MOL   C18344941   2.127   4.631   1.231  0.4788 -0.3602 -0.2152
  140MOL   H18444942   2.165   4.433   1.037  0.0660  0.0932 -0.0040
  140MOL   H18544943   2.247   4.215   0.998  0.4199  1.8356  0.8207
  140MOL   H18644944   2.105   4.234   0.902 -3.1000  0.6903  1.0295
  140MOL   H18744945   2.092   4.139   1.055 -0.6858 -0.4473 -1.8055
  140MOL   H18844946   2.055   4.321   1.276  0.4319 -0.1882  0.2894
  140MOL   H18944947   1.931   4.460   1.421 -0.6480  1.4563  0.6658
  140MOL   H19044948   1.980   4.625   1.440 -0.7814 -0.0795 -0.8685
  140MOL   H19144949   2.099   4.492   1.492  0.2914  0.1972 -0.4786
  140MOL   H19244950   2.182   4.648   1.140 -0.2971  2.4937 -0.2123
  140MOL   H19344951   2.103   4.722   1.284  0.4407 -1.6012  1.9667
  140MOL   C19444952   2.272   4.325   1.288  0.0918 -0.2814 -0.2296
  140MOL   C19544953   2.387   4.376   1.211  0.5571 -0.1389  0.1305
  140MOL   C19644954   2.273   4.168   1.307  0.5300  0.5530  0.1342
  140MOL   C19744955   2.152   4.110   1.370 -0.2756  0.1964  0.5239
  140MOL   C19844956   2.110   3.970   1.317 -0.2793 -0.2331  0.3454
  140MOL   C19944957   2.092   4.158   1.480 -1.1007 -0.0686 -0.4078
  140MOL   H20044958   2.270   4.369   1.388 -0.9072 -0.0009 -0.3689
  140MOL   H20144959   2.368   4.479   1.180 -0.1858 -0.5561 -0.8427
  140MOL   H20244960   2.410   4.321   1.120  0.6637  0.5485 -0.2545
  140MOL   H20344961   2.475   4.381   1.275  0.6591  0.1224 -0.0295
  140MOL   H20444962   2.276   4.126   1.207  3.1768  3.4534 -1.1071
  140MOL   H20544963   2.015   3.944   1.365  0.0326 -1.2401  0.4314
  140MOL   H20644964   2.188   3.896   1.339 -0.7513 -1.7644 -2.8794
  140MOL   H20744965   2.081   3.967   1.212 -1.9557  0.5261  0.7726
  140MOL   H20844966   2.125   4.246   1.532 -0.8587 -0.2179 -0.3043
  140MOL   H20944967   2.004   4.110   1.519 -1.2439 -1.4064 -2.2855
  140MOL   C21044968   2.399   4.111   1.380  0.2458  0.1347 -0.1818
  140MOL   C21144969   2.418   4.182   1.516  1.0808  0.6539 -0.0847
  140MOL   C21244970   2.529   4.080   1.297 -0.4416  0.0367 -0.0390
  140MOL   C21344971   2.509   4.026   1.144 -0.3947 -0.1973 -0.0116
  140MOL   C21444972   2.606   4.085   1.042  0.0639  0.2737 -0.6984
  140MOL   C21544973   2.411   3.939   1.114 -1.0921  0.2533 -0.2775
  140MOL   H21644974   2.368   4.009   1.404 -1.3690  0.9223  1.2195
  140MOL   H21744975   2.337   4.163   1.586  1.3762  2.1932  0.6739
  140MOL   H21844976   2.441   4.288   1.511  2.1758  0.4210 -0.1102
  140MOL   H21944977   2.500   4.131   1.567  1.9966  0.0982 -2.0374
  140MOL   H22044978   2.571   4.179   1.282  0.4998 -0.7137 -2.6926
  140MOL   H22144979   2.700   4.033   1.061 -0.0990 -0.2660 -1.3856
  140MOL   H22244980   2.625   4.191   1.059 -2.2619  0.4338  1.2490
  140MOL   H22344981   2.574   4.065   0.940 -1.5302  0.2530 -0.2040
  140MOL   H22444982   2.347   3.881   1.178 -1.6763 -1.1627 -2.0977
  140MOL   H22544983   2.403   3.914   1.009  0.6186 -1.2697 -0.0586
  140MOL   C22644984   2.635   3.981   1.372  0.2179  0.1017  0.1969
  140MOL   C22744985   2.778   4.014   1.322  0.2191 -0.6816  0.8586
  140MOL   C22844986   2.606   3.827   1.379  0.3752  0.0778 -0.4458
  140MOL   C22944987   2.474   3.782   1.446 -0.7622  0.0432 -0.1715
  140MOL   C23044988   2.447   3.817   1.587  0.8221 -0.3680  0.5580
  140MOL   C23144989   2.386   3.706   1.376  0.0394  0.0348  0.3475
  140MOL   H23244990   2.639   4.005   1.478  0.5750  0.8268  0.0198
  140MOL   H23344991   2.859   3.978   1.385  0.9555  0.5398  0.6268
  140MOL   H23444992   2.794   4.121   1.310  0.2842 -0.7426  0.3922
  140MOL   H23544993   2.806   3.959   1.232 -0.8341  0.9966 -0.5284
  140MOL   H23644994   2.585   3.801   1.275  3.0742  1.2155 -1.3466
  140MOL   H23744995   2.343   3.799   1.614  0.8257  0.4222  1.0899
  140MOL   H23844996   2.463   3.921   1.613 -0.9436 -0.2103  1.0800
  140MOL   H23944997   2.490   3.746   1.657 -1.1858 -2.0245  0.1658
  140MOL   H24044998   2.411   3.683   1.274 -2.6743  0.2825 -0.4099
  140MOL   H24144999   2.292   3.668   1.414 -0.1218  0.7034  0.6244
  140MOL   C24245000   2.712   3.733   1.436  0.2187  0.4799  0.3774
  140MOL   C24345001   2.776   3.783   1.568 -0.1053 -0.5000  0.0574
  140MOL   C24445002   2.825   3.678   1.333  0.4140 -1.5107  0.4349
  140MOL   C24545003   2.762   3.635   1.197 -0.4492 -0.1797  0.4493
  140MOL   C24645004   2.657   3.526   1.205 -0.3280  0.2693  0.7008
  140MOL   C24745005   2.791   3.710   1.088 -0.7477 -0.1601  0.9837
  140MOL   H24845006   2.651   3.644   1.447  0.5479  0.3183  0.9430
  140MOL   H24945007   2.824   3.708   1.629 -0.8907 -0.7349  0.3933
  140MOL   H25045008   2.707   3.832   1.638 -0.1005  1.3010 -1.1469
  140MOL   H25145009   2.862   3.849   1.553  0.9935 -1.7838  0.7200
  140MOL   H25245010   2.884   3.764   1.303 -0.2950 -1.4707 -0.8776
  140MOL   H25345011   2.667   3.463   1.116 -0.2816 -0.9968  1.5874
  140MOL   H25445012   2.556   3.568   1.202 -0.5485 -0.3175 -0.7994
  140MOL   H25545013   2.669   3.463   1.293 -1.6345 -2.1169 -0.7520
  140MOL   H25645014   2.862   3.791   1.078 -0.4622 -0.5872 -0.4870
  140MOL   H25745015   2.743   3.694   0.992  0.5869 -2.8287  0.7212
  140MOL   C25845016   2.921   3.567   1.396 -0.4469 -0.7468  0.2929
  140MOL   C25945017   3.047   3.639   1.464  0.4349 -0.4326  0.1211
  140MOL   C26045018   2.961   3.439   1.312  0.1945 -0.0074  0.2803
  140MOL   C26145019   2.981   3.325   1.408 -0.0597 -1.4461  0.0356
  140MOL   C26245020   2.854   3.241   1.446 -0.2608  0.1940 -0.2488
  140MOL   C26345021   3.100   3.297   1.469  0.4837 -0.0574 -0.7573
  140MOL   H26445022   2.863   3.529   1.481 -1.3504 -3.1466 -1.3462
  140MOL   H26545023   3.118   3.560   1.490  0.1443 -1.2453 -1.4840
  140MOL   H26645024   3.023   3.685   1.559 -1.5472 -1.8436  0.3517
  140MOL   H26745025   3.091   3.708   1.392 -1.8956  1.2536  0.2778
  140MOL   H26845026   2.879   3.414   1.246  0.1773  2.2104 -0.6056
  140MOL   H26945027   2.805   3.208   1.355  0.2901 -0.7278 -0.2217
  140MOL   H27045028   2.786   3.302   1.505  1.3092  0.1812  1.6530
  140MOL   H27145029   2.871   3.160   1.517 -0.1344  2.0190  1.8541
  140MOL   H27245030   3.191   3.352   1.451 -0.7810  1.7952 -1.7320
  140MOL   H27345031   3.123   3.214   1.533 -0.6323 -0.4467 -0.8576
  140MOL   C27445032   3.089   3.457   1.218  0.3797  0.6089  0.9389
  140MOL   C27545033   3.080   3.581   1.124  0.1503 -0.3453  0.6871
  140MOL   C27645034   3.118   3.327   1.134  0.2352  0.2807  0.6629
  140MOL   C27745035   3.274   3.310   1.133  0.6136  0.0388 -0.6313
  140MOL   C27845036   3.349   3.392   1.035  0.2234 -0.6424  0.1585
  140MOL   C27945037   3.341   3.242   1.230  0.0477 -0.3154  0.0225
  140MOL   H28045038   3.181   3.484   1.269  0.2570 -2.5119  2.9521
  140MOL   H28145039   3.168   3.602   1.064  0.3503  0.5540  1.2840
  140MOL   H28245040   3.076   3.672   1.184 -0.2387 -1.0260  1.7125
  140MOL   H28345041   3.000   3.559   1.053  1.6892  0.1275 -1.2363
  140MOL   H28445042   3.088   3.240   1.194 -2.4425 -0.8569 -2.2245
  140MOL   H28545043   3.403   3.466   1.095  0.5635 -1.0642  0.3759
  140MOL   H28645044   3.286   3.445   0.963  0.7949 -0.5129 -0.2504
  140MOL   H28745045   3.423   3.334   0.980 -1.0618 -1.5742 -0.6171
  140MOL   H28845046   3.299   3.182   1.309 -0.0295 -1.3694 -0.8019
  140MOL   H28945047   3.449   3.245   1.232  0.0078  0.7290  0.7926
  140MOL   C29045048   3.053   3.304   0.991  0.3663 -0.0620 -0.0535
  140MOL   C29145049   2.900   3.292   0.985  0.1483 -0.8238 -0.1525
  140MOL   C29245050   3.115   3.205   0.879 -0.1764 -0.5868  0.5807
  140MOL   C29345051   3.110   3.262   0.741  0.0467 -0.1781  0.1176
  140MOL   C29445052   3.229   3.353   0.708  0.4634 -0.1445  0.1565
  140MOL   C29545053   3.015   3.227   0.652  0.3569  0.1347 -0.3137
  140MOL   H29645054   3.067   3.403   0.947  0.7274 -1.7278 -3.8838
  140MOL   H29745055   2.842   3.378   1.020 -0.2710 -1.2564  0.2252
  140MOL   H29845056   2.853   3.203   1.026 -2.6589  1.1533  1.1530
  140MOL   H29945057   2.866   3.281   0.883 -4.3372 -0.0609  1.1369
  140MOL   H30045058   3.222   3.200   0.895 -0.1294 -0.6085  0.2674
  140MOL   H30145059   3.329   3.312   0.719  0.6686  0.8023  2.2370
  140MOL   H30245060   3.220   3.446   0.765 -0.0735 -1.8534  2.9384
  140MOL   H30345061   3.226   3.385   0.604  0.1014  1.4251  0.6276
  140MOL   H30445062   2.933   3.167   0.689  0.9802 -0.7385 -0.3148
  140MOL   H30545063   3.019   3.262   0.550 -0.4022  1.1955  0.0140
  140MOL   C30645064   3.066   3.059   0.887 -0.3299  0.1183  0.2076
  140MOL   C30745065   3.052   3.001   1.033 -0.4780  0.2736  0.6346
  140MOL   C30845066   3.155   2.971   0.795 -0.0990  0.9751  0.1661
  140MOL   C30945067   3.087   2.837   0.752  0.3363  0.3908  0.1181
  140MOL   C31045068   2.952   2.858   0.684 -0.2981 -0.7602  0.4108
  140MOL   C31145069   3.140   2.721   0.786  0.2294 -0.2450  1.1590
  140MOL   H31245070   2.965   3.045   0.848  0.3943 -0.6497 -1.4727
  140MOL   H31345071   3.020   2.897   1.029  1.1283 -0.1855 -1.1527
  140MOL   H31445072   2.982   3.054   1.098  0.3920  1.4191  0.6476
  140MOL   H31545073   3.148   3.004   1.083 -0.7059  1.8353  0.9869
  140MOL   H31645074   3.195   3.027   0.710 -0.9721 -0.5327 -1.2663
  140MOL   H31745075   2.936   2.776   0.614 -1.5130  0.5973 -0.9364
  140MOL   H31845076   2.950   2.952   0.628  0.1679 -0.4879  0.8463
  140MOL   H31945077   2.866   2.857   0.750 -0.1173 -1.7073  0.6269
  140MOL   H32045078   3.229   2.694   0.841 -0.7334 -3.7114  1.1318
  140MOL   H32145079   3.087   2.634   0.749 -1.6951  1.2711  0.2611
  140MOL   H32245080   3.250   2.949   0.843  0.4330 -0.1813 -1.3777
  141MOL     C145081   1.966   2.578   2.113  0.3977 -0.2506  0.1821
  141MOL     C245082   2.085   2.490   2.139 -0.7106 -0.7412 -0.1934
  141MOL     C345083   1.907   2.561   1.975  0.2606  0.6416 -0.1430
  141MOL     C445084   2.014   2.585   1.865 -0.1267  1.2133  0.3308
  141MOL     C545085   2.069   2.727   1.854 -0.7535 -0.0212 -0.0564
  141MOL     C645086   2.065   2.483   1.793 -0.3932  0.0270 -0.8515
  141MOL     H745087   1.892   2.543   2.184 -1.7920  2.3321 -0.7424
  141MOL     H845088   2.169   2.514   2.074  0.2251  0.1898  1.3372
  141MOL     H945089   2.070   2.386   2.108  0.6626 -0.5510 -1.5488
  141MOL    H1045090   2.123   2.478   2.241  0.5466 -2.1575 -0.8016
  141MOL    H1145091   1.879   2.459   1.952 -0.5995  0.7092  0.5999
  141MOL    H1245092   2.087   2.773   1.951  0.8448  0.2790 -0.4772
  141MOL    H1345093   2.006   2.800   1.803 -1.5170 -1.3166 -0.9928
  141MOL    H1445094   2.162   2.729   1.797 -0.6991  1.8036  0.0725
  141MOL    H1545095   2.042   2.378   1.804  0.6818 -0.3343 -2.0361
  141MOL    H1645096   2.138   2.510   1.718  2.3762 -0.7045  1.4862
  141MOL    H1745097   1.985   2.684   2.130  0.2890  0.2574 -2.5855
  141MOL    C1845098   1.781   2.654   1.955 -0.6175  0.2472 -0.5689
  141MOL    C1945099   1.683   2.635   2.070 -0.1638 -0.0054 -0.4600
  141MOL    C2045100   1.721   2.666   1.814 -0.1538 -0.2341  0.1160
  141MOL    C2145101   1.677   2.813   1.795 -0.4297 -1.0291 -0.2952
  141MOL    C2245102   1.549   2.854   1.866 -0.1565  0.6890 -0.4705
  141MOL    C2345103   1.744   2.903   1.726  0.2486 -0.1071  0.5959
  141MOL    H2445104   1.831   2.749   1.973 -1.6929  1.0218 -1.6052
  141MOL    H2545105   1.679   2.532   2.107 -3.6458  0.7853  1.5721
  141MOL    H2645106   1.578   2.653   2.045 -0.2614  1.1091  0.7412
  141MOL    H2745107   1.697   2.699   2.157  0.5927 -0.1329 -0.4851
  141MOL    H2845108   1.801   2.666   1.740  0.1082 -1.1594  0.3956
  141MOL    H2945109   1.529   2.956   1.833  1.5792  1.2273  0.0882
  141MOL    H3045110   1.561   2.854   1.974  2.6740 -3.1267 -0.6776
  141MOL    H3145111   1.474   2.786   1.828  2.0841 -0.8235 -2.3710
  141MOL    H3245112   1.840   2.884   1.682 -0.7627 -1.4623 -1.1047
  141MOL    H3345113   1.700   3.002   1.718 -0.3975 -0.1468  3.0141
  141MOL    C3445114   1.611   2.570   1.765 -0.3417  0.4905 -0.0967
  141MOL    C3545115   1.663   2.423   1.778  0.1419  0.4171 -0.3972
  141MOL    C3645116   1.555   2.600   1.618  0.8320  0.0822  0.6670
  141MOL    C3745117   1.409   2.555   1.606 -0.1643  0.3283 -0.1695
  141MOL    C3845118   1.382   2.402   1.604  0.5196  0.2167 -0.0890
  141MOL    C3945119   1.304   2.641   1.594  0.2414  0.4816 -0.3797
  141MOL    H4045120   1.522   2.566   1.828 -1.4424 -0.1770 -1.6693
  141MOL    H4145121   1.619   2.346   1.714 -1.1424 -0.8320  1.9086
  141MOL    H4245122   1.659   2.389   1.882  3.4275  3.2530  0.7223
  141MOL    H4345123   1.769   2.430   1.758  0.4738  1.8044  1.7006
  141MOL    H4445124   1.535   2.707   1.617 -1.2244 -0.2822 -0.6579
  141MOL    H4545125   1.460   2.343   1.555  0.5763  0.1118  0.1244
  141MOL    H4645126   1.293   2.382   1.543 -0.9953  1.2134  1.7597
  141MOL    H4745127   1.358   2.380   1.708  1.0184 -2.6358 -0.5188
  141MOL    H4845128   1.326   2.747   1.597 -1.0913  0.8416 -1.9372
  141MOL    H4945129   1.205   2.601   1.579 -0.0738  0.8832  0.6342
  141MOL    C5045130   1.639   2.559   1.492 -1.1025 -0.0185  0.2913
  141MOL    C5145131   1.791   2.598   1.492  0.0016  0.2115  0.3913
  141MOL    C5245132   1.558   2.590   1.359 -0.5363  0.0036 -0.4546
  141MOL    C5345133   1.578   2.473   1.256  0.6263  0.8659 -0.1552
  141MOL    C5445134   1.709   2.471   1.190 -0.1525  0.5267 -0.4768
  141MOL    C5545135   1.491   2.368   1.233  0.0240  0.3699  0.3864
  141MOL    H5645136   1.638   2.450   1.494 -0.6767 -0.0410 -0.5879
  141MOL    H5745137   1.822   2.703   1.497  2.5024 -0.3061 -2.2011
  141MOL    H5845138   1.844   2.568   1.401  0.1063  1.8139 -0.1068
  141MOL    H5945139   1.841   2.545   1.573 -2.1682 -2.6989 -0.1068
  141MOL    H6045140   1.452   2.578   1.381 -0.6648  0.7151 -0.6925
  141MOL    H6145141   1.774   2.425   1.265  0.2836  0.6587 -0.7725
  141MOL    H6245142   1.747   2.567   1.156  1.7582  0.6512  1.8826
  141MOL    H6345143   1.725   2.404   1.105 -0.8433  0.9516 -0.9450
  141MOL    H6445144   1.399   2.366   1.289 -1.9543  1.0177 -2.7217
  141MOL    H6545145   1.511   2.300   1.152 -0.4397  1.5562 -0.7405
  141MOL    C6645146   1.575   2.725   1.289  0.2767 -0.0062  0.3849
  141MOL    C6745147   1.559   2.847   1.384 -0.3343  0.4038  0.2330
  141MOL    C6845148   1.486   2.741   1.160 -0.2386  0.2990  0.3285
  141MOL    C6945149   1.574   2.805   1.048  0.9449  0.3768 -0.7124
  141MOL    C7045150   1.606   2.955   1.062 -0.5119  0.2009  0.3246
  141MOL    C7145151   1.626   2.730   0.951 -0.5966 -0.1698 -0.3984
  141MOL    H7245152   1.679   2.740   1.260  0.1069 -2.3913 -1.6337
  141MOL    H7345153   1.648   2.872   1.442  0.1539  0.1227 -0.3957
  141MOL    H7445154   1.472   2.836   1.450  0.7782  1.9822  2.0217
  141MOL    H7545155   1.540   2.937   1.327 -1.6053 -1.2668 -2.0576
  141MOL    H7645156   1.470   2.644   1.113  2.0033  0.2256 -0.3541
  141MOL    H7745157   1.643   2.985   0.964  1.9270  0.2035  1.2025
  141MOL    H7845158   1.683   2.974   1.137 -2.1814  0.9139  1.8779
  141MOL    H7945159   1.514   3.008   1.088  0.6894  2.8770 -0.6487
  141MOL    H8045160   1.607   2.623   0.947 -1.4377 -0.0243 -0.5159
  141MOL    H8145161   1.691   2.774   0.877  0.2357 -0.6432  0.0439
  141MOL    C8245162   1.345   2.796   1.176 -0.4582  0.0632 -0.2419
  141MOL    C8345163   1.255   2.709   1.264  0.2964 -0.3876 -0.2016
  141MOL    C8445164   1.267   2.839   1.045 -0.0558 -0.1646  0.2363
  141MOL    C8545165   1.186   2.968   1.073  0.3002 -0.3922  0.0971
  141MOL    C8645166   1.265   3.101   1.087 -0.3341 -0.2236 -0.3236
  141MOL    C8745167   1.059   2.972   1.098 -0.2915 -0.0028  0.3722
  141MOL    H8845168   1.357   2.890   1.232 -1.5513 -1.1608  2.1109
  141MOL    H8945169   1.147   2.709   1.247  0.3508 -1.0231 -0.5582
  141MOL    H9045170   1.278   2.731   1.368  0.0457 -0.9042 -0.0357
  141MOL    H9145171   1.282   2.606   1.243 -1.9291 -1.0110 -0.1464
  141MOL    H9245172   1.342   2.877   0.975  0.4391 -0.0723  0.8133
  141MOL    H9345173   1.313   3.113   0.990 -1.4443  0.9776 -0.7507
  141MOL    H9445174   1.333   3.120   1.170 -0.6050 -0.6708  0.0031
  141MOL    H9545175   1.200   3.185   1.111 -1.4545 -1.5263  1.3273
  141MOL    H9645176   0.995   2.884   1.093 -0.4619 -0.0552  2.7568
  141MOL    H9745177   1.007   3.065   1.116  0.5801  0.0843  2.5842
  141MOL    C9845178   1.196   2.724   0.963  0.4129 -0.0317 -0.3537
  141MOL    C9945179   1.262   2.577   0.940  0.6352 -0.4022 -0.4820
  141MOL   C10045180   1.134   2.768   0.822 -0.4538 -0.1137 -0.0103
  141MOL   C10145181   0.996   2.705   0.799 -0.2748 -0.2451  0.1309
  141MOL   C10245182   0.881   2.777   0.859  0.0635 -0.4385  1.0634
  141MOL   C10345183   0.985   2.589   0.730  0.4765 -0.3673 -0.1734
  141MOL   H10445184   1.111   2.698   1.026  0.0521 -0.2253 -0.9201
  141MOL   H10545185   1.216   2.520   0.860  1.6200 -0.2262 -1.1801
  141MOL   H10645186   1.253   2.514   1.028  2.2747 -0.2883 -0.2138
  141MOL   H10745187   1.368   2.580   0.917  0.9170 -0.6589  0.7724
  141MOL   H10845188   1.105   2.872   0.837 -0.1198  0.2660 -1.8536
  141MOL   H10945189   0.899   2.884   0.856  0.0787 -0.4634 -0.6108
  141MOL   H11045190   0.862   2.767   0.965 -1.0405  2.2675  1.1694
  141MOL   H11145191   0.785   2.742   0.821 -0.8272  1.5042  1.4911
  141MOL   H11245192   1.066   2.534   0.684  1.8564 -1.2548  3.1395
  141MOL   H11345193   0.885   2.548   0.719 -0.2943  1.3309  0.3919
  141MOL   C11445194   1.234   2.759   0.703  0.2623  0.0917  0.9502
  141MOL   C11545195   1.370   2.827   0.719  0.1086 -0.5868 -0.0486
  141MOL   C11645196   1.181   2.806   0.559  0.6193  0.2678 -0.1205
  141MOL   C11745197   1.259   2.724   0.451 -0.4282  0.2247  0.5737
  141MOL   C11845198   1.211   2.580   0.431 -0.3669  0.1451  0.2215
  141MOL   C11945199   1.351   2.774   0.373 -0.1507 -0.0170 -0.5305
  141MOL   H12045200   1.251   2.653   0.686 -0.1990  0.2179 -0.3549
  141MOL   H12145201   1.439   2.800   0.800  1.8312  1.7433 -0.6681
  141MOL   H12245202   1.360   2.934   0.738 -0.4509 -0.9074  1.5332
  141MOL   H12345203   1.428   2.822   0.627 -1.4109 -1.0040 -1.0083
  141MOL   H12445204   1.082   2.762   0.544  2.1877 -2.5223 -2.8322
  141MOL   H12545205   1.221   2.526   0.525 -2.2698  0.5237  0.6745
  141MOL   H12645206   1.277   2.519   0.370  0.5319 -0.4187  1.7471
  141MOL   H12745207   1.106   2.568   0.403 -0.2538 -0.7645  0.1956
  141MOL   H12845208   1.380   2.878   0.368  1.4552 -0.4037  0.6630
  141MOL   H12945209   1.404   2.713   0.301 -1.1731 -0.5204 -0.8681
  141MOL   C13045210   1.173   2.959   0.525 -0.3100 -0.4049 -0.0641
  141MOL   C13145211   1.115   3.041   0.642  0.4038  0.4683  0.0148
  141MOL   C13245212   1.099   2.989   0.387 -0.7569 -0.1819  0.2249
  141MOL   C13345213   1.173   3.097   0.305 -0.4320  0.0494 -0.3545
  141MOL   C13445214   1.159   3.244   0.352  0.4252  0.2261  0.5463
  141MOL   C13545215   1.253   3.070   0.199 -1.3094  0.0581 -0.3492
  141MOL   H13645216   1.275   2.997   0.518  0.9939 -3.3668  1.7298
  141MOL   H13745217   1.094   3.145   0.617  0.9082  0.1401 -1.8048
  141MOL   H13845218   1.177   3.056   0.731  0.8934 -3.4338  0.4153
  141MOL   H13945219   1.024   3.000   0.685  0.1290 -1.3171 -2.1791
  141MOL   H14045220   1.106   2.902   0.321 -1.1262 -1.1467  1.4292
  141MOL   H14145221   1.227   3.310   0.298  1.0805 -1.1257 -0.2975
  141MOL   H14245222   1.173   3.256   0.459 -1.0424  1.1360  0.6564
  141MOL   H14345223   1.056   3.276   0.334  0.8436  1.0252 -0.4966
  141MOL   H14445224   1.267   2.969   0.166 -0.3523  0.5171 -1.3835
  141MOL   H14545225   1.309   3.149   0.150  1.0288 -0.5213  1.3305
  141MOL   C14645226   0.946   3.003   0.376  0.5383  0.3381 -0.6335
  141MOL   C14745227   0.875   2.899   0.459 -0.2702  0.7472  0.0257
  141MOL   C14845228   0.892   3.011   0.220  0.0941 -0.6750 -0.5452
  141MOL   C14945229   0.743   3.051   0.224 -0.1628 -0.0730  0.3820
  141MOL   C15045230   0.712   3.196   0.217  0.3420  0.7045 -0.7829
  141MOL   C15145231   0.640   2.965   0.234 -0.6403  0.1320 -0.2720
  141MOL   H15245232   0.908   3.088   0.432 -0.1000 -0.6947  0.5594
  141MOL   H15345233   0.768   2.919   0.465 -1.1832 -3.8856  0.6651
  141MOL   H15445234   0.901   2.901   0.565 -1.4038  1.8270  0.2946
  141MOL   H15545235   0.889   2.796   0.426  2.7244  0.6360  1.4358
  141MOL   H15645236   0.945   3.098   0.182  0.4386 -0.0162  1.3892
  141MOL   H15745237   0.694   3.255   0.306 -0.7173  0.3207 -0.7354
  141MOL   H15845238   0.620   3.191   0.159  0.6255 -2.4815 -1.0629
  141MOL   H15945239   0.789   3.246   0.158  0.9672 -0.8877 -1.3464
  141MOL   H16045240   0.663   2.859   0.239  0.1860  0.3147 -0.1440
  141MOL   H16145241   0.534   2.990   0.236 -1.3502 -2.6936 -0.3326
  141MOL   C16245242   0.919   2.900   0.104 -0.6503 -0.1206  0.3411
  141MOL   C16345243   1.001   2.780   0.147  0.0760 -0.5340  0.2570
  141MOL   C16445244   0.972   2.954   7.859 -0.4912 -0.6316 -1.0631
  141MOL   C16545245   0.901   3.078   7.815  0.2925 -0.7321 -0.1240
  141MOL   C16645246   0.758   3.053   7.761 -0.0516 -0.6345 -0.4947
  141MOL   C16745247   0.946   3.201   7.820 -0.2126  0.0614 -0.7736
  141MOL   H16845248   0.823   2.851   0.083  0.2724 -1.4444 -0.9213
  141MOL   H16945249   0.965   2.735   0.239  1.6837 -2.2686  0.0854
  141MOL   H17045250   1.105   2.811   0.152 -0.5303  1.7825 -1.0031
  141MOL   H17145251   0.990   2.704   0.069 -1.0172 -1.9247  1.7380
  141MOL   H17245252   1.066   2.995   0.003 -1.5649  0.6413  0.3623
  141MOL   H17345253   0.691   3.140   7.766 -1.0758 -1.4898  1.1320
  141MOL   H17445254   0.703   2.980   7.820  1.8877 -1.4086  0.3637
  141MOL   H17545255   0.765   3.008   7.662  1.9603 -2.2398  0.3573
  141MOL   H17645256   1.044   3.231   7.855 -0.9513  1.3516  0.2570
  141MOL   H17745257   0.880   3.277   7.781  0.0788  0.2006 -0.9971
  141MOL   C17845258   0.991   2.848   7.741  0.7558  0.2297 -0.2083
  141MOL   C17945259   0.872   2.755   7.720 -0.4721 -0.0390  0.1304
  141MOL   C18045260   1.137   2.785   7.718 -0.2690  0.3623  0.3847
  141MOL   C18145261   1.246   2.895   7.734 -0.2495  0.0066  0.5435
  141MOL   C18245262   1.370   2.847   7.814 -0.0053 -0.2383 -0.1547
  141MOL   C18345263   1.238   3.027   7.697  0.7645  0.2666 -0.3886
  141MOL   H18445264   0.978   2.915   7.655  0.8964 -0.8480 -1.0826
  141MOL   H18545265   0.863   2.718   7.617  0.4451 -0.5259  0.2170
  141MOL   H18645266   0.775   2.798   7.747  0.2116  0.2049  2.2764
  141MOL   H18745267   0.893   2.671   7.786  1.3648 -0.9298 -1.5286
  141MOL   H18845268   1.146   2.712   7.799  0.1566  0.5348  0.4973
  141MOL   H18945269   1.442   2.928   7.822  0.2930 -0.6275  1.2943
  141MOL   H19045270   1.406   2.757   7.764  2.1648  0.7474 -0.4427
  141MOL   H19145271   1.332   2.823   0.021 -0.6938 -1.2336 -0.6534
  141MOL   H19245272   1.151   3.073   7.652 -0.2440 -1.2293 -0.0044
  141MOL   H19345273   1.325   3.085   7.726  1.7662 -1.6314  0.4863
  141MOL   C19445274   1.152   2.706   7.580  0.0709 -0.2216  0.3130
  141MOL   C19545275   1.116   2.791   7.456 -0.3865 -0.2062 -0.3095
  141MOL   C19645276   1.122   2.554   7.582  0.3105 -0.0355  0.3729
  141MOL   C19745277   1.166   2.476   7.704 -0.5670  0.1395  0.1162
  141MOL   C19845278   1.315   2.463   7.726 -0.2823 -0.1193  0.0558
  141MOL   C19945279   1.080   2.422   7.791 -0.1739  1.3411 -0.2222
  141MOL   H20045280   1.261   2.711   7.573 -0.0154  0.2184 -0.8502
  141MOL   H20145281   1.016   2.774   7.418 -1.3686  0.3952  1.9205
  141MOL   H20245282   1.191   2.776   7.378 -0.8378 -0.1985 -0.7423
  141MOL   H20345283   1.126   2.897   7.480  0.5613 -0.5339  0.8152
  141MOL   H20445284   1.014   2.565   7.595  0.1396  0.7996 -1.5957
  141MOL   H20545285   1.368   2.400   7.654 -0.9021  1.0118 -1.4043
  141MOL   H20645286   1.333   2.430   7.828 -0.1721 -1.2165 -0.3115
  141MOL   H20745287   1.369   2.558   7.725 -2.4892  1.1473 -0.4447
  141MOL   H20845288   0.975   2.437   7.768 -0.5828 -0.2689  0.5751
  141MOL   H20945289   1.117   2.371   7.878  1.0235 -0.1401 -1.5513
  141MOL   C21045290   1.140   2.464   7.449  0.6231  0.1188  0.1117
  141MOL   C21145291   1.284   2.489   7.392  0.0272 -0.2200  0.3344
  141MOL   C21245292   1.025   2.474   7.347 -0.1927  0.0889 -0.1376
  141MOL   C21345293   0.886   2.448   7.411  0.2918  0.1178 -0.4963
  141MOL   C21445294   0.863   2.311   7.478  0.5216  0.1913  0.3338
  141MOL   C21545295   0.792   2.543   7.427  0.4384 -0.6294 -0.3506
  141MOL   H21645296   1.143   2.363   7.492 -0.7227 -0.4408 -1.0695
  141MOL   H21745297   1.351   2.407   7.366  0.3203  0.4603 -1.1529
  141MOL   H21845298   1.335   2.539   7.475 -0.1990 -2.4081  1.8163
  141MOL   H21945299   1.282   2.559   7.307  2.2630  0.3513  0.7024
  141MOL   H22045300   1.020   2.580   7.321 -0.2642  0.0262 -0.3769
  141MOL   H22145301   0.933   2.304   7.561  0.7856 -1.2863 -0.0091
  141MOL   H22245302   0.872   2.221   7.417  0.7654  0.7885 -0.5269
  141MOL   H22345303   0.760   2.315   7.512  1.0780  2.1081  1.8837
  141MOL   H22445304   0.800   2.641   7.381  1.8106 -0.5788 -0.0261
  141MOL   H22545305   0.700   2.526   7.480 -0.0322  0.9911 -0.6014
  141MOL   C22645306   1.030   2.380   7.221 -0.2527 -0.0129  0.0461
  141MOL   C22745307   1.169   2.357   7.156  0.4238 -0.5108  0.3769
  141MOL   C22845308   0.923   2.414   7.111 -0.7398  0.1755  0.1809
  141MOL   C22945309   0.894   2.278   7.037 -0.0572  0.7656 -0.0758
  141MOL   C23045310   0.804   2.181   7.105 -0.8422  0.2146  0.3819
  141MOL   C23145311   0.942   2.249   6.915 -0.2336 -0.1990 -0.2785
  141MOL   H23245312   0.999   2.281   7.255 -2.4658  0.3924 -0.7016
  141MOL   H23345313   1.232   2.288   7.211 -0.3181 -1.8195 -0.3968
  141MOL   H23445314   1.212   2.446   7.110 -2.2798  1.4093  1.3906
  141MOL   H23545315   1.150   2.296   7.068  0.7585  0.3361 -0.2827
  141MOL   H23645316   0.825   2.439   7.151 -0.4219  1.6355  0.0653
  141MOL   H23745317   0.710   2.226   7.138 -0.6001  0.5098  0.6758
  141MOL   H23845318   0.844   2.126   7.190  0.2710  0.4920  0.0442
  141MOL   H23945319   0.775   2.113   7.025  1.1527  0.2847 -0.4260
  141MOL   H24045320   1.000   2.321   6.860 -0.6029  0.2369 -0.0964
  141MOL   H24145321   0.918   2.153   6.872  0.5712 -0.7231  0.4146
  141MOL   C24245322   0.953   2.533   7.013  0.4027  0.4689 -0.5793
  141MOL   C24345323   1.010   2.661   7.078 -0.2954  0.2682 -0.2064
  141MOL   C24445324   0.854   2.555   6.890  0.5434  0.0165 -0.0022
  141MOL   C24545325   0.921   2.605   6.767  0.2817  0.1880  0.3971
  141MOL   C24645326   0.980   2.504   6.668 -0.2010  0.1583 -0.2553
  141MOL   C24745327   0.945   2.739   6.746 -0.2457  0.4472  0.3136
  141MOL   H24845328   1.034   2.487   6.956  1.1759 -0.0644  0.9228
  141MOL   H24945329   0.944   2.702   7.154  2.5810  0.5522  2.2438
  141MOL   H25045330   1.024   2.744   7.008 -0.7916 -0.5063 -1.2291
  141MOL   H25145331   1.103   2.644   7.134 -1.4894  1.5060  2.2535
  141MOL   H25245332   0.817   2.458   6.858 -0.1416 -1.0444  3.7126
  141MOL   H25345333   1.008   2.557   6.577 -0.9230  0.5745 -0.2401
  141MOL   H25445334   0.907   2.426   6.643  2.9657 -3.4461  1.1960
  141MOL   H25545335   1.072   2.462   6.707 -0.2555 -0.2813 -0.5906
  141MOL   H25645336   0.925   2.806   6.828  1.3190 -0.2403  1.2700
  141MOL   H25745337   0.989   2.776   6.655 -1.3977 -1.0768 -0.8984
  141MOL   C25845338   0.719   2.632   6.921 -0.1184  0.6044 -0.6109
  141MOL   C25945339   0.640   2.609   7.059  0.2987 -0.2318 -0.4670
  141MOL   C26045340   0.610   2.633   6.809  0.5609  0.0634  0.2210
  141MOL   C26145341   0.541   2.774   6.805  0.9087 -0.3305  0.1981
  141MOL   C26245342   0.633   2.889   6.760 -0.1694 -0.3841 -0.3580
  141MOL   C26345343   0.419   2.803   6.838  0.2741 -0.4966  0.5167
  141MOL   H26445344   0.755   2.732   6.940 -0.0101  0.6781 -1.1811
  141MOL   H26545345   0.622   2.504   7.082  0.1676 -0.2493 -0.6470
  141MOL   H26645346   0.545   2.663   7.055  0.4465  0.1073  0.3779
  141MOL   H26745347   0.697   2.655   7.139  1.3882  1.9458 -2.4480
  141MOL   H26845348   0.664   2.638   6.714  0.4413  0.9283  0.1930
  141MOL   H26945349   0.693   2.917   6.847 -0.9212 -1.8569  0.6554
  141MOL   H27045350   0.575   2.978   6.737  0.5850  0.1989 -0.0358
  141MOL   H27145351   0.703   2.857   6.683  1.2417  1.1050  0.2733
  141MOL   H27245352   0.354   2.725   6.874  0.6399 -1.0393  0.0126
  141MOL   H27345353   0.376   2.902   6.839 -0.1365 -0.6740  0.6322
  141MOL   C27445354   0.505   2.506   6.806 -0.0945 -0.0935  0.2142
  141MOL   C27545355   0.573   2.369   6.806  0.3285  0.4598  0.4442
  141MOL   C27645356   0.401   2.512   6.690 -0.0425  0.7249 -0.1700
  141MOL   C27745357   0.264   2.468   6.739  0.2719 -0.2085 -0.4574
  141MOL   C27845358   0.241   2.319   6.745 -0.5786 -0.1363  0.5401
  141MOL   C27945359   0.172   2.552   6.786  0.8008 -0.5760 -0.5166
  141MOL   H28045360   0.445   2.517   6.897 -0.5776  3.6426 -0.4424
  141MOL   H28145361   0.507   2.283   6.795  2.9758 -1.4661 -0.9757
  141MOL   H28245362   0.610   2.347   6.906  0.1233  0.5007  0.5306
  141MOL   H28345363   0.656   2.357   6.736 -0.8241 -0.4111 -0.8228
  141MOL   H28445364   0.383   2.618   6.674  2.3042  1.2704  0.7232
  141MOL   H28545365   0.278   2.276   6.651 -4.2054 -0.8453 -0.6238
  141MOL   H28645366   0.135   2.298   6.736 -1.1349  1.6044  2.6900
  141MOL   H28745367   0.288   2.260   6.823  2.6605  2.7782  0.9230
  141MOL   H28845368   0.189   2.658   6.785 -0.0718 -0.4311 -0.4415
  141MOL   H28945369   0.072   2.525   6.819 -0.1389  1.7038 -1.3977
  141MOL   C29045370   0.448   2.467   6.539  0.6789 -0.3373  0.0977
  141MOL   C29145371   0.582   2.538   6.492  0.7985  0.0174 -0.1237
  141MOL   C29245372   0.338   2.467   6.426  0.8596  0.1295  0.5691
  141MOL   C29345373   0.355   2.344   6.330 -0.3646 -0.2641  0.1635
  141MOL   C29445374   0.447   2.362   6.208 -0.2253 -0.5272 -0.4819
  141MOL   C29545375   0.288   2.231   6.352 -0.0313 -0.4194  0.1074
  141MOL   H29645376   0.490   2.366   6.544  2.8342  0.4983 -0.4026
  141MOL   H29745377   0.656   2.511   6.567 -2.3582 -3.1937  1.9355
  141MOL   H29845378   0.573   2.645   6.469 -0.7809  0.3452  1.9362
  141MOL   H29945379   0.606   2.494   6.395  0.3499 -1.5255  0.4691
  141MOL   H30045380   0.241   2.442   6.471  0.9201 -1.3358 -0.0883
  141MOL   H30145381   0.425   2.450   6.147  1.2383  0.1678 -0.0384
  141MOL   H30245382   0.442   2.275   6.143  4.9525 -0.1138 -1.6819
  141MOL   H30345383   0.547   2.344   6.248 -0.5590  1.9831  1.5649
  141MOL   H30445384   0.216   2.228   6.433  0.8220  1.3321  0.9767
  141MOL   H30545385   0.290   2.148   6.284 -1.6554  0.2475 -0.7895
  141MOL   C30645386   0.296   2.601   6.353  0.3963  0.3736 -0.6568
  141MOL   C30745387   0.263   2.713   6.456 -1.3959 -0.2981 -0.4450
  141MOL   C30845388   0.167   2.590   6.261  0.2732  0.0530 -0.1919
  141MOL   C30945389   0.107   2.720   6.222 -0.1807 -0.1544 -0.3625
  141MOL   C31045390   7.869   2.765   6.288 -0.4577  0.7433  0.2612
  141MOL   C31145391   0.181   2.804   6.139 -0.4789 -0.7932  0.7762
  141MOL   H31245392   0.372   2.633   6.282  0.2467  2.6434  0.1540
  141MOL   H31345393   0.200   2.692   6.542  0.4771  1.5969  1.4265
  141MOL   H31445394   0.239   2.804   6.401 -2.3586 -0.5253 -0.4004
  141MOL   H31545395   0.351   2.753   6.506 -1.6331 -1.6432  1.0872
  141MOL   H31645396   0.195   2.522   6.179 -2.3864 -0.9992 -0.2686
  141MOL   H31745397   7.869   2.765   6.397 -1.4721 -0.1408  0.2710
  141MOL   H31845398   7.808   2.680   6.256  1.9695  0.0527 -2.8106
  141MOL   H31945399   7.830   2.856   6.244 -2.3673 -0.8274 -1.4343
  141MOL   H32045400   0.280   2.782   6.100 -0.2109  1.8995 -0.1324
  141MOL   H32145401   0.149   2.901   6.106 -1.2058 -1.7128 -1.3139
  141MOL   H32245402   0.088   2.534   6.310  0.5567 -1.0984 -1.0118
  142MOL     C145403   4.065   5.554   2.359  0.7159 -0.0589  0.5388
  142MOL     C245404   3.953   5.587   2.256  0.6211  0.2239 -0.3200
  142MOL     C345405   4.021   5.555   2.507 -0.0612  0.1727  0.1523
  142MOL     C445406   3.956   5.693   2.517 -0.2059  0.7671 -0.6391
  142MOL     C545407   4.046   5.818   2.516 -0.0271  0.5192 -0.9936
  142MOL     C645408   3.822   5.710   2.507 -0.8395  1.1803  0.3112
  142MOL     H745409   4.103   5.453   2.342  0.7721 -0.1540  1.2243
  142MOL     H845410   3.954   5.691   2.222 -0.5224 -0.1660 -1.6290
  142MOL     H945411   3.848   5.573   2.280  0.5800  1.3087  0.1149
  142MOL    H1045412   3.971   5.523   2.169 -1.1877 -0.3052 -0.3208
  142MOL    H1145413   3.940   5.484   2.521 -0.4564  1.0987  2.8341
  142MOL    H1245414   4.099   5.832   2.422 -0.8569  2.8288 -1.1555
  142MOL    H1345415   4.121   5.822   2.595  0.9274  1.2627 -1.9210
  142MOL    H1445416   3.982   5.904   2.538  0.0456  0.9867 -2.5383
  142MOL    H1545417   3.761   5.621   2.518 -0.0005  0.8762  2.9262
  142MOL    H1645418   3.773   5.807   2.506  1.6116  2.4598 -0.3899
  142MOL    H1745419   4.154   5.615   2.353 -0.1985  1.1651 -0.9638
  142MOL    C1845420   4.137   5.526   2.601  0.4121 -0.5218  0.0561
  142MOL    C1945421   4.209   5.392   2.562  0.0030  0.8825  0.3421
  142MOL    C2045422   4.109   5.554   2.753 -0.6397 -0.8958  0.0534
  142MOL    C2145423   4.228   5.620   2.820  0.6720  0.4907  0.9308
  142MOL    C2245424   4.352   5.533   2.843  0.5301 -0.4177  0.2947
  142MOL    C2345425   4.215   5.752   2.851  0.4582  0.4189  0.2983
  142MOL    H2445426   4.212   5.600   2.575  1.0338 -0.5360  1.7082
  142MOL    H2545427   4.272   5.362   2.645  1.0033  2.5049  0.1961
  142MOL    H2645428   4.275   5.423   2.481  0.6645  0.4969  0.7301
  142MOL    H2745429   4.139   5.309   2.552 -0.0855  0.6338  2.8845
  142MOL    H2845430   4.026   5.625   2.760 -0.1396 -0.3171  0.2158
  142MOL    H2945431   4.414   5.544   2.754  0.4405 -1.5331  0.0909
  142MOL    H3045432   4.321   5.429   2.845 -0.7222 -0.0738 -0.4209
  142MOL    H3145433   4.400   5.557   2.938  2.2540 -0.4056 -0.5607
  142MOL    H3245434   4.124   5.807   2.832  0.1153 -0.4460 -0.5946
  142MOL    H3345435   4.305   5.792   2.896  1.1227  0.2625 -0.8774
  142MOL    C3445436   4.044   5.428   2.827  0.9503 -0.3705 -0.0319
  142MOL    C3545437   3.910   5.375   2.760  0.5399  0.2261 -0.8490
  142MOL    C3645438   4.031   5.445   2.990 -0.2364  0.0730  0.1584
  142MOL    C3745439   4.087   5.317   3.062  0.0102 -0.0871  0.0191
  142MOL    C3845440   4.010   5.189   3.041 -0.1659 -0.3752 -0.3347
  142MOL    C3945441   4.205   5.314   3.126 -0.0378 -0.0015 -0.1321
  142MOL    H4045442   4.117   5.347   2.824  0.4433 -0.8826  1.1217
  142MOL    H4145443   3.844   5.454   2.725 -2.4912 -1.7338  0.1860
  142MOL    H4245444   3.844   5.319   2.827 -0.7800 -1.5590 -3.5238
  142MOL    H4345445   3.928   5.309   2.675 -2.8473 -1.4883 -0.3349
  142MOL    H4445446   4.107   5.516   3.024  0.3897 -0.6051  0.1961
  142MOL    H4545447   3.905   5.208   3.065 -0.3244 -1.2558 -0.3065
  142MOL    H4645448   4.038   5.118   3.119 -0.6447  0.2787  0.4428
  142MOL    H4745449   4.027   5.145   2.943  1.4368 -3.0652  1.0852
  142MOL    H4845450   4.262   5.405   3.141  1.1183 -0.9874  1.5852
  142MOL    H4945451   4.247   5.220   3.159 -1.5454 -0.2703  1.0591
  142MOL    C5045452   3.899   5.503   3.049  0.0644 -0.5666  0.3979
  142MOL    C5145453   3.853   5.642   2.981 -0.1269  0.1468 -0.0535
  142MOL    C5245454   3.888   5.514   3.203  0.7546  0.0791  0.2946
  142MOL    C5345455   3.739   5.477   3.240  0.2799  0.1597  0.0701
  142MOL    C5445456   3.709   5.327   3.258 -0.1381  0.0277 -0.0800
  142MOL    C5545457   3.641   5.568   3.258  0.6760  0.1644  0.0961
  142MOL    H5645458   3.827   5.426   3.020 -0.1832 -1.6854  3.7711
  142MOL    H5745459   3.832   5.626   2.875 -0.2283 -0.4737  0.0553
  142MOL    H5845460   3.930   5.718   2.990 -0.4031  0.2051  2.0920
  142MOL    H5945461   3.765   5.685   3.029 -0.1092  0.4016 -0.2528
  142MOL    H6045462   3.933   5.427   3.251  1.1963 -0.3008 -0.7815
  142MOL    H6145463   3.757   5.277   3.341 -1.7194 -0.7872  0.3624
  142MOL    H6245464   3.736   5.269   3.170 -0.6539 -2.1854  1.1956
  142MOL    H6345465   3.601   5.319   3.270 -0.2110 -1.2505 -1.4360
  142MOL    H6445466   3.661   5.673   3.243 -0.2742  0.1888 -1.0455
  142MOL    H6545467   3.540   5.545   3.289  0.7660 -1.7056 -0.9123
  142MOL    C6645468   3.952   5.633   3.269 -0.6111 -0.8926  0.3054
  142MOL    C6745469   4.104   5.660   3.247  0.3614 -0.2819  0.0541
  142MOL    C6845470   3.923   5.637   3.430  0.7306  0.4177  0.5531
  142MOL    C6945471   3.907   5.789   3.468  0.1337 -0.0361 -0.8545
  142MOL    C7045472   3.769   5.860   3.465 -0.0505  0.9571 -0.2891
  142MOL    C7145473   4.012   5.865   3.515 -0.2126  0.6377 -0.7416
  142MOL    H7245474   3.898   5.715   3.223  0.1921 -0.1395  0.6803
  142MOL    H7345475   4.130   5.700   3.150  1.1739 -1.1106 -0.0785
  142MOL    H7445476   4.164   5.570   3.264  0.8153  0.4152  2.3417
  142MOL    H7545477   4.142   5.735   3.316 -0.6637 -1.1615  1.6207
  142MOL    H7645478   3.833   5.578   3.443  1.8019 -1.8352 -1.8497
  142MOL    H7745479   3.704   5.845   3.551  2.2649  0.9387  1.4888
  142MOL    H7845480   3.728   5.835   3.367 -1.0337  0.1954  0.3087
  142MOL    H7945481   3.783   5.968   3.465 -0.6764  1.0558 -1.9677
  142MOL    H8045482   4.111   5.822   3.516 -0.0228  1.0763  0.0884
  142MOL    H8145483   3.997   5.965   3.553  1.8796  0.4908  0.5341
  142MOL    C8245484   4.025   5.551   3.513 -0.1100  0.6506 -0.4418
  142MOL    C8345485   4.047   5.401   3.467 -0.6016 -0.5036  0.5958
  142MOL    C8445486   3.987   5.555   3.669 -0.5098 -0.1496 -0.4376
  142MOL    C8545487   4.114   5.567   3.751  0.2199  0.3446 -0.1769
  142MOL    C8645488   4.187   5.696   3.759 -0.7656  0.1975 -0.1305
  142MOL    C8745489   4.167   5.462   3.816  0.4794 -0.3607  0.2332
  142MOL    H8845490   4.122   5.601   3.509  1.2626 -1.8829 -0.1378
  142MOL    H8945491   3.959   5.336   3.465 -2.2771  1.7314 -0.7942
  142MOL    H9045492   4.120   5.362   3.538 -1.4705 -1.4495  0.9857
  142MOL    H9145493   4.094   5.390   3.370 -1.4536  1.1935 -0.0235
  142MOL    H9245494   3.942   5.650   3.695 -0.4162 -0.0218 -0.7417
  142MOL    H9345495   4.252   5.698   3.847  1.4486 -0.6929 -1.6978
  142MOL    H9445496   4.108   5.771   3.768  0.3851  1.5854 -1.4072
  142MOL    H9545497   4.242   5.725   3.670 -0.9719 -0.7688 -0.5742
  142MOL    H9645498   4.123   5.363   3.817 -4.1199  1.5644  0.1312
  142MOL    H9745499   4.255   5.468   3.878 -0.2838 -1.3133  1.4452
  142MOL    C9845500   3.892   5.442   3.727  0.5753 -0.7968  0.0581
  142MOL    C9945501   3.763   5.442   3.646  0.1501  0.2459  0.4622
  142MOL   C10045502   3.847   5.460   3.881 -0.3312  0.1606  0.8167
  142MOL   C10145503   3.806   5.318   3.932 -0.5232  0.1095  0.2299
  142MOL   C10245504   3.919   5.234   3.991  0.1357 -0.1135  0.6570
  142MOL   C10345505   3.678   5.267   3.932 -0.1494 -0.5000 -0.4790
  142MOL   H10445506   3.943   5.346   3.729 -0.0546 -1.1904 -2.1945
  142MOL   H10545507   3.721   5.542   3.629 -1.4751 -0.4796  0.1295
  142MOL   H10645508   3.682   5.385   3.691 -1.2733  0.1756 -2.0989
  142MOL   H10745509   3.787   5.405   3.546 -0.0468  3.2526 -0.7490
  142MOL   H10845510   3.932   5.495   3.938 -0.1053  1.6903 -0.4499
  142MOL   H10945511   3.967   5.284   4.076  0.3754 -0.6322  0.8263
  142MOL   H11045512   3.992   5.211   3.914  1.0073 -0.9988  1.7260
  142MOL   H11145513   3.878   5.140   4.028  0.3330  0.6365  2.8556
  142MOL   H11245514   3.595   5.326   3.899 -1.0004 -1.4645 -0.0770
  142MOL   H11345515   3.658   5.168   3.971 -1.6304 -0.8061 -1.9686
  142MOL   C11445516   3.746   5.570   3.914 -0.3879 -0.2315  0.3195
  142MOL   C11545517   3.793   5.720   3.899 -0.4644  0.3970 -0.6053
  142MOL   C11645518   3.682   5.559   4.059 -0.2682  0.4924 -0.3128
  142MOL   C11745519   3.529   5.577   4.052 -0.3115 -0.1316 -0.1792
  142MOL   C11845520   3.474   5.705   4.006 -0.3958 -1.2739 -0.6208
  142MOL   C11945521   3.441   5.478   4.073  0.0001 -0.3408 -0.3368
  142MOL   H12045522   3.671   5.557   3.836  1.4109  1.4552 -1.7357
  142MOL   H12145523   3.733   5.799   3.943  1.8921  1.9278 -0.0805
  142MOL   H12245524   3.786   5.759   3.797  1.3024 -0.5135 -1.0927
  142MOL   H12345525   3.898   5.730   3.926  0.0319 -1.5472 -1.7457
  142MOL   H12445526   3.692   5.457   4.097 -2.0262  0.5790  0.3839
  142MOL   H12545527   3.367   5.701   3.990 -0.3875 -1.1700 -0.7055
  142MOL   H12645528   3.515   5.739   3.910 -2.1605  0.2538 -0.8714
  142MOL   H12745529   3.495   5.784   4.078 -2.3122 -1.0371 -0.3097
  142MOL   H12845530   3.465   5.376   4.099 -2.3669 -0.5208  1.2749
  142MOL   H12945531   3.337   5.506   4.069 -0.8981 -3.4710  0.5299
  142MOL   C13045532   3.752   5.632   4.186  0.3517  0.4099 -0.0071
  142MOL   C13145533   3.882   5.553   4.222 -0.0519 -0.5053 -0.1161
  142MOL   C13245534   3.663   5.655   4.310  0.0760  0.9398 -0.4158
  142MOL   C13345535   3.710   5.792   4.374  0.1021 -0.0620  0.0943
  142MOL   C13445536   3.826   5.782   4.463 -0.1470 -0.3133 -0.1606
  142MOL   C13545537   3.643   5.908   4.353  0.6972  0.4253 -0.2070
  142MOL   H13645538   3.775   5.733   4.151  0.9695  1.3323  2.9538
  142MOL   H13745539   3.939   5.608   4.297 -0.0644  2.6995 -2.3888
  142MOL   H13845540   3.950   5.538   4.139 -0.3193  0.2463 -0.4756
  142MOL   H13945541   3.857   5.456   4.266 -1.2687 -0.0691  0.1934
  142MOL   H14045542   3.563   5.667   4.269  0.4014  0.3946 -1.3728
  142MOL   H14145543   3.815   5.865   4.533  3.2481  2.5637 -2.8273
  142MOL   H14245544   3.916   5.796   4.403 -1.5740  1.0536 -2.0420
  142MOL   H14345545   3.834   5.690   4.521 -1.9349  0.7964  1.9330
  142MOL   H14445546   3.557   5.894   4.288 -0.1288 -1.2111  1.2118
  142MOL   H14545547   3.678   5.999   4.399  0.8420 -0.0438  0.6108
  142MOL   C14645548   3.636   5.541   4.422  0.2280 -0.0781  0.0069
  142MOL   C14745549   3.591   5.406   4.363  0.3713 -0.0206 -0.3396
  142MOL   C14845550   3.547   5.594   4.547 -0.2905 -0.1443  0.3957
  142MOL   C14945551   3.591   5.515   4.670 -0.4568  1.2035  0.6087
  142MOL   C15045552   3.715   5.567   4.742 -0.1054 -0.2576 -0.3128
  142MOL   C15145553   3.534   5.398   4.701 -0.2782 -0.4990  0.4153
  142MOL   H15245554   3.734   5.514   4.462 -0.5908 -2.4443  0.4932
  142MOL   H15345555   3.491   5.404   4.321  1.3829 -2.2611 -2.8051
  142MOL   H15445556   3.592   5.331   4.442  1.1894  0.4343  0.0937
  142MOL   H15545557   3.661   5.367   4.288  0.4397 -1.5346  0.4907
  142MOL   H15645558   3.576   5.697   4.570 -3.0472  0.4398  1.4905
  142MOL   H15745559   3.738   5.672   4.724  2.1776 -0.8054 -0.7185
  142MOL   H15845560   3.800   5.504   4.716  0.3489  0.2151 -0.0057
  142MOL   H15945561   3.699   5.561   4.850  0.5891 -1.8821 -0.2728
  142MOL   H16045562   3.462   5.351   4.636 -0.0688 -0.5378  0.2105
  142MOL   H16145563   3.561   5.334   4.784  0.8913 -2.8553 -1.7025
  142MOL   C16245564   3.384   5.602   4.530 -0.4789  0.6002 -0.9211
  142MOL   C16345565   3.330   5.670   4.406  0.2363 -0.1321 -0.4040
  142MOL   C16445566   3.306   5.651   4.664  0.3779  0.2061 -0.1502
  142MOL   C16545567   3.204   5.551   4.711 -0.0806  0.1547  0.6695
  142MOL   C16645568   3.082   5.518   4.624 -0.4466  0.3183  0.3160
  142MOL   C16745569   3.217   5.494   4.832 -0.0302  0.6176  0.0051
  142MOL   H16845570   3.344   5.502   4.512 -1.5741  0.6934  0.9309
  142MOL   H16945571   3.380   5.763   4.381  1.6636 -0.4254  1.2350
  142MOL   H17045572   3.223   5.691   4.410 -0.5547 -3.9818  0.7618
  142MOL   H17145573   3.331   5.606   4.318  1.8575 -1.0534  0.2470
  142MOL   H17245574   3.388   5.641   4.735 -0.5268  0.9115  1.0250
  142MOL   H17345575   3.110   5.490   4.522  0.0076  1.5259  0.1007
  142MOL   H17445576   3.025   5.611   4.618 -1.9414 -0.5188  1.4212
  142MOL   H17545577   3.007   5.445   4.651  0.6524 -0.4117  1.4711
  142MOL   H17645578   3.304   5.514   4.892  0.4771 -0.1820 -0.4472
  142MOL   H17745579   3.149   5.417   4.866 -1.3598  0.8043 -2.1323
  142MOL   C17845580   3.264   5.805   4.669  0.0845  0.7456 -0.0283
  142MOL   C17945581   3.376   5.905   4.621 -0.9043  0.3619 -0.6853
  142MOL   C18045582   3.199   5.846   4.799 -0.1920 -0.0087 -0.8276
  142MOL   C18145583   3.079   5.939   4.770  0.3610 -0.0639  0.0867
  142MOL   C18245584   3.111   6.078   4.724 -0.3999 -0.3187  0.5545
  142MOL   C18345585   2.956   5.905   4.798 -0.2066  0.4910 -0.2693
  142MOL   H18445586   3.188   5.811   4.592 -1.5270  0.0666  1.4663
  142MOL   H18545587   3.332   6.004   4.615 -0.9837  0.3011 -1.1489
  142MOL   H18645588   3.437   5.892   4.531  0.4125 -1.1024  0.3928
  142MOL   H18745589   3.460   5.910   4.691 -0.7009 -4.0876 -0.4427
  142MOL   H18845590   3.149   5.757   4.838 -0.8283 -0.3372 -2.3798
  142MOL   H18945591   3.028   6.146   4.739  0.9195  0.9356  2.2660
  142MOL   H19045592   3.116   6.076   4.615 -0.1755 -1.4700  0.5753
  142MOL   H19145593   3.199   6.129   4.763 -0.6050  1.4130 -1.1629
  142MOL   H19245594   2.927   5.807   4.834 -1.7723  1.6860  1.8078
  142MOL   H19345595   2.881   5.978   4.772 -1.0048 -0.6825 -1.3159
  142MOL   C19445596   3.291   5.894   4.915 -0.4299  0.3071 -0.4696
  142MOL   C19545597   3.418   5.811   4.944 -0.0859  0.0403  0.3356
  142MOL   C19645598   3.226   5.945   5.050  0.1830  0.4458 -0.0528
  142MOL   C19745599   3.315   6.053   5.112 -0.2200  0.3235 -0.8652
  142MOL   C19845600   3.298   6.198   5.058  0.3200  0.1492  0.3564
  142MOL   C19945601   3.401   6.028   5.212 -0.5289  0.5792  0.3558
  142MOL   H20045602   3.321   5.987   4.866 -2.8829  0.8790 -0.9612
  142MOL   H20145603   3.469   5.850   5.033  1.8371 -0.3234 -0.5823
  142MOL   H20245604   3.486   5.809   4.859 -1.2160 -0.1111 -0.5782
  142MOL   H20345605   3.383   5.712   4.973 -1.5986  1.1588  2.4600
  142MOL   H20445606   3.142   6.002   5.010 -1.7138 -2.6488 -0.6554
  142MOL   H20545607   3.299   6.210   4.950 -0.3643  1.5453  0.4992
  142MOL   H20645608   3.369   6.268   5.100  1.2314  0.3305 -1.4480
  142MOL   H20745609   3.196   6.229   5.082 -0.1544 -0.1463 -1.1954
  142MOL   H20845610   3.420   5.933   5.259  1.1583 -0.6837 -2.7739
  142MOL   H20945611   3.463   6.110   5.245 -3.0379  3.4201 -1.6281
  142MOL   C21045612   3.169   5.839   5.153  0.0660 -0.8184 -0.2575
  142MOL   C21145613   3.078   5.730   5.097  0.6988 -0.6042 -0.1113
  142MOL   C21245614   3.106   5.887   5.291  0.1374  0.4324  0.3385
  142MOL   C21345615   3.131   5.780   5.397 -0.3007  0.7761  1.1380
  142MOL   C21445616   3.272   5.784   5.461 -0.3598  0.2391 -0.3255
  142MOL   C21545617   3.039   5.700   5.439  0.1727  0.0762 -0.0474
  142MOL   H21645618   3.247   5.774   5.193  2.1275  1.2612 -0.7859
  142MOL   H21745619   3.005   5.762   5.023  0.9417 -1.0564 -0.5523
  142MOL   H21845620   3.034   5.662   5.170  0.2327 -0.7269 -0.5074
  142MOL   H21945621   3.146   5.660   5.048  1.7141  0.1495  0.1799
  142MOL   H22045622   3.168   5.968   5.330  1.3281  0.2662 -1.1680
  142MOL   H22145623   3.275   5.714   5.544  2.1474 -0.5151 -0.9946
  142MOL   H22245624   3.299   5.884   5.496  0.5942  0.1157 -0.6723
  142MOL   H22345625   3.346   5.749   5.389 -0.0595  2.8085 -1.3216
  142MOL   H22445626   2.944   5.695   5.388  0.1099  2.3683 -0.1936
  142MOL   H22545627   3.053   5.631   5.521 -1.2540  0.7294  0.7684
  142MOL   C22645628   2.966   5.949   5.287 -0.0875  0.3616  0.0268
  142MOL   C22745629   2.941   6.052   5.166  0.0939  0.3361  0.3759
  142MOL   C22845630   2.911   5.995   5.429 -0.0292  0.5738  0.3525
  142MOL   C22945631   2.768   5.948   5.447  0.1547  0.3209 -0.0356
  142MOL   C23045632   2.671   6.019   5.359  0.4500 -0.0680 -0.2788
  142MOL   C23145633   2.722   5.862   5.539 -0.3940  0.6011 -0.3648
  142MOL   H23245634   2.901   5.864   5.265  0.6349  0.2166 -1.6181
  142MOL   H23345635   3.025   6.122   5.160  2.6701 -2.6319  0.4516
  142MOL   H23445636   2.853   6.114   5.186 -0.8115 -0.0950 -2.1806
  142MOL   H23545637   2.929   5.997   5.073  0.5404  0.0262  0.5028
  142MOL   H23645638   2.968   5.936   5.500 -0.0900 -2.0498 -1.7148
  142MOL   H23745639   2.704   6.118   5.328  0.6013 -0.2271 -0.6333
  142MOL   H23845640   2.574   6.036   5.405  0.1285 -0.2651 -0.8754
  142MOL   H23945641   2.637   5.969   5.268 -1.0050  2.4693 -1.1789
  142MOL   H24045642   2.784   5.808   5.609  0.8640  0.3566 -1.6497
  142MOL   H24145643   2.615   5.846   5.542 -0.3772  0.4854 -0.3989
  142MOL   C24245644   2.930   6.145   5.462  0.1564 -0.2385  0.1413
  142MOL   C24345645   3.077   6.186   5.456  0.4819 -0.1114 -0.4109
  142MOL   C24445646   2.860   6.194   5.601  0.2218 -0.5750  0.6670
  142MOL   C24545647   2.814   6.340   5.577 -0.2629  0.2446 -0.1416
  142MOL   C24645648   2.673   6.347   5.520 -0.1532 -0.5463  0.9506
  142MOL   C24745649   2.898   6.446   5.592  0.2654  0.2457 -0.0176
  142MOL   H24845650   2.888   6.205   5.381  1.6807  1.2343  0.4099
  142MOL   H24945651   3.081   6.295   5.459 -1.4377 -0.0321 -0.3017
  142MOL   H25045652   3.120   6.172   5.357  0.8076  0.0546 -0.2947
  142MOL   H25145653   3.140   6.132   5.526  0.5182  1.3041  0.6784
  142MOL   H25245654   2.767   6.138   5.614 -1.2435  1.6775  0.2706
  142MOL   H25345655   2.591   6.289   5.562 -1.5828  0.8184  0.1069
  142MOL   H25445656   2.673   6.318   5.415 -1.5781 -2.3202  1.4256
  142MOL   H25545657   2.633   6.449   5.521  0.9985 -0.0159 -1.8391
  142MOL   H25645658   3.004   6.436   5.611  0.2809  0.9692  0.3092
  142MOL   H25745659   2.855   6.544   5.576 -2.5729 -1.1404 -1.0731
  142MOL   C25845660   2.943   6.171   5.734 -0.1222 -0.0407  0.6419
  142MOL   C25945661   2.994   6.024   5.755  0.2520  0.3712 -0.0608
  142MOL   C26045662   2.871   6.230   5.868  0.1537 -0.4509  0.0909
  142MOL   C26145663   2.978   6.269   5.971 -0.0017  0.3614 -0.0228
  142MOL   C26245664   3.043   6.398   5.956  0.4165  0.0136 -0.5951
  142MOL   C26345665   3.023   6.184   6.067  0.4183  0.7088  0.2753
  142MOL   H26445666   3.023   6.240   5.707  1.7615 -2.4292  0.0044
  142MOL   H26545667   3.065   5.998   5.677  0.0552  0.2729 -0.2075
  142MOL   H26645668   2.914   5.950   5.750  0.2349  0.3283  0.6543
  142MOL   H26745669   3.039   6.014   5.854  0.8121 -1.0470 -0.4374
  142MOL   H26845670   2.838   6.330   5.839  2.9829  0.3212 -0.5720
  142MOL   H26945671   3.033   6.453   6.049  0.1312  0.2196 -0.7491
  142MOL   H27045672   3.007   6.455   5.871 -0.3002 -1.4093 -1.2582
  142MOL   H27145673   3.150   6.376   5.949  0.4244  0.2134 -1.1280
  142MOL   H27245674   2.986   6.083   6.077  0.7475  0.3727 -1.5968
  142MOL   H27345675   3.105   6.207   6.133  0.5832  0.7351  0.0612
  142MOL   C27445676   2.752   6.147   5.936  0.3555 -0.1357  0.5896
  142MOL   C27545677   2.656   6.073   5.841  0.2145 -0.5137 -0.1408
  142MOL   C27645678   2.682   6.240   6.046 -0.1873 -0.5032 -0.0695
  142MOL   C27745679   2.656   6.160   6.172 -0.1114  0.5356  0.4037
  142MOL   C27845680   2.557   6.045   6.165 -0.9718  0.5118  0.0635
  142MOL   C27945681   2.711   6.192   6.289 -1.1542 -0.1532  1.0299
  142MOL   H28045682   2.794   6.057   5.983  2.1150  0.5035  0.2730
  142MOL   H28145683   2.570   6.034   5.894 -2.3023  2.6069 -1.7262
  142MOL   H28245684   2.692   6.000   5.768 -1.4128 -1.2978 -0.1812
  142MOL   H28345685   2.624   6.152   5.772 -1.0887 -2.5545 -1.9536
  142MOL   H28445686   2.757   6.311   6.081 -1.6048  0.8794  0.2184
  142MOL   H28545687   2.542   6.001   6.263 -2.2862  1.9928  0.5637
  142MOL   H28645688   2.601   5.971   6.099 -1.0103  1.7775 -1.4157
  142MOL   H28745689   2.458   6.063   6.123 -1.7789  0.1312  1.7591
  142MOL   H28845690   2.784   6.270   6.304 -1.2748  0.0807  0.4278
  142MOL   H28945691   2.695   6.125   6.372 -3.7071 -0.9374 -0.0504
  142MOL   C29045692   2.564   6.330   5.988 -0.4607 -0.5233 -0.2315
  142MOL   C29145693   2.600   6.417   5.861 -0.0051 -0.3001 -0.5703
  142MOL   C29245694   2.475   6.404   6.086  0.5554  0.1549 -0.1172
  142MOL   C29345695   2.328   6.405   6.030 -0.3469 -0.1605  0.2188
  142MOL   C29445696   2.240   6.302   6.088  0.5203  0.5477  0.2289
  142MOL   C29545697   2.286   6.499   5.946 -0.4437 -0.5269 -0.2207
  142MOL   H29645698   2.500   6.256   5.940 -0.6260 -0.8892  0.5557
  142MOL   H29745699   2.680   6.486   5.887 -0.7884  0.6061 -0.5321
  142MOL   H29845700   2.515   6.479   5.833  0.4676 -0.0086 -1.3904
  142MOL   H29945701   2.628   6.367   5.768  0.5634  2.9082 -2.1993
  142MOL   H30045702   2.472   6.351   6.180  1.5425 -2.8185 -1.7123
  142MOL   H30145703   2.137   6.302   6.055  0.2702 -0.2158  0.9841
  142MOL   H30245704   2.243   6.309   6.197  0.4267  0.2643  0.2486
  142MOL   H30345705   2.282   6.205   6.063  1.0062  0.5874  0.8525
  142MOL   H30445706   2.353   6.580   5.919 -1.3224  1.1253  2.4091
  142MOL   H30545707   2.188   6.499   5.901 -1.6534 -0.7690  2.3367
  142MOL   C30645708   2.520   6.543   6.136 -0.2790 -0.2389 -0.3994
  142MOL   C30745709   2.653   6.533   6.205  0.0632 -0.8883  0.2599
  142MOL   C30845710   2.417   6.614   6.235 -0.4707  0.2709  0.2446
  142MOL   C30945711   2.425   6.771   6.238 -0.1082  0.4762  0.5661
  142MOL   C31045712   2.358   6.840   6.123  0.8204 -0.0558  0.3915
  142MOL   C31145713   2.492   6.839   6.324  0.6061  0.6325 -0.2199
  142MOL   H31245714   2.534   6.604   6.047  0.9599  1.2289  0.7629
  142MOL   H31345715   2.655   6.451   6.276  0.0472 -0.0456  1.2425
  142MOL   H31445716   2.674   6.623   6.263 -2.8481 -0.4963  0.7528
  142MOL   H31545717   2.736   6.526   6.134 -0.3754 -1.7179 -0.1803
  142MOL   H31645718   2.316   6.574   6.220  0.2893 -2.1240  1.1647
  142MOL   H31745719   2.418   6.833   6.032 -0.7116  1.6194 -0.8160
  142MOL   H31845720   2.348   6.948   6.135  2.8956  0.3965 -1.6075
  142MOL   H31945721   2.260   6.797   6.103  1.9745 -2.4156 -0.2588
  142MOL   H32045722   2.553   6.792   6.399  0.0434  1.0099  0.4836
  142MOL   H32145723   2.500   6.947   6.324  0.7415  0.6261 -0.6790
  142MOL   H32245724   2.441   6.568   6.331  1.9472 -1.8267 -1.2751
  143MOL     C145725   6.632   0.364   0.286 -0.3632  0.5364  0.1524
  143MOL     C245726   6.480   0.325   0.296 -0.1770 -0.5757 -0.4186
  143MOL     C345727   6.674   0.477   0.384 -0.1256 -0.0278  0.2802
  143MOL     C445728   6.616   0.611   0.341 -0.0963 -0.1827 -0.3369
  143MOL     C545729   6.654   0.672   0.210 -0.0383 -0.1565 -0.3246
  143MOL     C645730   6.524   0.676   0.417  0.4482  0.0110  0.7002
  143MOL     H745731   6.696   0.276   0.300 -1.8782 -0.7886 -1.0354
  143MOL     H845732   6.419   0.413   0.276 -0.0694 -0.4005  0.0124
  143MOL     H945733   6.458   0.293   0.398  0.6268  1.2413  0.3614
  143MOL    H1045734   6.447   0.244   0.230 -1.1989  0.2883 -0.9847
  143MOL    H1145735   6.618   0.454   0.474 -0.4907  1.5855  0.4851
  143MOL    H1245736   6.759   0.688   0.188 -0.5242  1.0604 -1.7945
  143MOL    H1345737   6.599   0.765   0.195  0.1050 -0.1207 -0.6398
  143MOL    H1445738   6.624   0.597   0.137  1.8171 -1.1335 -0.1204
  143MOL    H1545739   6.498   0.637   0.513  1.4357 -0.1273  0.9182
  143MOL    H1645740   6.475   0.771   0.398  1.2336  0.3531  0.3202
  143MOL    H1745741   6.655   0.377   0.181  1.3889 -1.4829  0.2378
  143MOL    C1845742   6.820   0.487   0.425 -0.3773  0.1943  0.6792
  143MOL    C1945743   6.904   0.463   0.299 -0.4389  0.2380  0.2098
  143MOL    C2045744   6.851   0.392   0.548 -1.0624 -0.3410  0.1589
  143MOL    C2145745   6.754   0.395   0.668 -0.2994  0.2661  0.8129
  143MOL    C2245746   6.751   0.520   0.748  0.3700 -0.1239 -0.1925
  143MOL    C2345747   6.664   0.299   0.688  0.1721  0.3042  0.2722
  143MOL    H2445748   6.837   0.592   0.447  2.8765 -0.2295  0.4146
  143MOL    H2545749   6.861   0.516   0.215  0.1000 -1.9706 -1.5103
  143MOL    H2645750   6.908   0.356   0.279  1.9215  0.3700 -0.1947
  143MOL    H2745751   7.006   0.501   0.307  0.3867 -1.8085 -0.2237
  143MOL    H2845752   6.832   0.291   0.511  0.3392 -0.2663 -0.8002
  143MOL    H2945753   6.660   0.534   0.805 -0.5979  0.4991 -1.8537
  143MOL    H3045754   6.748   0.614   0.693  1.8767  0.0904  0.0505
  143MOL    H3145755   6.837   0.507   0.814  1.2943 -0.4437 -1.4358
  143MOL    H3245756   6.645   0.218   0.619 -2.2941  1.4631 -0.4802
  143MOL    H3345757   6.595   0.303   0.771 -1.7398  1.1432 -1.3123
  143MOL    C3445758   7.002   0.384   0.603  0.2432 -0.2062 -0.5610
  143MOL    C3545759   7.086   0.513   0.588  0.0595 -0.4765 -1.0067
  143MOL    C3645760   7.089   0.273   0.536 -0.7110 -0.3377  0.2345
  143MOL    C3745761   7.021   0.131   0.536 -0.3652 -0.5333  0.2639
  143MOL    C3845762   7.028   0.060   0.406 -0.9411 -0.2244  0.1632
  143MOL    C3945763   6.949   0.086   0.642 -0.2124  0.1170  0.0724
  143MOL    H4045764   6.992   0.358   0.708 -0.3835  0.1792 -0.5207
  143MOL    H4145765   7.144   0.509   0.496 -0.8335 -0.1607 -1.6012
  143MOL    H4245766   7.164   0.521   0.663  0.8972  0.7083 -1.9881
  143MOL    H4345767   7.026   0.604   0.592  0.0238 -0.5286 -0.2849
  143MOL    H4445768   7.081   0.289   0.428 -1.7813 -1.9651  0.0570
  143MOL    H4545769   6.960   7.867   0.397 -1.7903  0.4044  0.5106
  143MOL    H4645770   7.133   0.036   0.392 -1.0822 -0.4960 -0.4695
  143MOL    H4745771   7.012   0.124   0.320  0.3508  1.9857  1.5239
  143MOL    H4845772   6.938   0.132   0.739 -1.4870  0.6370 -0.3158
  143MOL    H4945773   6.905   7.882   0.624 -3.3151  1.4975  0.0437
  143MOL    C5045774   7.240   0.251   0.583  0.0612  0.2160 -1.0915
  143MOL    C5145775   7.252   0.240   0.735  0.2779 -0.2147  0.5684
  143MOL    C5245776   7.354   0.337   0.516 -0.0710  0.4098 -0.0756
  143MOL    C5345777   7.340   0.346   0.363 -0.4398  0.5326 -0.3224
  143MOL    C5445778   7.371   0.487   0.307  0.4208 -0.4419 -0.5343
  143MOL    C5545779   7.315   0.241   0.286  0.3378 -1.0314 -0.1626
  143MOL    H5645780   7.260   0.154   0.539 -0.1095  0.5930 -2.0162
  143MOL    H5745781   7.255   0.342   0.774 -2.6835 -0.5553  1.7957
  143MOL    H5845782   7.343   0.189   0.768  0.4052  0.3896  1.1856
  143MOL    H5945783   7.173   0.192   0.792  0.0230 -0.7095 -0.2039
  143MOL    H6045784   7.359   0.441   0.547  3.3323 -0.8238  3.9265
  143MOL    H6145785   7.479   0.503   0.314  0.3457  0.1190 -0.6639
  143MOL    H6245786   7.324   0.566   0.366  0.7281  0.5366 -1.5828
  143MOL    H6345787   7.341   0.504   0.204  0.7382  1.0762 -0.3776
  143MOL    H6445788   7.303   0.141   0.323 -2.2805 -0.3789  0.8803
  143MOL    H6545789   7.307   0.252   0.178 -2.1755  1.6446  0.2365
  143MOL    C6645790   7.504   0.287   0.539 -0.2792  0.7164  0.5930
  143MOL    C6745791   7.520   0.134   0.511 -0.1003 -0.0966 -0.4024
  143MOL    C6845792   7.575   0.338   0.673 -0.1226  0.2476 -0.4183
  143MOL    C6945793   7.562   0.483   0.704  0.2013  0.0935  0.6103
  143MOL    C7045794   7.528   0.523   0.848 -0.7640 -0.2866  0.0826
  143MOL    C7145795   7.566   0.583   0.607  0.4083  0.1561 -0.8174
  143MOL    H7245796   7.569   0.334   0.465 -0.9363  0.3623 -0.2094
  143MOL    H7345797   7.477   0.079   0.594 -0.9174 -0.5217 -1.1015
  143MOL    H7445798   7.627   0.112   0.511  0.0118  0.4152 -1.3188
  143MOL    H7545799   7.473   0.088   0.424 -1.2702 -0.3518  0.3654
  143MOL    H7645800   7.517   0.299   0.757  1.3724 -1.6558 -0.2141
  143MOL    H7745801   7.532   0.629   0.875 -0.6182  0.6336 -3.3806
  143MOL    H7845802   7.614   0.488   0.906  1.3281 -0.6525 -3.0955
  143MOL    H7945803   7.440   0.469   0.881 -0.5446  1.1550  3.3279
  143MOL    H8045804   7.581   0.552   0.505  1.0646 -1.9587 -0.0988
  143MOL    H8145805   7.552   0.687   0.635 -1.6069  0.0106 -1.2177
  143MOL    C8245806   7.727   0.296   0.701 -0.1715  0.4268  0.0381
  143MOL    C8345807   7.817   0.314   0.573  0.4385  0.2756  0.2639
  143MOL    C8445808   7.750   0.153   0.768 -0.5124  0.1975  0.1177
  143MOL    C8545809   7.672   0.136   0.897 -0.2147  0.8803  0.5439
  143MOL    C8645810   7.714   0.216   1.025  0.4917  0.3301 -0.7020
  143MOL    C8745811   7.575   0.037   0.903 -0.7851 -0.2915 -0.5413
  143MOL    H8845812   7.766   0.366   0.774  2.0212  1.7153 -2.3156
  143MOL    H8945813   7.778   0.263   0.485 -1.5296 -1.0690  1.8527
  143MOL    H9045814   0.030   0.286   0.580  0.3768 -0.0012  0.0948
  143MOL    H9145815   7.799   0.418   0.545 -0.6848  0.5702  2.0035
  143MOL    H9245816   7.700   0.082   0.702  0.6123 -2.3579  1.9601
  143MOL    H9345817   7.712   0.323   1.006  0.4530  0.5980  0.7321
  143MOL    H9445818   7.812   0.195   1.067 -0.2775 -1.2718  0.3402
  143MOL    H9545819   7.651   0.222   1.114 -0.0226 -0.7888 -0.9803
  143MOL    H9645820   7.535   7.870   0.823 -0.7334 -0.0485 -0.7492
  143MOL    H9745821   7.532   0.021   1.001  2.8262  1.4830  1.4151
  143MOL    C9845822   0.003   0.098   0.794  0.0095 -0.0206  0.3344
  143MOL    C9945823   0.097   0.204   0.851  0.4306 -0.2964 -0.1519
  143MOL   C10045824   0.074   0.009   0.689 -0.2883 -0.7003  0.0477
  143MOL   C10145825   7.864   7.805   0.627  0.2617 -0.3638  0.2633
  143MOL   C10245826   7.807   7.693   0.713 -0.1547  0.3795  0.2806
  143MOL   C10345827   7.833   7.818   0.493 -0.4336 -0.0231 -0.3819
  143MOL   H10445828   7.873   0.034   0.879  1.5023  0.4676  1.1054
  143MOL   H10545829   0.124   0.277   0.774 -1.3102 -1.1109 -1.5681
  143MOL   H10645830   0.193   0.168   0.886  0.3334 -2.0266 -1.6121
  143MOL   H10745831   0.052   0.260   0.934  0.1018  1.0476 -1.2077
  143MOL   H10845832   0.101   0.076   0.608  0.5122 -0.2590  0.6660
  143MOL   H10945833   7.724   7.656   0.652  0.3447 -0.6195  0.1805
  143MOL   H11045834   7.766   7.730   0.806 -0.5038 -0.1990  0.3617
  143MOL   H11145835   7.880   7.612   0.711 -2.6989 -2.0506  2.1634
  143MOL   H11245836   7.866   0.006   0.429 -0.7188  1.8845  1.8167
  143MOL   H11345837   7.763   7.756   0.438  0.6181 -0.2519 -1.4971
  143MOL   C11445838   0.209   7.823   0.737  0.8891  0.0187  0.1182
  143MOL   C11545839   0.221   7.791   0.892 -0.0025  0.2369 -0.3854
  143MOL   C11645840   0.339   7.891   0.681 -0.1106 -0.4056 -0.8970
  143MOL   C11745841   0.320   0.053   0.539  0.2745 -0.8405 -0.1795
  143MOL   C11845842   0.345   0.200   0.515  0.4726 -0.6933  0.4113
  143MOL   C11945843   0.257   7.870   0.445  0.2059 -0.5384  0.5762
  143MOL   H12045844   0.194   7.720   0.705 -3.3048  0.2528  1.0962
  143MOL   H12145845   0.124   7.791   0.941 -0.5671 -0.2861 -1.4859
  143MOL   H12245846   0.271   7.878   0.935 -0.7037  0.3058  0.2936
  143MOL   H12345847   0.274   7.700   0.920 -0.3067  0.5169  1.1167
  143MOL   H12445848   0.359   0.084   0.746 -0.4440 -1.3073  0.4078
  143MOL   H12545849   0.451   0.212   0.491  0.2882 -1.7796 -1.0628
  143MOL   H12645850   0.313   0.261   0.599  1.2678  1.4424 -0.8074
  143MOL   H12745851   0.301   0.244   0.426  3.2549  1.3860  0.0195
  143MOL   H12845852   0.229   7.771   0.477 -0.7144 -0.0768  1.2500
  143MOL   H12945853   0.232   0.012   0.346  2.4628  0.6811  0.4046
  143MOL   C13045854   0.470   7.807   0.701 -0.3088  0.0293  0.0998
  143MOL   C13145855   0.450   7.658   0.653 -0.5227  0.3732 -0.0096
  143MOL   C13245856   0.541   7.816   0.834  0.5685 -0.3074  0.3894
  143MOL   C13345857   0.563   0.070   0.886  0.1232  0.6765  0.0140
  143MOL   C13445858   0.638   0.161   0.791  0.0843 -0.1491  0.8068
  143MOL   C13545859   0.517   0.109   1.010  0.1257  0.0685  0.3248
  143MOL   H13645860   0.543   7.855   0.636 -2.0411  1.9313 -0.4939
  143MOL   H13745861   0.542   7.609   0.622 -0.5751 -0.2280  0.7689
  143MOL   H13845862   0.380   7.645   0.571  0.7480  1.2154 -1.2427
  143MOL   H13945863   0.406   7.605   0.738  1.4332  1.5205  1.7766
  143MOL   H14045864   0.467   7.775   0.904  0.1893 -1.1345 -0.4917
  143MOL   H14145865   0.741   0.130   0.771  0.2651  0.4049  0.8680
  143MOL   H14245866   0.662   0.258   0.835  0.1174  0.8444 -1.3389
  143MOL   H14345867   0.582   0.162   0.698 -2.3226  1.7718  2.2079
  143MOL   H14445868   0.456   0.044   1.072 -0.0775 -0.4027 -0.3571
  143MOL   H14545869   0.532   0.211   1.042  1.9055  1.0280 -3.3433
  143MOL   C14645870   0.678   7.734   0.849  0.0345  0.2789 -0.0014
  143MOL   C14745871   0.774   7.752   0.730 -0.6479  0.9691 -0.1621
  143MOL   C14845872   0.678   7.590   0.898  0.2467  0.9985 -0.0064
  143MOL   C14945873   0.589   7.563   1.015 -0.3731  0.3703  0.5059
  143MOL   C15045874   0.497   7.444   1.018  0.7514  0.0063  0.2698
  143MOL   C15145875   0.589   7.647   1.117 -0.7205 -0.5119 -0.4923
  143MOL   H15245876   0.731   7.792   0.924 -1.5087  0.6322  0.8345
  143MOL   H15345877   0.773   7.849   0.680 -1.6267  0.8389 -0.4000
  143MOL   H15445878   0.751   7.675   0.657 -0.2901 -0.4952  1.2469
  143MOL   H15545879   0.881   7.741   0.748 -0.3072 -1.9771 -3.5192
  143MOL   H15645880   0.635   7.539   0.812 -0.7812 -0.2382  1.1887
  143MOL   H15745881   0.458   7.420   0.919  0.8616  0.9130  0.0008
  143MOL   H15845882   0.407   7.480   1.067 -0.5800 -3.7214  0.6876
  143MOL   H15945883   0.549   7.366   1.072 -1.1267 -0.3260  1.6453
  143MOL   H16045884   0.660   7.728   1.118 -0.0840 -1.0177 -2.8771
  143MOL   H16145885   0.524   7.641   1.203  0.3862 -2.8276  0.2149
  143MOL   C16245886   0.819   7.524   0.933 -0.1144  0.2045 -0.0204
  143MOL   C16345887   0.912   7.627   1.004  0.4984  0.4884 -0.5169
  143MOL   C16445888   0.891   7.450   0.806  0.8087 -0.2144  0.0662
  143MOL   C16545889   0.799   7.359   0.727 -0.3244 -1.1797 -0.2297
  143MOL   C16645890   0.825   7.364   0.577 -0.3265 -0.3584  0.1442
  143MOL   C16745891   0.709   7.280   0.783 -0.3467  0.1516 -0.6013
  143MOL   H16845892   0.802   7.442   1.002  0.4867  0.3171  0.2598
  143MOL   H16945893   0.868   7.675   1.091  1.6151 -0.2902  0.4975
  143MOL   H17045894   0.941   7.706   0.935  2.9408 -0.3286 -0.4934
  143MOL   H17145895   1.010   7.584   1.026  0.7688  2.4305  2.3844
  143MOL   H17245896   0.908   7.529   0.733 -2.5423 -0.3321 -0.8987
  143MOL   H17345897   0.739   7.322   0.524 -2.1353  0.5525  2.2777
  143MOL   H17445898   0.913   7.303   0.556  0.6963  0.5738  1.6004
  143MOL   H17545899   0.837   7.466   0.540  1.7288 -0.2254  1.1143
  143MOL   H17645900   0.681   7.282   0.887  0.6858 -2.7882 -0.2419
  143MOL   H17745901   0.652   7.218   0.715  2.2774 -1.8856 -0.9741
  143MOL   C17845902   1.046   7.392   0.825  0.3246 -0.5995 -0.6902
  143MOL   C17945903   1.132   7.424   0.705  0.0602 -0.3466  0.8194
  143MOL   C18045904   1.060   7.238   0.858  0.2754 -0.1167  0.6443
  143MOL   C18145905   0.979   7.201   0.981  0.3342  0.9850 -0.6433
  143MOL   C18245906   0.921   7.063   0.983 -0.5843 -0.0448  0.4403
  143MOL   C18345907   0.964   7.272   1.091  0.4877 -0.3894  0.0940
  143MOL   H18445908   1.094   7.445   0.908  0.3576 -0.9329 -0.4971
  143MOL   H18545909   1.107   7.357   0.623  1.2631  1.5959 -1.2181
  143MOL   H18645910   1.239   7.423   0.728  0.4639 -2.5511 -0.9647
  143MOL   H18745911   1.116   7.528   0.675 -2.5042 -1.5561 -2.1714
  143MOL   H18845912   1.008   7.185   0.778  2.5080 -0.8959 -0.3264
  143MOL   H18945913   0.861   7.042   1.072 -0.9652  2.2696  0.7702
  143MOL   H19045914   0.995   6.984   0.985 -1.5725 -0.9558  2.2199
  143MOL   H19145915   0.855   7.050   0.897  0.0772  2.0137 -0.4102
  143MOL   H19245916   1.000   7.373   1.105 -0.8224  0.3913 -1.9006
  143MOL   H19345917   0.908   7.235   1.176  0.5211 -1.6528 -0.4380
  143MOL   C19445918   1.208   7.184   0.875  0.3206  0.2531  0.0801
  143MOL   C19545919   1.295   7.274   0.964  0.0319  0.0074 -0.4321
  143MOL   C19645920   1.285   7.141   0.741 -0.0305 -1.1533  0.2077
  143MOL   C19745921   1.212   7.042   0.653  0.6237  0.1955 -0.6984
  143MOL   C19845922   1.206   6.895   0.698 -0.5392  0.2349 -0.0445
  143MOL   C19945923   1.177   7.070   0.530  0.1980  0.0376 -0.2077
  143MOL   H20045924   1.205   7.089   0.929 -1.7453 -0.7802 -1.7706
  143MOL   H20145925   1.239   7.311   1.051  0.8319 -0.2795  0.2045
  143MOL   H20245926   1.321   7.363   0.907  0.9684  0.3209  0.4817
  143MOL   H20345927   1.389   7.237   1.004 -0.8191  0.3938  2.0260
  143MOL   H20445928   1.303   7.236   0.691 -1.1989  0.6270  3.0443
  143MOL   H20545929   1.134   6.900   0.779 -2.2200 -1.1134 -1.4260
  143MOL   H20645930   1.299   6.855   0.740 -1.0333 -0.1215  0.7117
  143MOL   H20745931   1.159   6.836   0.620  0.5817 -0.0892 -0.4817
  143MOL   H20845932   1.192   7.171   0.495  0.4257 -0.6455 -2.1315
  143MOL   H20945933   1.138   7.000   0.458 -0.0965  1.1970 -1.2065
  143MOL   C21045934   1.438   7.101   0.756 -0.6589  0.4569  0.0978
  143MOL   C21145935   1.473   7.013   0.878 -0.3808 -0.0115 -0.1274
  143MOL   C21245936   1.547   7.217   0.727  0.4784  0.7416 -0.2228
  143MOL   C21345937   1.517   7.305   0.605  0.1351 -0.0035  0.1215
  143MOL   C21445938   1.506   7.231   0.469  0.1135 -0.0571 -0.4133
  143MOL   C21545939   1.499   7.435   0.614 -0.0615 -0.4590 -0.3252
  143MOL   H21645940   1.457   7.025   0.679 -2.2367 -0.6958  0.8318
  143MOL   H21745941   1.501   7.086   0.954 -1.5721  1.0986 -0.7408
  143MOL   H21845942   1.560   6.948   0.862 -1.3899 -1.2027 -0.8584
  143MOL   H21945943   1.391   6.948   0.908 -0.3610  0.0351  0.0290
  143MOL   H22045944   1.531   7.287   0.809 -0.3386 -1.0931  1.2246
  143MOL   H22145945   1.486   7.297   0.385  1.7415  0.7764 -0.1526
  143MOL   H22245946   1.429   7.154   0.463 -2.5729  2.7156 -3.1652
  143MOL   H22345947   1.603   7.185   0.449  0.7015  1.4011 -0.9744
  143MOL   H22445948   1.504   7.479   0.712  3.2144  0.3235 -0.7687
  143MOL   H22545949   1.473   7.505   0.536 -0.3652 -2.3155 -1.9403
  143MOL   C22645950   1.696   7.172   0.748  0.1056 -0.4372  0.0504
  143MOL   C22745951   1.718   7.041   0.664  0.3805  0.0504 -0.1201
  143MOL   C22845952   1.761   7.172   0.889 -0.0103 -0.0982  0.1920
  143MOL   C22945953   1.740   7.304   0.963  0.0888 -0.2260  0.7085
  143MOL   C23045954   1.707   7.301   1.111  0.2562  0.0031 -0.2764
  143MOL   C23145955   1.765   7.420   0.901 -0.5896 -0.4429 -0.4446
  143MOL   H23245956   1.743   7.254   0.692  0.9258 -0.0431  1.2887
  143MOL   H23345957   1.709   6.944   0.714 -0.6056  0.1809 -0.0442
  143MOL   H23445958   1.826   7.035   0.647  0.1641  0.3027 -1.6454
  143MOL   H23545959   1.678   7.038   0.563 -1.6385 -1.5368  0.6927
  143MOL   H23645960   1.712   7.092   0.945 -0.4223 -1.4697 -2.0836
  143MOL   H23745961   1.610   7.252   1.128 -0.3663  1.0350 -0.8464
  143MOL   H23845962   1.701   7.403   1.149 -1.1301 -0.3094  0.3876
  143MOL   H23945963   1.774   7.241   1.173  0.8546  0.0902 -0.8329
  143MOL   H24045964   1.794   7.427   0.797  0.7223 -0.2556 -0.0705
  143MOL   H24145965   1.753   7.509   0.960  2.2922 -0.1666 -0.2356
  143MOL   C24245966   1.910   7.134   0.903 -0.4070 -0.9070  0.1626
  143MOL   C24345967   1.994   7.211   0.794  0.3752  0.3795 -0.5121
  143MOL   C24445968   1.954   6.981   0.913  0.1321 -0.3504  0.7341
  143MOL   C24545969   1.869   6.907   1.024  0.4827 -0.3127 -0.2784
  143MOL   C24645970   1.796   6.780   0.976  0.1069 -0.0964  0.2844
  143MOL   C24745971   1.850   6.945   1.149  0.5029 -0.3591  0.0451
  143MOL   H24845972   1.937   7.178   0.999  0.8444  0.0729 -0.6337
  143MOL   H24945973   1.992   7.317   0.816  0.4918  0.1713  0.5214
  143MOL   H25045974   1.958   7.192   0.693  3.0084  0.4401 -1.4993
  143MOL   H25145975   2.099   7.183   0.795  0.4372  0.6450  0.0268
  143MOL   H25245976   1.921   6.931   0.821  0.3249  1.0560 -0.1129
  143MOL   H25345977   1.761   6.720   1.060  0.8403  1.5458  1.8145
  143MOL   H25445978   1.876   6.721   0.932  1.1132  1.0038  0.6063
  143MOL   H25545979   1.720   6.787   0.898  0.0770 -1.0332  0.2244
  143MOL   H25645980   1.904   7.035   1.173  0.3383 -0.3219  0.2751
  143MOL   H25745981   1.803   6.881   1.223 -0.4521 -0.9565 -1.0745
  143MOL   C25845982   2.107   6.949   0.948  0.2514  0.2426 -0.3757
  143MOL   C25945983   2.181   7.068   1.031 -0.0662  0.7003  0.1696
  143MOL   C26045984   2.193   6.893   0.836  0.1244  0.6039  0.0409
  143MOL   C26145985   2.127   6.772   0.769 -0.6165 -0.7886 -0.2421
  143MOL   C26245986   2.079   6.798   0.625 -0.6509  0.5765  0.0326
  143MOL   C26345987   2.092   6.658   0.833 -0.6159  0.1084 -0.2485
  143MOL   H26445988   2.107   6.868   1.021 -2.1311  0.2931 -0.2707
  143MOL   H26545989   2.112   7.086   1.113 -0.2825 -3.1641  0.9364
  143MOL   H26645990   2.212   7.152   0.969  0.2480  0.4855  0.0301
  143MOL   H26745991   2.274   7.049   1.086  0.0916 -1.3226 -0.7350
  143MOL   H26845992   2.191   6.977   0.767 -0.1253  0.3767 -0.2323
  143MOL   H26945993   2.160   6.784   0.554 -0.5869 -3.3364  0.8003
  143MOL   H27045994   2.044   6.901   0.611 -1.6056  0.0189 -1.7767
  143MOL   H27145995   2.002   6.729   0.592 -1.8177  1.2903  1.1889
  143MOL   H27245996   2.138   6.651   0.930 -0.6431  2.3248 -0.0510
  143MOL   H27345997   2.033   6.580   0.787 -1.3623  0.1268  0.6440
  143MOL   C27445998   2.341   6.854   0.863 -0.3378 -0.2153 -0.1932
  143MOL   C27545999   2.378   6.790   0.999  0.3982  0.6555  0.5464
  143MOL   C27646000   2.450   6.967   0.832  0.4850 -0.4203  0.2747
  143MOL   C27746001   2.434   7.018   0.685  0.4600  1.0958  0.3184
  143MOL   C27846002   2.441   7.165   0.667  0.7524 -0.0469 -0.4038
  143MOL   C27946003   2.415   6.943   0.579  0.0973 -0.2338  0.5609
  143MOL   H28046004   2.370   6.783   0.786  0.4516 -1.4312  1.1929
  143MOL   H28146005   2.304   6.715   1.027  0.0001  0.0052 -2.1127
  143MOL   H28246006   2.361   6.860   1.081 -0.3276  0.5063  0.5185
  143MOL   H28346007   2.478   6.745   1.004 -0.4527 -1.2770  0.7941
  143MOL   H28446008   2.418   7.056   0.886  0.1388 -0.2448 -0.2165
  143MOL   H28546009   2.523   7.220   0.715  1.0724  0.3600 -1.4077
  143MOL   H28646010   2.347   7.198   0.711  0.2214 -1.7094 -0.2674
  143MOL   H28746011   2.436   7.207   0.567 -0.6294  0.4592 -0.1223
  143MOL   H28846012   2.407   6.835   0.577  1.3833 -0.3169 -1.4482
  143MOL   H28946013   2.412   6.988   0.481  2.9038 -0.4714  0.3186
  143MOL   C29046014   2.605   6.951   0.858  0.2598  0.2641 -0.8538
  143MOL   C29146015   2.659   6.818   0.792 -1.1018  0.2584  0.5869
  143MOL   C29246016   2.663   6.962   1.004 -0.1497  0.6920  0.0632
  143MOL   C29346017   2.591   7.070   1.087 -0.0465  0.3802 -0.5292
  143MOL   C29446018   2.603   7.215   1.042 -0.3549  0.0800  0.6007
  143MOL   C29546019   2.531   7.044   1.203  0.4262 -0.4595  0.5333
  143MOL   H29646020   2.651   7.033   0.803  1.5896 -2.2295 -3.5399
  143MOL   H29746021   2.767   6.811   0.782 -0.8079  0.5902  3.1694
  143MOL   H29846022   2.619   6.830   0.691 -4.3420 -2.5668  1.4354
  143MOL   H29946023   2.617   6.726   0.833 -1.5485  0.9115  1.6348
  143MOL   H30046024   2.621   6.877   1.057 -1.2326  0.9850 -0.3083
  143MOL   H30146025   2.538   7.281   1.100 -0.1089 -1.1483  2.2959
  143MOL   H30246026   2.586   7.224   0.934  0.6136 -0.1247  0.4276
  143MOL   H30346027   2.703   7.251   1.065 -0.8131  1.2526  0.8032
  143MOL   H30446028   2.529   6.946   1.250  3.7850 -1.0773 -0.4678
  143MOL   H30546029   2.486   7.119   1.266  1.1141  0.2737  0.1508
  143MOL   C30646030   2.823   6.963   1.034  0.1247 -0.2979  0.4518
  143MOL   C30746031   2.904   7.047   0.933 -0.4942 -0.3749 -0.3081
  143MOL   C30846032   2.889   6.823   1.058  0.1194 -0.2798 -0.2509
  143MOL   C30946033   2.834   6.733   1.165 -0.2810  0.7749  0.4135
  143MOL   C31046034   2.838   6.785   1.304  0.2309  0.0087 -0.4298
  143MOL   C31146035   2.799   6.603   1.134  0.2958  0.1302 -0.2983
  143MOL   H31246036   2.849   7.031   1.115  0.5730 -1.6657  1.4532
  143MOL   H31346037   2.862   7.142   0.900  2.1640 -0.0681 -3.0297
  143MOL   H31446038   2.918   7.009   0.832  0.2877  1.1608 -0.7849
  143MOL   H31546039   3.004   7.071   0.969  0.4143 -1.9324 -1.7368
  143MOL   H31646040   2.911   6.765   0.969  1.9789 -1.7600  1.1189
  143MOL   H31746041   2.807   6.889   1.315 -1.3444 -0.1219 -3.1638
  143MOL   H31846042   2.943   6.771   1.333  0.2126 -0.5873 -0.6605
  143MOL   H31946043   2.775   6.732   1.375  0.4512 -0.8501 -0.8616
  143MOL   H32046044   2.807   6.549   1.041 -0.9917 -1.0072  0.2354
  143MOL   H32146045   2.759   6.542   1.214  1.7415  0.0782  0.4160
  143MOL   H32246046   2.989   6.842   1.099 -0.0208  1.2138 -0.5951
  144MOL     C146047   2.632   4.714   6.235  0.5764  1.1264 -0.3283
  144MOL     C246048   2.520   4.774   6.319 -0.0974 -0.0610 -0.1681
  144MOL     C346049   2.746   4.812   6.199  0.3780 -0.4852 -0.6743
  144MOL     C446050   2.696   4.917   6.106  0.0707 -0.1844 -0.4768
  144MOL     C546051   2.631   4.874   5.966 -0.5848 -0.4771 -0.3758
  144MOL     C646052   2.706   5.048   6.139  0.5213  0.1531  0.4453
  144MOL     H746053   2.670   4.633   6.298 -2.3877  1.6634  2.2432
  144MOL     H846054   2.485   4.867   6.273  0.7506  0.4896  0.2768
  144MOL     H946055   2.551   4.810   6.417  0.1783  0.1500 -0.3316
  144MOL    H1046056   2.428   4.716   6.319 -1.5047  2.0723  2.3425
  144MOL    H1146057   2.768   4.867   6.291  1.9155  0.6659 -1.6953
  144MOL    H1246058   2.598   4.966   5.919  0.4797 -0.7129 -1.6299
  144MOL    H1346059   2.538   4.819   5.974 -0.9820  0.4008  1.3794
  144MOL    H1446060   2.704   4.825   5.901  2.2718 -0.5354  2.6818
  144MOL    H1546061   2.745   5.082   6.233  0.8340 -2.1856  1.2061
  144MOL    H1646062   2.675   5.123   6.068  1.8813  1.0087  0.7561
  144MOL    H1746063   2.597   4.671   6.141  0.6880 -1.2132  0.6596
  144MOL    C1846064   2.876   4.737   6.144 -0.2279  0.4595  0.3554
  144MOL    C1946065   2.944   4.655   6.256  0.3376 -0.0749 -0.1275
  144MOL    C2046066   2.967   4.819   6.048 -0.6102 -0.6521  0.0298
  144MOL    C2146067   3.019   4.725   5.935  0.9009 -0.1544  0.1335
  144MOL    C2246068   2.941   4.735   5.804  0.3155  0.1808 -0.4663
  144MOL    C2346069   3.116   4.638   5.944  0.2356 -0.1433  0.2464
  144MOL    H2446070   2.835   4.658   6.080  1.2860 -1.1735  1.3497
  144MOL    H2546071   3.000   4.704   6.336  0.9353 -1.6799  0.4533
  144MOL    H2646072   3.023   4.590   6.220  1.7626  0.9557  1.0694
  144MOL    H2746073   2.868   4.585   6.292 -0.3750 -0.8801 -3.0618
  144MOL    H2846074   2.910   4.898   5.999  1.1069  0.5767 -0.0363
  144MOL    H2946075   2.853   4.671   5.807 -1.0151  2.0212  1.2737
  144MOL    H3046076   3.008   4.712   5.722 -0.4075 -1.4408 -0.6142
  144MOL    H3146077   2.900   4.836   5.793 -1.6741 -0.5025  0.3988
  144MOL    H3246078   3.162   4.618   6.040 -0.5048 -0.3281  0.5670
  144MOL    H3346079   3.148   4.575   5.862  1.7341 -0.5729  1.1530
  144MOL    C3446080   3.091   4.888   6.123  0.2416  0.7349  0.6107
  144MOL    C3546081   3.059   4.977   6.238  0.0470 -0.1024  0.1482
  144MOL    C3646082   3.198   4.959   6.027 -0.1571  0.1905 -0.1681
  144MOL    C3746083   3.344   4.947   6.081  0.4588  0.3562 -0.3664
  144MOL    C3846084   3.425   4.830   6.046 -0.5697 -0.0058  0.2063
  144MOL    C3946085   3.390   5.032   6.172  0.2250  0.2166  0.4671
  144MOL    H4046086   3.135   4.796   6.161  0.8834 -0.5229 -2.9397
  144MOL    H4146087   2.993   4.936   6.315  1.2397 -3.4513 -0.5288
  144MOL    H4246088   3.004   5.067   6.212 -0.5185  0.9407  4.5700
  144MOL    H4346089   3.143   5.005   6.302 -1.0600 -0.2690  1.6962
  144MOL    H4446090   3.202   4.903   5.933  1.1342 -0.2135  0.1263
  144MOL    H4546091   3.473   4.834   5.948  0.7346  0.8867  0.8628
  144MOL    H4646092   3.379   4.732   6.055 -3.0587  0.9757 -1.3443
  144MOL    H4746093   3.511   4.810   6.111 -0.5383  2.5738  1.0098
  144MOL    H4846094   3.334   5.120   6.197 -0.3351  0.5946 -1.9591
  144MOL    H4946095   3.490   5.015   6.210  1.5165  1.5597 -2.2093
  144MOL    C5046096   3.171   5.115   5.983 -0.3102 -0.3244 -0.7477
  144MOL    C5146097   3.036   5.135   5.918  0.0113  0.4798  0.0189
  144MOL    C5246098   3.280   5.194   5.898  0.1056  0.7710  0.0868
  144MOL    C5346099   3.285   5.343   5.939 -0.2793  0.4931  0.6363
  144MOL    C5446100   3.169   5.438   5.912  0.4850 -0.7668  0.2985
  144MOL    C5546101   3.397   5.387   5.998  0.2457  0.0933 -0.0894
  144MOL    H5646102   3.166   5.175   6.074 -0.1316  0.2842 -1.1355
  144MOL    H5746103   3.034   5.070   5.831  0.7414  1.7042 -0.9336
  144MOL    H5846104   3.000   5.233   5.885  0.0450 -0.0229 -1.5414
  144MOL    H5946105   2.957   5.102   5.985  2.3608  2.3023  3.8966
  144MOL    H6046106   3.373   5.142   5.920 -1.3332 -0.8089  2.6635
  144MOL    H6146107   3.198   5.540   5.936 -1.2228 -0.1492 -0.1892
  144MOL    H6246108   3.076   5.414   5.964  0.9616  0.2178  1.5968
  144MOL    H6346109   3.143   5.440   5.806  0.9944  0.0050  0.1910
  144MOL    H6446110   3.482   5.327   6.027  0.9457  1.3458  0.5139
  144MOL    H6546111   3.418   5.491   6.022  2.0913 -0.4803  0.8582
  144MOL    C6646112   3.260   5.161   5.738 -0.2775  0.4247 -0.4161
  144MOL    C6746113   3.266   5.010   5.709  0.2976  0.3113 -0.2451
  144MOL    C6846114   3.351   5.241   5.631  0.4509  0.6675  1.0027
  144MOL    C6946115   3.277   5.261   5.496 -0.1654 -0.3786 -0.1809
  144MOL    C7046116   3.217   5.399   5.473 -0.4009  0.3339  0.0259
  144MOL    C7146117   3.255   5.170   5.398  0.2571  0.0928  0.2118
  144MOL    H7246118   3.159   5.188   5.707 -0.8572 -0.2299  0.8308
  144MOL    H7346119   3.171   4.964   5.737  0.9044 -1.1179 -0.4928
  144MOL    H7446120   3.352   4.964   5.756 -0.4369  0.8664  1.6605
  144MOL    H7546121   3.267   4.977   5.605 -0.5581 -2.2369  0.5328
  144MOL    H7646122   3.374   5.339   5.671  0.1503  2.1849 -2.3334
  144MOL    H7746123   3.306   5.452   5.439  0.3724 -1.4119 -0.7507
  144MOL    H7846124   3.163   5.438   5.559  0.8152  2.3383 -0.0995
  144MOL    H7946125   3.156   5.411   5.383  1.7778 -2.0533 -1.8390
  144MOL    H8046126   3.287   5.067   5.394  2.8318  0.8233  1.1162
  144MOL    H8146127   3.199   5.200   5.310 -0.8460  1.1187  1.2405
  144MOL    C8246128   3.501   5.185   5.607 -0.4540  0.0367 -0.3214
  144MOL    C8346129   3.579   5.149   5.734 -0.4126 -0.3407 -0.2800
  144MOL    C8446130   3.579   5.287   5.515 -0.6324  0.1956 -0.0285
  144MOL    C8546131   3.664   5.218   5.399  0.5479 -0.2709 -0.8059
  144MOL    C8646132   3.796   5.156   5.440 -0.3886  0.5859 -0.6044
  144MOL    C8746133   3.620   5.220   5.273 -0.0640  0.7126  0.6382
  144MOL    H8846134   3.502   5.096   5.543  0.4157  0.4427 -0.8886
  144MOL    H8946135   3.541   5.049   5.753 -1.5243 -0.1336 -1.3095
  144MOL    H9046136   3.571   5.217   5.818  1.8791  1.5755 -1.5398
  144MOL    H9146137   3.683   5.129   5.709 -0.6538 -0.8224 -0.9302
  144MOL    H9246138   3.510   5.351   5.460  0.0577  0.0188 -1.1139
  144MOL    H9346139   3.798   5.051   5.413  0.1886  0.8975 -1.8034
  144MOL    H9446140   3.809   5.161   5.548  2.2173  4.3237 -1.0053
  144MOL    H9546141   3.881   5.200   5.389  2.0121  0.9963  3.5481
  144MOL    H9646142   3.529   5.271   5.248  0.5739  0.9683 -1.2979
  144MOL    H9746143   3.677   5.189   5.186 -1.3941  0.9417 -0.3385
  144MOL    C9846144   3.674   5.401   5.585  0.4011 -0.2991  0.0454
  144MOL    C9946145   3.585   5.498   5.669 -0.7666 -0.0012  0.7106
  144MOL   C10046146   3.777   5.489   5.510  0.4649 -0.0531  0.0474
  144MOL   C10146147   3.896   5.519   5.609  1.0987  0.0723 -0.5044
  144MOL   C10246148   4.001   5.411   5.619  0.2928  0.7905 -0.1292
  144MOL   C10346149   3.900   5.626   5.688  0.1662  0.8960 -0.3873
  144MOL   H10446150   3.737   5.349   5.657 -0.5122 -0.9906  0.3641
  144MOL   H10546151   3.541   5.439   5.749 -1.0378  0.3704  0.8339
  144MOL   H10646152   3.501   5.531   5.608  0.1531  3.4407  1.1777
  144MOL   H10746153   3.635   5.581   5.718 -0.4729 -0.6670  1.5455
  144MOL   H10846154   3.825   5.425   5.436  1.1553  0.6028 -0.0768
  144MOL   H10946155   4.022   5.358   5.527 -0.2055 -0.9224  0.7188
  144MOL   H11046156   3.959   5.337   5.687  1.9972 -0.8761 -0.8529
  144MOL   H11146157   4.095   5.451   5.656  0.5994  1.3013 -1.4308
  144MOL   H11246158   3.835   5.712   5.691 -0.9377  0.0822 -0.6057
  144MOL   H11346159   3.977   5.629   5.764  0.7979 -0.6335 -0.9478
  144MOL   C11446160   3.729   5.617   5.428 -0.0677  0.4862 -0.4479
  144MOL   C11546161   3.608   5.573   5.343  0.4829 -0.2484  0.4044
  144MOL   C11646162   3.845   5.694   5.353 -0.2579 -0.0361  0.6303
  144MOL   C11746163   3.837   5.850   5.376  0.2569 -0.0270  0.1883
  144MOL   C11846164   3.704   5.911   5.329  0.0018 -0.0914  0.2752
  144MOL   C11946165   3.937   5.922   5.424 -0.3259 -0.3826 -1.1432
  144MOL   H12046166   3.683   5.675   5.508  0.6453  0.9758 -0.3827
  144MOL   H12146167   3.518   5.558   5.403 -0.3914 -0.5854 -0.9814
  144MOL   H12246168   3.641   5.480   5.296  0.7536 -0.1882  0.4748
  144MOL   H12346169   3.587   5.645   5.265 -1.0890 -0.9977  0.1077
  144MOL   H12446170   3.936   5.662   5.403 -0.3368  2.0037  2.1410
  144MOL   H12546171   3.695   5.869   5.228  0.7383 -0.3727  0.3203
  144MOL   H12646172   3.712   6.017   5.306  1.2743 -0.2325  0.0280
  144MOL   H12746173   3.619   5.882   5.391  1.0259 -1.2357  1.1739
  144MOL   H12846174   4.033   5.882   5.454 -1.2986 -1.3920  0.7271
  144MOL   H12946175   3.924   6.029   5.428 -0.4495 -0.4781  3.5192
  144MOL   C13046176   3.876   5.657   5.199 -0.0748  0.1429 -0.5041
  144MOL   C13146177   3.922   5.516   5.198  0.5613 -0.9467  0.2075
  144MOL   C13246178   3.975   5.762   5.121  0.4838  0.3419 -0.3143
  144MOL   C13346179   3.902   5.874   5.055  0.3008 -0.3247 -0.6098
  144MOL   C13446180   3.982   6.010   5.047  0.0447 -0.2364 -0.0605
  144MOL   C13546181   3.789   5.857   4.979  0.0780 -0.5865 -0.1792
  144MOL   H13646182   3.782   5.649   5.143 -0.6536 -1.6724  0.6913
  144MOL   H13746183   3.838   5.456   5.233 -0.6495  1.0133  0.7374
  144MOL   H13846184   4.010   5.507   5.261  0.4585  1.8032  0.7903
  144MOL   H13946185   3.949   5.476   5.100  0.8777  1.1157 -0.5811
  144MOL   H14046186   4.027   5.814   5.201 -1.2379  0.5965  0.6585
  144MOL   H14146187   3.903   6.085   5.052  0.9998  0.9902 -2.3354
  144MOL   H14246188   4.039   6.005   4.954  1.8261 -0.6803  1.0355
  144MOL   H14346189   4.047   6.027   5.133  0.8544  0.9656 -0.8943
  144MOL   H14446190   3.739   5.761   4.969  0.1798 -0.7114  0.4977
  144MOL   H14546191   3.762   5.939   4.915  0.6790 -0.9543 -0.9017
  144MOL   C14646192   4.099   5.707   5.029  0.3001 -0.0969  0.1748
  144MOL   C14746193   4.051   5.641   4.899 -0.2709 -0.3601 -0.7691
  144MOL   C14846194   4.208   5.623   5.102 -0.1366  0.2607  0.0093
  144MOL   C14946195   4.235   5.672   5.241 -0.4303  0.0070  0.4036
  144MOL   C15046196   4.284   5.819   5.249 -0.4114  0.0682 -0.5116
  144MOL   C15146197   4.225   5.596   5.352  0.1283  0.6697  0.6975
  144MOL   H15246198   4.151   5.800   5.005 -1.7720  1.4740  1.6111
  144MOL   H15346199   4.124   5.570   4.859  0.3822 -0.5444  0.6872
  144MOL   H15446200   4.014   5.718   4.832 -0.6538  1.2855  1.2610
  144MOL   H15546201   3.959   5.584   4.913  0.1417 -0.9971 -0.5761
  144MOL   H15646202   4.161   5.528   5.130  0.2411  0.3546  1.0009
  144MOL   H15746203   4.383   5.823   5.202  0.5137 -1.1053  1.2924
  144MOL   H15846204   4.292   5.847   5.354  3.5337 -1.5626 -0.2776
  144MOL   H15946205   4.228   5.901   5.205  0.6800  1.0783 -0.0358
  144MOL   H16046206   4.188   5.494   5.361  0.3557  0.4922 -0.2535
  144MOL   H16146207   4.253   5.644   5.444  0.4646  0.4316  0.7197
  144MOL   C16246208   4.343   5.599   5.022 -0.2415 -0.3744  0.0828
  144MOL   C16346209   4.373   5.689   4.898  0.3014 -0.1747  0.0523
  144MOL   C16446210   4.394   5.453   5.002  0.6610  0.0595 -0.4742
  144MOL   C16546211   4.299   5.382   4.908  0.8963 -0.5397 -0.5289
  144MOL   C16646212   4.350   5.376   4.770 -0.1382 -0.2087  0.0846
  144MOL   C16746213   4.188   5.314   4.951  0.5550 -0.2815 -0.3701
  144MOL   H16846214   4.422   5.644   5.082 -0.7151  3.3270 -1.8937
  144MOL   H16946215   4.477   5.666   4.876  0.2190  0.5030 -1.0910
  144MOL   H17046216   4.355   5.796   4.912 -1.9799 -0.3798 -1.1755
  144MOL   H17146217   4.312   5.657   4.814 -0.1083 -2.3493  1.1477
  144MOL   H17246218   4.485   5.464   4.943  0.7594 -2.5248 -0.8930
  144MOL   H17346219   4.430   5.303   4.758  1.6493  1.8355 -0.5565
  144MOL   H17446220   4.366   5.472   4.722 -1.3042  0.8964  1.8143
  144MOL   H17546221   4.277   5.313   4.718 -0.6654 -0.2148  0.8114
  144MOL   H17646222   4.162   5.312   5.056 -1.4596 -1.8996 -0.8725
  144MOL   H17746223   4.116   5.276   4.880 -2.3597  2.7593  0.8051
  144MOL   C17846224   4.433   5.373   5.133 -0.2774 -0.1738  0.1147
  144MOL   C17946225   4.536   5.456   5.222  0.5704 -0.3802 -0.0546
  144MOL   C18046226   4.489   5.224   5.114  0.4973 -0.0835  0.0034
  144MOL   C18146227   4.438   5.147   5.240  0.3253 -0.1269 -0.2116
  144MOL   C18246228   4.311   5.069   5.230  0.2471  0.6250  0.4752
  144MOL   C18346229   4.516   5.139   5.350 -0.3222  0.0692  0.2075
  144MOL   H18446230   4.342   5.375   5.194 -0.8444  2.3417 -0.7610
  144MOL   H18546231   4.626   5.491   5.172  1.0253 -3.0294 -1.1686
  144MOL   H18646232   4.572   5.389   5.301  2.8730 -1.5772 -2.0652
  144MOL   H18746233   4.485   5.543   5.262  0.4577 -0.0762 -0.8554
  144MOL   H18846234   4.435   5.180   5.030 -3.1534  0.7062  1.8099
  144MOL   H18946235   4.293   5.004   5.316 -0.1510  0.9415  0.6338
  144MOL   H19046236   4.314   5.008   5.139  0.1679  2.0529 -0.4934
  144MOL   H19146237   4.239   5.150   5.219  0.0807  0.0185 -3.5294
  144MOL   H19246238   4.614   5.184   5.347 -1.0744  1.6462 -1.3417
  144MOL   H19346239   4.486   5.087   5.440  0.5693  1.9362  1.6041
  144MOL   C19446240   4.643   5.207   5.086  0.0809  0.2234  0.7913
  144MOL   C19546241   4.693   5.282   4.960 -1.1301 -0.4233 -0.5995
  144MOL   C19646242   4.699   5.060   5.087  0.2377  0.5685  0.2026
  144MOL   C19746243   4.854   5.056   5.117  0.0504 -0.0602  0.6246
  144MOL   C19846244   4.889   5.046   5.269 -0.5098  0.2741 -0.0975
  144MOL   C19946245   4.959   5.080   5.030 -0.6085  0.9009 -0.2286
  144MOL   H20046246   4.681   5.263   5.172  0.1362  1.7344 -0.2092
  144MOL   H20146247   4.671   5.388   4.972  0.3876  0.0594 -1.9740
  144MOL   H20246248   4.642   5.245   4.871 -2.8727  0.1454  0.1296
  144MOL   H20346249   4.802   5.282   4.954 -1.0382 -0.4507  0.8013
  144MOL   H20446250   4.657   5.016   5.177 -3.0573  1.2953 -0.9004
  144MOL   H20546251   4.858   5.130   5.330 -0.6056 -1.4857  2.3219
  144MOL   H20646252   4.994   5.030   5.294 -0.1173  0.5905 -1.5026
  144MOL   H20746253   4.843   4.951   5.294  1.0365  0.2308  2.7354
  144MOL   H20846254   4.934   5.084   4.925  0.5003 -0.0205 -0.5333
  144MOL   H20946255   5.061   5.086   5.065 -0.3355 -1.4288 -0.5177
  144MOL   C21046256   4.669   4.965   4.960  0.1073 -0.4613  0.1952
  144MOL   C21146257   4.530   4.960   4.899  0.6159  0.3653 -0.6462
  144MOL   C21246258   4.709   4.819   4.974 -0.0933  0.2302 -0.1836
  144MOL   C21346259   4.748   4.776   4.837 -0.1464 -0.4887 -0.6585
  144MOL   C21446260   4.888   4.826   4.803  1.2585  0.6820 -0.0360
  144MOL   C21546261   4.688   4.693   4.753  0.5328  0.2645 -0.0255
  144MOL   H21646262   4.726   5.013   4.880  0.4320 -0.7964  0.2257
  144MOL   H21746263   4.514   5.056   4.849  0.6243 -0.4339 -2.1919
  144MOL   H21846264   4.442   4.939   4.960 -0.0549 -0.8821 -2.0430
  144MOL   H21946265   4.521   4.892   4.815 -0.7346 -1.8206  1.2181
  144MOL   H22046266   4.796   4.821   5.039 -1.8062  0.5146  2.1913
  144MOL   H22146267   4.958   4.827   4.887  0.4420  1.9885  0.6609
  144MOL   H22246268   4.876   4.927   4.764 -0.8427  0.9458  1.2213
  144MOL   H22346269   4.929   4.765   4.723 -0.4943 -0.2676 -0.2193
  144MOL   H22446270   4.590   4.650   4.765  0.7724  0.3948  2.9049
  144MOL   H22546271   4.742   4.652   4.669  2.4135  1.4054  0.5765
  144MOL   C22646272   4.610   4.719   5.057 -0.1353 -0.1309  0.6530
  144MOL   C22746273   4.539   4.774   5.179 -0.5390  0.2068 -0.0129
  144MOL   C22846274   4.661   4.572   5.075 -0.5403 -0.1646 -0.2868
  144MOL   C22946275   4.546   4.470   5.093 -0.0447 -0.5509  0.7276
  144MOL   C23046276   4.447   4.458   4.974 -0.3068  0.1573 -0.1914
  144MOL   C23146277   4.525   4.381   5.193 -0.1477  0.3088 -0.2995
  144MOL   H23246278   4.527   4.715   4.987  0.6331  0.5315 -0.3236
  144MOL   H23346279   4.455   4.711   5.207  0.0389 -0.4365  0.2807
  144MOL   H23446280   4.484   4.864   5.152  0.9097  0.9772 -0.4539
  144MOL   H23546281   4.598   4.803   5.266 -1.2717  2.6450 -0.2888
  144MOL   H23646282   4.695   4.547   4.975 -0.9216  1.2179 -0.7804
  144MOL   H23746283   4.386   4.369   4.976 -0.0681  0.0290  2.2079
  144MOL   H23846284   4.488   4.451   4.873  0.7302 -1.6694  0.3365
  144MOL   H23946285   4.391   4.551   4.983  0.4122  0.5614  0.1835
  144MOL   H24046286   4.581   4.392   5.284  2.2241 -1.2370 -1.5142
  144MOL   H24146287   4.452   4.301   5.194  0.4249 -0.2564 -1.5569
  144MOL   C24246288   4.790   4.543   5.158  0.9205 -0.7413 -0.5161
  144MOL   C24346289   4.813   4.637   5.280  0.2734 -0.1186 -0.0492
  144MOL   C24446290   4.917   4.510   5.064 -0.0825  0.4880  0.1441
  144MOL   C24546291   4.889   4.409   4.954 -0.4009  0.7752  0.8297
  144MOL   C24646292   4.952   4.432   4.817  0.0414  0.3509 -0.1379
  144MOL   C24746293   4.807   4.306   4.972  0.7235  0.3312  0.5968
  144MOL   H24846294   4.783   4.446   5.208 -0.3635 -0.9132 -1.0039
  144MOL   H24946295   4.883   4.597   5.354 -0.2034 -0.6252  0.1336
  144MOL   H25046296   4.726   4.654   5.344 -1.1286 -0.6822 -1.7565
  144MOL   H25146297   4.843   4.734   5.241  0.7784 -0.6161 -0.9106
  144MOL   H25246298   4.945   4.599   5.009 -1.8829 -0.4041 -2.3090
  144MOL   H25346299   4.915   4.362   4.743 -1.3267 -0.2363  1.0872
  144MOL   H25446300   5.061   4.421   4.816  0.0385  0.1863  0.7940
  144MOL   H25546301   4.928   4.535   4.791 -2.4653  0.6508  3.0575
  144MOL   H25646302   4.765   4.285   5.069 -0.6153 -0.5094 -0.1527
  144MOL   H25746303   4.786   4.235   4.893 -0.2827 -0.8458  1.8905
  144MOL   C25846304   5.040   4.453   5.149 -0.2536 -0.6199 -0.5154
  144MOL   C25946305   4.998   4.352   5.263  0.9414  0.1919 -0.1493
  144MOL   C26046306   5.136   4.565   5.201  0.1969  0.2868  0.0794
  144MOL   C26146307   5.198   4.647   5.085 -0.9349  0.1770  0.2314
  144MOL   C26246308   5.291   4.585   4.984  0.3804  0.4808 -0.0119
  144MOL   C26346309   5.174   4.778   5.075 -0.9795 -0.1614 -0.2057
  144MOL   H26446310   5.107   4.403   5.079  1.1910 -0.0887  0.4783
  144MOL   H26546311   5.084   4.294   5.297 -0.4642 -2.7581 -1.3922
  144MOL   H26646312   4.930   4.278   5.220  1.0784  0.3549 -0.6558
  144MOL   H26746313   4.954   4.402   5.349 -0.3099 -1.2250  0.0660
  144MOL   H26846314   5.069   4.636   5.251 -1.0080 -0.9904  0.2982
  144MOL   H26946315   5.260   4.488   4.945 -0.0290  0.2912  0.7685
  144MOL   H27046316   5.390   4.576   5.029 -0.1136  3.0128  1.7255
  144MOL   H27146317   5.316   4.656   4.905 -1.7265  1.0001 -0.2311
  144MOL   H27246318   5.101   4.818   5.144  0.2479  1.0239  0.4221
  144MOL   H27346319   5.212   4.835   4.991 -0.7305 -0.3885 -0.2483
  144MOL   C27446320   5.248   4.533   5.304  0.0664 -0.0121  0.2014
  144MOL   C27546321   5.342   4.413   5.277  0.1578 -0.0755  0.1100
  144MOL   C27646322   5.194   4.553   5.450 -0.3541 -0.5849  0.6920
  144MOL   C27746323   5.118   4.683   5.488 -0.4187 -0.7492 -0.0880
  144MOL   C27846324   5.013   4.663   5.601 -0.3478  0.0095 -0.0039
  144MOL   C27946325   5.143   4.805   5.442  0.2723  0.0865  0.0920
  144MOL   H28046326   5.323   4.611   5.311  1.0223 -1.1836  4.1215
  144MOL   H28146327   5.355   4.388   5.171  0.2026  1.2765 -0.2193
  144MOL   H28246328   5.300   4.326   5.327 -0.9344  0.4016  0.0401
  144MOL   H28346329   5.446   4.427   5.305  0.1414  0.3628 -0.0400
  144MOL   H28446330   5.119   4.475   5.463  2.1084 -3.1249 -0.1142
  144MOL   H28546331   5.052   4.660   5.703 -0.9762 -0.5129  0.2237
  144MOL   H28646332   4.947   4.577   5.596  2.7398 -2.4141 -1.1377
  144MOL   H28746333   4.945   4.748   5.599  0.0916  0.3652 -0.0772
  144MOL   H28846334   5.220   4.821   5.367  0.1583 -0.7863 -0.2157
  144MOL   H28946335   5.088   4.884   5.491 -0.3244  0.4557 -1.1246
  144MOL   C29046336   5.307   4.535   5.564  0.2286  0.7196 -0.2253
  144MOL   C29146337   5.438   4.611   5.530 -0.1091 -0.0115 -0.3664
  144MOL   C29246338   5.337   4.394   5.627 -0.0408  0.4473  0.0198
  144MOL   C29346339   5.203   4.310   5.659 -0.5570 -0.4872 -0.5561
  144MOL   C29446340   5.108   4.337   5.776 -0.2277 -0.3241  0.0557
  144MOL   C29546341   5.164   4.203   5.584 -0.2790 -0.2765 -0.8342
  144MOL   H29646342   5.267   4.577   5.656  0.4470  1.5816 -0.5172
  144MOL   H29746343   5.520   4.545   5.505  1.8393  2.0487  0.3935
  144MOL   H29846344   5.464   4.666   5.620 -2.7616 -0.1498  0.5379
  144MOL   H29946345   5.434   4.704   5.473  0.4978  1.5489  2.0508
  144MOL   H30046346   5.382   4.344   5.541 -0.7695 -0.0220 -0.0877
  144MOL   H30146347   5.046   4.254   5.809 -1.8221  1.1299  0.8300
  144MOL   H30246348   5.032   4.411   5.748 -0.1809 -0.5331 -0.6242
  144MOL   H30346349   5.158   4.379   5.864 -0.4803  0.5756 -0.2173
  144MOL   H30446350   5.220   4.174   5.496  1.3097  0.5118 -0.1038
  144MOL   H30546351   5.070   4.162   5.617 -0.4689  1.1698  0.4555
  144MOL   C30646352   5.454   4.375   5.733 -0.1304 -1.0140  0.2284
  144MOL   C30746353   5.499   4.227   5.729 -0.1409  0.2330 -0.2876
  144MOL   C30846354   5.436   4.431   5.874 -0.5855  0.1575 -0.0606
  144MOL   C30946355   5.568   4.477   5.937  0.0271 -0.0923 -0.4080
  144MOL   C31046356   5.619   4.614   5.893 -0.0443  0.1030  0.7903
  144MOL   C31146357   5.627   4.399   6.031 -0.2843 -0.4440 -0.2972
  144MOL   H31246358   5.538   4.432   5.693  0.0887 -1.1579  0.4831
  144MOL   H31346359   5.534   4.190   5.632 -0.3012 -1.4064  0.2707
  144MOL   H31446360   5.424   4.157   5.765  0.7303 -0.4883  0.1226
  144MOL   H31546361   5.580   4.208   5.799 -0.0824 -0.8092 -0.6404
  144MOL   H31646362   5.364   4.514   5.877 -1.5082 -0.6068 -0.6111
  144MOL   H31746363   5.541   4.660   5.833  2.2685  0.8645 -1.7222
  144MOL   H31846364   5.697   4.610   5.817 -0.2112 -0.3475  0.6392
  144MOL   H31946365   5.652   4.669   5.981  2.3769  1.2803 -0.8089
  144MOL   H32046366   5.592   4.302   6.064 -2.7616  0.2720 -0.6977
  144MOL   H32146367   5.716   4.437   6.078 -0.7161 -0.5066  0.5833
  144MOL   H32246368   5.392   4.355   5.938  0.7647 -0.1070  0.5624
  145MOL     C146369   0.766   5.450   7.180  0.2002 -0.1457  0.3575
  145MOL     C246370   0.624   5.437   7.239 -0.0235 -0.6197  0.2289
  145MOL     C346371   0.863   5.538   7.253 -0.6421  0.1584  0.0262
  145MOL     C446372   0.827   5.690   7.241  0.7373  0.5314  0.1607
  145MOL     C546373   0.741   5.750   7.348 -0.5352  0.2252  0.8291
  145MOL     C646374   0.842   5.757   7.129  0.7834  0.2919  0.0949
  145MOL     H746375   0.801   5.347   7.184 -4.0141 -1.7278 -1.0329
  145MOL     H846376   0.587   5.338   7.210  1.0759 -0.5516 -1.4276
  145MOL     H946377   0.556   5.518   7.212 -2.0678 -1.9307  1.2420
  145MOL    H1046378   0.626   5.444   7.348 -0.2248 -0.7984  0.2469
  145MOL    H1146379   0.846   5.522   7.360 -0.8312  2.4805  0.3662
  145MOL    H1246380   0.746   5.854   7.317  0.0278 -0.4349 -1.3342
  145MOL    H1346381   0.788   5.736   7.446  0.3279 -1.5124  0.1859
  145MOL    H1446382   0.638   5.715   7.352 -0.5299 -0.2296 -1.9678
  145MOL    H1546383   0.900   5.724   7.044  1.2250 -0.6629  0.7564
  145MOL    H1646384   0.798   5.853   7.104 -1.8642 -1.2232 -1.2164
  145MOL    H1746385   0.760   5.479   7.075  1.7734 -1.7816 -0.2170
  145MOL    C1846386   1.016   5.512   7.228  0.2522  0.2208  0.3638
  145MOL    C1946387   1.053   5.380   7.156  0.4132 -0.2558  0.0998
  145MOL    C2046388   1.094   5.546   7.355  0.4912  0.3725 -0.4226
  145MOL    C2146389   1.229   5.613   7.313 -0.9107  0.0536  0.0895
  145MOL    C2246390   1.227   5.764   7.284 -0.0608  1.1967 -0.2716
  145MOL    C2346391   1.340   5.546   7.279  0.0300  0.0739  0.1324
  145MOL    H2446392   1.036   5.590   7.154  0.2665 -0.5910 -0.4920
  145MOL    H2546393   1.041   5.377   7.048 -1.7802 -0.1079  0.3107
  145MOL    H2646394   0.999   5.289   7.183 -1.4778  0.7180 -0.3296
  145MOL    H2746395   1.155   5.352   7.182 -0.2537 -1.3814  1.6469
  145MOL    H2846396   1.030   5.616   7.408 -0.1383  0.5481 -1.4082
  145MOL    H2946397   1.138   5.786   7.226 -2.1814 -0.6079  2.2048
  145MOL    H3046398   1.312   5.795   7.223  0.9126 -0.3306  0.2679
  145MOL    H3146399   1.226   5.817   7.380  1.2300 -0.7533  0.8618
  145MOL    H3246400   1.350   5.439   7.285 -0.6886  0.0649  1.4723
  145MOL    H3346401   1.418   5.607   7.236 -0.7271  0.7883 -0.2577
  145MOL    C3446402   1.115   5.419   7.460 -0.6028 -0.4908 -0.5081
  145MOL    C3546403   0.978   5.351   7.491 -0.5545 -0.3278 -0.8640
  145MOL    C3646404   1.213   5.441   7.581  0.6685 -0.5196 -0.1334
  145MOL    C3746405   1.283   5.310   7.621 -0.0237  0.0713  0.5163
  145MOL    C3846406   1.403   5.264   7.541 -0.2438  0.1342  0.4994
  145MOL    C3946407   1.232   5.228   7.716 -0.1943  0.0460 -0.2442
  145MOL    H4046408   1.164   5.341   7.403  0.3827 -0.6457  0.5423
  145MOL    H4146409   0.907   5.426   7.527  0.4899  0.8189 -1.1879
  145MOL    H4246410   0.983   5.273   7.567  0.0132  0.2901 -0.2681
  145MOL    H4346411   0.941   5.312   7.396  1.2612 -0.0845 -1.6812
  145MOL    H4446412   1.298   5.504   7.553 -1.0202  1.7160 -0.4326
  145MOL    H4546413   1.459   5.183   7.587  1.6218 -1.3849 -4.1117
  145MOL    H4646414   1.476   5.346   7.534  0.6491 -0.4716  2.5103
  145MOL    H4746415   1.366   5.244   7.440  0.5739  0.3127  0.1528
  145MOL    H4846416   1.142   5.251   7.771 -0.8672 -2.9280 -0.0205
  145MOL    H4946417   1.276   5.132   7.738  1.7121  0.9543 -0.0281
  145MOL    C5046418   1.139   5.517   7.703  0.0123  0.7867  0.0333
  145MOL    C5146419   1.054   5.638   7.660  0.7148  0.9325  0.5158
  145MOL    C5246420   1.246   5.563   7.808  0.2477 -0.5582 -0.0813
  145MOL    C5346421   1.213   5.515   0.055 -0.5416 -0.0681  0.0188
  145MOL    C5446422   1.096   5.578   0.121  0.0565 -0.6641 -0.9288
  145MOL    C5546423   1.271   5.409   0.120 -0.0262  0.3851 -0.0008
  145MOL    H5646424   1.074   5.441   7.747  1.9923 -0.3420  1.0628
  145MOL    H5746425   0.956   5.622   7.614  0.9294 -0.8629  0.6456
  145MOL    H5846426   1.111   5.708   7.599 -2.0481  0.6173 -2.6123
  145MOL    H5946427   1.029   5.698   7.747  1.0092 -0.2120  1.3960
  145MOL    H6046428   1.342   5.518   7.785 -0.8980 -2.4947 -1.1818
  145MOL    H6146429   1.116   5.686   0.123  1.2767 -0.8929 -0.4276
  145MOL    H6246430   1.080   5.530   0.217  1.1638 -0.9753 -0.8928
  145MOL    H6346431   1.006   5.553   0.064  0.7581 -0.0405 -2.3214
  145MOL    H6446432   1.363   5.370   0.079  1.5000  3.5125  0.3033
  145MOL    H6546433   1.227   5.386   0.215  0.1883  1.2318  0.3029
  145MOL    C6646434   1.315   5.712   7.801  0.3059 -0.7941  0.3966
  145MOL    C6746435   1.381   5.752   7.670  0.2618 -0.1742 -0.2490
  145MOL    C6846436   1.408   5.748   0.027  0.3169  0.1963 -0.2340
  145MOL    C6946437   1.386   5.893   0.078 -0.3822  0.8577 -0.0075
  145MOL    C7046438   1.433   6.010   7.878  0.1823  0.9518 -0.1845
  145MOL    C7146439   1.332   5.919   0.197  0.4790  0.3486 -0.8557
  145MOL    H7246440   1.230   5.781   7.811  0.8059 -0.5258  3.2439
  145MOL    H7346441   1.447   5.839   7.677  2.7780 -2.0945  0.7114
  145MOL    H7446442   1.307   5.774   7.593 -1.1046 -1.8686  0.5585
  145MOL    H7546443   1.443   5.672   7.631 -0.8127 -1.9392  1.5835
  145MOL    H7646444   1.384   5.688   0.115 -0.6651  2.5958  1.1920
  145MOL    H7746445   1.419   6.103   0.041  0.9885  0.1922  1.3450
  145MOL    H7846446   1.377   6.020   7.785 -0.7565 -1.1373  0.1201
  145MOL    H7946447   1.540   6.007   7.859 -0.0551 -0.2558 -1.3669
  145MOL    H8046448   1.311   5.841   0.268  1.3612  1.3924  0.6102
  145MOL    H8146449   1.304   6.015   0.239 -1.4748  0.0763 -1.4878
  145MOL    C8246450   1.562   5.713   0.023  0.2970 -0.2221  0.1807
  145MOL    C8346451   1.591   5.573   7.864 -0.2410 -0.1023 -0.1793
  145MOL    C8446452   1.638   5.748   0.159 -0.8631 -0.0415 -0.8790
  145MOL    C8546453   1.768   5.822   0.138 -0.3939  0.0601  0.0997
  145MOL    C8646454   1.769   5.963   0.185  0.5488  0.2967  0.2801
  145MOL    C8746455   1.870   5.774   0.073 -0.4883  0.4976 -0.0295
  145MOL    H8846456   1.612   5.779   7.845 -1.0946 -0.0437 -0.6565
  145MOL    H8946457   1.561   5.550   7.762  1.3724 -1.6075 -0.3285
  145MOL    H9046458   1.529   5.509   0.036  0.7342 -0.7481  0.1327
  145MOL    H9146459   1.692   5.534   7.874 -0.5285 -1.4129 -2.1735
  145MOL    H9246460   1.591   5.836   0.202  2.3174  1.3264 -0.0049
  145MOL    H9346461   1.854   6.022   0.150  0.8467 -0.3023  0.0059
  145MOL    H9446462   1.771   5.971   0.294  0.7633 -2.1863  0.4734
  145MOL    H9546463   1.684   6.019   0.146  0.7186 -0.8607 -1.8009
  145MOL    H9646464   1.877   5.673   0.034  0.1788  0.3282  0.5315
  145MOL    H9746465   1.957   5.831   0.046 -0.5228  1.1830  1.2858
  145MOL    C9846466   1.627   5.646   0.288  0.2950  0.0384  0.2593
  145MOL    C9946467   1.606   5.719   0.421  0.0134  0.0941  0.7839
  145MOL   C10046468   1.721   5.522   0.293  0.8624 -0.6402  0.3809
  145MOL   C10146469   1.637   5.390   0.327  0.0783 -0.6408  0.1298
  145MOL   C10246470   1.547   5.399   0.453  0.7662  0.1411 -0.4409
  145MOL   C10346471   1.628   5.286   0.246 -0.0864  0.3073 -0.7868
  145MOL   H10446472   1.523   5.614   0.276 -0.5147  2.4438  0.6687
  145MOL   H10546473   1.525   5.792   0.416  0.3412  0.6594  3.1051
  145MOL   H10646474   1.690   5.787   0.440  0.5750  0.2341 -2.0901
  145MOL   H10746475   1.574   5.656   0.504 -2.3621 -0.8140 -0.8059
  145MOL   H10846476   1.766   5.518   0.194  0.3059  0.0659  0.1009
  145MOL   H10946477   1.474   5.478   0.436 -0.7651 -0.9828  0.7556
  145MOL   H11046478   1.607   5.412   0.543 -1.0172 -0.7279  0.9192
  145MOL   H11146479   1.487   5.308   0.464 -1.4355  1.7103  0.9140
  145MOL   H11246480   1.676   5.280   0.149 -2.8182  2.2169 -2.3281
  145MOL   H11346481   1.563   5.204   0.275 -0.6342 -0.3510 -3.6993
  145MOL   C11446482   1.846   5.534   0.390  0.4074 -0.1893  0.1259
  145MOL   C11546483   1.940   5.637   0.338  0.4314 -0.3795  0.3189
  145MOL   C11646484   1.918   5.393   0.427  0.7076 -0.8216 -0.0166
  145MOL   C11746485   1.970   5.402   0.572  0.2447  0.7130 -0.0726
  145MOL   C11846486   2.089   5.484   0.595  0.2090  0.1620  0.1964
  145MOL   C11946487   1.914   5.339   0.677 -0.5990  0.2472  0.7627
  145MOL   H12046488   1.803   5.566   0.485 -1.8033 -3.6021  0.3475
  145MOL   H12146489   2.008   5.658   0.421 -1.2446  0.2861  1.5705
  145MOL   H12246490   1.888   5.733   0.343  0.1997 -0.4667 -0.4325
  145MOL   H12346491   1.986   5.612   0.243 -0.6789  0.5632 -0.4873
  145MOL   H12446492   1.836   5.321   0.430 -0.6331  0.5359 -2.5464
  145MOL   H12546493   2.153   5.515   0.512 -0.6334 -1.2964 -1.0267
  145MOL   H12646494   2.153   5.438   0.671  0.7285  0.0843 -0.2832
  145MOL   H12746495   2.057   5.583   0.625  1.4742  0.8114 -0.5552
  145MOL   H12846496   1.833   5.269   0.665 -0.8470  0.3711  1.7474
  145MOL   H12946497   1.953   5.355   0.776 -0.7018 -3.6542  1.5073
  145MOL   C13046498   2.016   5.336   0.321  0.1157  0.1353  0.4264
  145MOL   C13146499   1.958   5.286   0.190 -0.5182  0.4707 -0.9031
  145MOL   C13246500   2.123   5.233   0.380  0.0467 -0.3656  0.1359
  145MOL   C13346501   2.260   5.249   0.315 -0.1156 -0.6843  0.0632
  145MOL   C13446502   2.299   5.193   0.179 -0.1521  0.2843 -0.0658
  145MOL   C13546503   2.348   5.333   0.381  0.0667 -0.1730  0.2636
  145MOL   H13646504   2.074   5.426   0.300 -1.6451  1.2057  0.0414
  145MOL   H13746505   2.037   5.260   0.120  0.9570  0.5481  0.7049
  145MOL   H13846506   1.909   5.367   0.136 -1.2452  0.8933  0.3607
  145MOL   H13946507   1.896   5.197   0.198 -0.0786  0.2533  0.1632
  145MOL   H14046508   2.136   5.258   0.486 -0.1430 -2.2411  0.6248
  145MOL   H14146509   2.234   5.242   0.106  0.7790  2.9394  0.8352
  145MOL   H14246510   2.277   5.087   0.169  2.8765 -0.3202 -0.7509
  145MOL   H14346511   2.404   5.200   0.153 -0.0961  0.6797  0.2593
  145MOL   H14446512   2.326   5.396   0.466  0.5563 -1.5367  1.4064
  145MOL   H14546513   2.441   5.339   0.327  0.0467  1.8863  0.3930
  145MOL   C14646514   2.075   5.080   0.383  0.7191 -0.4976  0.0649
  145MOL   C14746515   1.948   5.061   0.464  1.5116  0.2533 -0.2105
  145MOL   C14846516   2.183   4.972   0.436  0.0251  0.3857 -0.3435
  145MOL   C14946517   2.153   4.826   0.386  0.3868 -0.3182  0.0514
  145MOL   C15046518   2.202   4.772   0.254  1.3650  0.3275  0.5505
  145MOL   C15146519   2.071   4.741   0.455 -0.1957  0.1312  0.3695
  145MOL   H15246520   2.058   5.048   0.280  0.9687  1.2282 -0.5341
  145MOL   H15346521   1.894   4.967   0.466  0.5931  0.7918  0.7426
  145MOL   H15446522   1.859   5.121   0.443 -0.7457 -2.7756  0.4528
  145MOL   H15546523   1.972   5.078   0.569  0.1079 -0.0608  0.1768
  145MOL   H15646524   2.273   4.994   0.378 -0.5324  2.3709 -0.5007
  145MOL   H15746525   2.297   4.823   0.239  0.0639  2.6000 -0.3322
  145MOL   H15846526   2.129   4.788   0.174  0.5799  0.6995  1.3342
  145MOL   H15946527   2.214   4.664   0.268  1.9337  0.2399 -0.5787
  145MOL   H16046528   2.024   4.771   0.547 -2.0870  1.5174 -1.0049
  145MOL   H16146529   2.038   4.646   0.414 -0.9550 -0.0278  1.3298
  145MOL   C16246530   2.235   4.969   0.586  0.0928 -0.2478  0.4774
  145MOL   C16346531   2.260   5.104   0.658  0.8222  0.2840 -0.0001
  145MOL   C16446532   2.359   4.878   0.621  0.0019 -0.8931  0.8731
  145MOL   C16546533   2.359   4.836   0.771 -0.0458  0.2184 -0.3257
  145MOL   C16646534   2.252   4.743   0.829 -0.5093 -0.1436 -0.4100
  145MOL   C16746535   2.445   4.891   0.859  0.3372  0.0184  0.5790
  145MOL   H16846536   2.156   4.915   0.639  0.4497 -0.3398  0.9246
  145MOL   H16946537   2.302   5.088   0.757 -0.2981  2.3392  0.8419
  145MOL   H17046538   2.162   5.149   0.674  1.7072  2.6554 -1.0066
  145MOL   H17146539   2.321   5.175   0.601 -0.5550 -0.6420 -2.7318
  145MOL   H17246540   2.339   4.782   0.574  2.1973 -0.5481 -0.8929
  145MOL   H17346541   2.238   4.747   0.937  0.3544 -1.1786 -0.2481
  145MOL   H17446542   2.287   4.641   0.813  0.4655  0.3678 -1.6695
  145MOL   H17546543   2.149   4.753   0.795 -1.3350 -1.9748  1.4682
  145MOL   H17646544   2.517   4.968   0.837 -1.1609  1.4773  0.6704
  145MOL   H17746545   2.448   4.865   0.964  0.7345 -1.5541  0.1868
  145MOL   C17846546   2.504   4.917   0.576 -0.8176 -0.2710  0.6819
  145MOL   C17946547   2.514   4.982   0.435 -0.0839 -0.2171  0.3423
  145MOL   C18046548   2.619   4.806   0.592 -0.1609 -0.1377 -0.5780
  145MOL   C18146549   2.747   4.887   0.626  0.4732  0.3036  0.3879
  145MOL   C18246550   2.760   4.910   0.781 -0.7980 -0.4640 -0.0042
  145MOL   C18346551   2.836   4.945   0.540  0.0660 -0.4723 -0.1238
  145MOL   H18446552   2.534   5.000   0.641  0.2740  1.9393 -2.4773
  145MOL   H18546553   2.450   5.070   0.434 -1.8459 -1.4392 -1.4741
  145MOL   H18646554   2.477   4.923   0.350 -0.6027 -0.8862  1.0215
  145MOL   H18746555   2.611   5.014   0.398 -1.1261  1.9492 -0.5887
  145MOL   H18846556   2.589   4.755   0.683  1.4601  0.0192  0.0535
  145MOL   H18946557   2.865   4.907   0.810 -0.6309  2.0732 -0.1989
  145MOL   H19046558   2.709   4.840   0.846 -1.5426  1.7266  1.8562
  145MOL   H19146559   2.723   5.009   0.807  1.9344  0.5338  0.2559
  145MOL   H19246560   2.835   4.949   0.433 -3.9781 -1.6846 -0.2235
  145MOL   H19346561   2.923   4.995   0.580 -0.2627 -0.4460  0.5702
  145MOL   C19446562   2.634   4.705   0.469  0.8774  0.6565 -0.4658
  145MOL   C19546563   2.502   4.631   0.443  0.1479 -0.0018  0.1265
  145MOL   C19646564   2.758   4.601   0.487  0.5115  0.1589 -0.5826
  145MOL   C19746565   2.827   4.575   0.352 -0.2758  0.7628  0.5397
  145MOL   C19846566   2.928   4.672   0.292  0.3902 -0.5318 -0.2762
  145MOL   C19946567   2.780   4.471   0.273 -0.0693 -0.1844  0.1612
  145MOL   H20046568   2.658   4.763   0.380 -3.5295  3.8659  0.3033
  145MOL   H20146569   2.511   4.555   0.365  2.1826 -0.3188  0.6491
  145MOL   H20246570   2.423   4.690   0.397  0.0744 -0.3389 -0.1785
  145MOL   H20346571   2.449   4.580   0.523 -0.2256  1.8907  1.1165
  145MOL   H20446572   2.836   4.658   0.536 -3.4663  4.3081  1.3001
  145MOL   H20546573   2.960   4.631   0.196 -1.0579  2.4267 -2.1045
  145MOL   H20646574   3.016   4.690   0.353 -0.3131  0.5962  0.4190
  145MOL   H20746575   2.888   4.771   0.272 -0.6281 -1.0018 -0.6325
  145MOL   H20846576   2.692   4.412   0.293 -1.0164  0.5926 -1.5880
  145MOL   H20946577   2.832   4.450   0.181  1.9205 -1.1743  1.4741
  145MOL   C21046578   2.742   4.473   0.575 -0.5829  0.0155  0.4421
  145MOL   C21146579   2.678   4.505   0.713 -0.0871 -0.2065 -0.2529
  145MOL   C21246580   2.865   4.370   0.583  0.2149 -0.0661 -0.1455
  145MOL   C21346581   2.815   4.223   0.574  0.0729  0.0417  0.0362
  145MOL   C21446582   2.782   4.173   0.437 -0.2322 -0.5621 -0.4232
  145MOL   C21546583   2.794   4.143   0.683  0.1220 -0.5096  0.2295
  145MOL   H21646584   2.671   4.415   0.515 -0.0075  0.3461 -0.5675
  145MOL   H21746585   2.730   4.588   0.760  3.5115 -2.4865  0.0390
  145MOL   H21846586   2.684   4.421   0.782 -0.5088 -0.2784 -0.3068
  145MOL   H21946587   2.575   4.540   0.707  0.3994  1.0656 -1.3738
  145MOL   H22046588   2.922   4.371   0.490 -0.1282  1.5561 -0.3452
  145MOL   H22146589   2.770   4.065   0.431 -3.4924 -0.3209  1.0142
  145MOL   H22246590   2.873   4.176   0.376 -0.6562 -2.0946 -1.1579
  145MOL   H22346591   2.696   4.225   0.395  0.1548  0.6778  0.2630
  145MOL   H22446592   2.821   4.171   0.783 -0.1998  1.3429 -0.1773
  145MOL   H22546593   2.749   4.046   0.671 -0.7056 -0.2944  1.5463
  145MOL   C22646594   2.976   4.396   0.688  0.1281  0.4567  0.5441
  145MOL   C22746595   3.016   4.544   0.714  0.2044  0.4215  0.0036
  145MOL   C22846596   3.093   4.303   0.685  0.1512 -0.2456  0.2242
  145MOL   C22946597   3.149   4.266   0.824  0.2652  0.0133 -0.1760
  145MOL   C23046598   3.086   4.154   0.903  0.2406  0.0923  0.0404
  145MOL   C23146599   3.241   4.344   0.885 -0.4953  0.2065 -0.0068
  145MOL   H23246600   2.921   4.365   0.777  2.4751 -1.4271  1.3873
  145MOL   H23346601   2.940   4.615   0.745  0.1709  0.0760  0.7316
  145MOL   H23446602   3.063   4.569   0.619  0.2489 -1.5283 -0.5166
  145MOL   H23546603   3.094   4.553   0.790  0.1633 -2.0104  0.3760
  145MOL   H23646604   3.048   4.214   0.640 -1.3614  1.5075 -1.8787
  145MOL   H23746605   3.070   4.069   0.837 -0.1924  1.1158 -1.1721
  145MOL   H23846606   2.995   4.183   0.955 -0.5594 -0.2901 -1.1339
  145MOL   H23946607   3.157   4.121   0.980 -0.4256  0.0595  0.6456
  145MOL   H24046608   3.290   4.433   0.848 -1.5461  0.2060 -1.4538
  145MOL   H24146609   3.270   4.310   0.983  3.3438 -1.6346 -1.6530
  145MOL   C24246610   3.217   4.339   0.584 -0.3795  0.2361 -0.4746
  145MOL   C24346611   3.178   4.363   0.436  0.2414  0.2286 -0.5213
  145MOL   C24446612   3.342   4.243   0.585  0.0494 -0.2363 -0.7025
  145MOL   C24546613   3.469   4.333   0.593  1.1879  0.0487 -0.1380
  145MOL   C24646614   3.511   4.412   0.470  0.4560  0.2324  0.1598
  145MOL   C24746615   3.535   4.347   0.708  0.0453 -0.3899 -0.2580
  145MOL   H24846616   3.260   4.433   0.620 -0.3204 -0.5870  1.6294
  145MOL   H24946617   3.113   4.450   0.429 -2.2617 -1.2501  2.9884
  145MOL   H25046618   3.129   4.278   0.388 -0.2927  0.4436 -0.3551
  145MOL   H25146619   3.268   4.386   0.379  0.5565 -1.6590 -0.8388
  145MOL   H25246620   3.329   4.193   0.682  2.4832  1.1002  0.3764
  145MOL   H25346621   3.612   4.452   0.476  0.9731 -0.8192 -1.4245
  145MOL   H25446622   3.453   4.503   0.450 -0.8504 -0.3710  1.0970
  145MOL   H25546623   3.506   4.339   0.390  1.6119 -1.6574  1.7752
  145MOL   H25646624   3.492   4.298   0.794 -2.0135  0.5642 -0.6829
  145MOL   H25746625   3.627   4.403   0.711  1.0411 -2.0872  2.2793
  145MOL   C25846626   3.354   4.122   0.484  0.0250  0.2676  0.0824
  145MOL   C25946627   3.226   4.035   0.489  0.3627 -0.1585  0.0675
  145MOL   C26046628   3.490   4.032   0.511 -0.1460 -0.4083 -0.1952
  145MOL   C26146629   3.552   3.983   0.377  0.0074  0.1913  0.2307
  145MOL   C26246630   3.647   4.074   0.304 -0.3722 -0.0565 -0.8897
  145MOL   C26346631   3.503   3.870   0.318  0.0161  0.3276 -0.2455
  145MOL   H26446632   3.357   4.149   0.379  0.2312 -0.4506 -0.0960
  145MOL   H26546633   3.224   3.984   0.586 -1.7890 -1.1206 -0.4509
  145MOL   H26646634   3.227   3.955   0.415 -0.1833  1.3024 -1.5307
  145MOL   H26746635   3.131   4.086   0.471 -0.8113 -1.6187  1.8380
  145MOL   H26846636   3.564   4.103   0.547 -0.8154  1.7522 -2.8710
  145MOL   H26946637   3.594   4.151   0.247  1.0245  2.2886  0.8668
  145MOL   H27046638   3.696   4.027   0.220 -1.2155  1.3484 -2.2021
  145MOL   H27146639   3.716   4.129   0.369  0.9967 -0.2040 -2.2058
  145MOL   H27246640   3.422   3.821   0.371  2.0703 -0.9902  1.7872
  145MOL   H27346641   3.536   3.830   0.223  2.0712 -1.2958  1.0961
  145MOL   C27446642   3.483   3.921   0.620  0.5583 -0.3527 -0.3086
  145MOL   C27546643   3.433   3.967   0.760 -0.2918  0.2503 -0.3613
  145MOL   C27646644   3.611   3.832   0.630  0.1694  0.2296  0.3377
  145MOL   C27746645   3.556   3.688   0.641 -0.3870  0.1074  0.3224
  145MOL   C27846646   3.477   3.650   0.765 -0.2431  0.5775  0.2946
  145MOL   C27946647   3.572   3.602   0.540 -0.2557 -0.1604 -0.0078
  145MOL   H28046648   3.405   3.847   0.600  0.3126 -1.2474  3.4876
  145MOL   H28146649   3.325   3.972   0.771 -0.5354 -1.6262 -1.5643
  145MOL   H28246650   3.470   4.063   0.794  0.2047 -0.1948  0.3845
  145MOL   H28346651   3.457   3.903   0.845 -1.1559  2.2555  1.4258
  145MOL   H28446652   3.668   3.823   0.538  0.3006  0.6103  0.3792
  145MOL   H28546653   3.381   3.700   0.758 -0.5888 -0.1122  0.0468
  145MOL   H28646654   3.535   3.685   0.851  2.1111  1.2103 -1.5015
  145MOL   H28746655   3.466   3.542   0.773  1.8793  0.2919 -0.3955
  145MOL   H28846656   3.624   3.626   0.448 -0.5963 -1.4734 -0.5478
  145MOL   H28946657   3.525   3.505   0.542  0.2720 -0.4403 -0.9623
  145MOL   C29046658   3.723   3.877   0.743  0.1221  0.3425  0.1289
  145MOL   C29146659   3.791   4.009   0.708 -0.1393  0.2542 -0.6487
  145MOL   C29246660   3.817   3.757   0.794  0.0097  0.3018  0.7883
  145MOL   C29346661   3.817   3.775   0.946  0.2644 -0.5460 -0.6829
  145MOL   C29446662   3.906   3.882   1.009 -0.2083 -0.2241 -0.4166
  145MOL   C29546663   3.753   3.684   1.023  0.6353 -0.0140  0.3954
  145MOL   H29646664   3.658   3.899   0.828 -1.0338 -2.7587  0.1188
  145MOL   H29746665   3.715   4.087   0.706 -2.0534 -1.4522  1.7538
  145MOL   H29846666   3.851   4.007   0.617  0.6018 -1.0213 -0.1508
  145MOL   H29946667   3.864   4.040   0.783  0.9012 -0.4727 -1.3504
  145MOL   H30046668   3.773   3.657   0.789 -0.1406  0.3569  0.9990
  145MOL   H30146669   4.009   3.867   0.975 -0.1721 -0.7277 -0.0863
  145MOL   H30246670   3.903   3.878   1.118  0.1299  0.5208 -0.3748
  145MOL   H30346671   3.878   3.984   0.984 -2.7934 -0.8846 -0.3369
  145MOL   H30446672   3.692   3.602   0.989 -1.2176  0.5941  2.1277
  145MOL   H30546673   3.763   3.688   1.131  0.8884 -1.4387  0.4296
  145MOL   C30646674   3.960   3.749   0.733 -0.3056  0.4303 -0.7709
  145MOL   C30746675   3.948   3.721   0.587 -0.0819  0.7929  0.9059
  145MOL   C30846676   4.045   3.634   0.799 -0.0100 -0.3868  0.9207
  145MOL   C30946677   4.182   3.613   0.735  0.3190  0.1141 -0.3670
  145MOL   C31046678   4.287   3.709   0.778  0.2335 -0.9108 -0.1862
  145MOL   C31146679   4.210   3.506   0.656 -0.2730  0.8001 -0.3137
  145MOL   H31246680   4.010   3.843   0.753 -0.7472  0.3369  0.8529
  145MOL   H31346681   3.927   3.615   0.574  1.8616  0.4824  0.1300
  145MOL   H31446682   4.042   3.744   0.535 -0.1928  0.1504  0.4205
  145MOL   H31546683   3.868   3.779   0.541 -0.4386 -0.7696 -0.4884
  145MOL   H31646684   4.058   3.669   0.902  4.2245  0.6679  0.1082
  145MOL   H31746685   4.385   3.676   0.744  1.0458  1.2784 -0.0033
  145MOL   H31846686   4.301   3.717   0.886 -2.4879  0.6630  0.1095
  145MOL   H31946687   4.269   3.811   0.744  0.1318 -0.6129  0.7498
  145MOL   H32046688   4.145   3.422   0.636  0.3432  0.1791  0.2655
  145MOL   H32146689   4.310   3.501   0.614  1.2711 -0.7252  3.3569
  145MOL   H32246690   3.991   3.539   0.805  0.6783 -0.7653  1.1204
  146MOL     C146691   3.661   5.480   7.354 -0.3574 -0.2920  0.0787
  146MOL     C246692   3.508   5.506   7.356 -0.2335 -0.4537  0.1632
  146MOL     C346693   3.722   5.440   7.499 -0.6040 -0.5288 -0.6100
  146MOL     C446694   3.693   5.547   7.603 -0.1322  0.2378 -0.3700
  146MOL     C546695   3.773   5.677   7.608  0.4353  0.2216  0.1147
  146MOL     C646696   3.584   5.538   7.677 -0.2220  0.5001 -0.1239
  146MOL     H746697   3.689   5.405   7.280 -0.8855 -0.1028 -0.3170
  146MOL     H846698   3.452   5.415   7.376  0.2413 -0.9022 -0.5460
  146MOL     H946699   3.477   5.527   7.254 -1.1155  0.0563  0.5252
  146MOL    H1046700   3.466   5.584   7.421 -1.1953  1.0346 -2.1828
  146MOL    H1146701   3.656   5.355   7.518  1.0064 -1.4005  1.2861
  146MOL    H1246702   3.766   5.727   7.512 -0.8563  0.6403  0.4219
  146MOL    H1346703   3.876   5.660   7.642 -0.4409  1.4040  3.6703
  146MOL    H1446704   3.726   5.749   7.676  1.2092  1.7079 -0.8927
  146MOL    H1546705   3.523   5.451   7.660  1.2607 -1.0776  2.3320
  146MOL    H1646706   3.547   5.614   7.745 -0.1796  0.7444 -0.3729
  146MOL    H1746707   3.713   5.570   7.324  0.2471  0.3706  2.9547
  146MOL    C1846708   3.866   5.390   7.499  0.5759  0.2855 -0.1595
  146MOL    C1946709   3.962   5.484   7.420 -0.2466 -0.4724 -1.1548
  146MOL    C2046710   3.869   5.248   7.455 -0.1813 -0.7129  0.3778
  146MOL    C2146711   3.787   5.156   7.559  0.3322  0.1459 -0.9465
  146MOL    C2246712   3.703   5.044   7.507 -0.6436 -0.1198  0.0587
  146MOL    C2346713   3.789   5.163   7.695 -0.1977 -0.3237 -0.7287
  146MOL    H2446714   3.900   5.399   7.602  0.5038 -1.6683  0.0457
  146MOL    H2546715   3.935   5.587   7.444  0.4996 -0.0379 -2.1088
  146MOL    H2646716   3.938   5.477   7.314 -1.6564  0.2068 -0.8849
  146MOL    H2746717   4.068   5.468   7.440 -0.0334 -0.0433 -1.9158
  146MOL    H2846718   3.807   5.235   7.366  2.4888  0.7017 -1.7464
  146MOL    H2946719   3.639   5.009   7.589  1.9294  0.9648  2.6285
  146MOL    H3046720   3.766   4.962   7.475 -0.4408 -0.3944  1.1215
  146MOL    H3146721   3.626   5.069   7.434  0.8671  0.6241 -1.3161
  146MOL    H3246722   3.852   5.239   7.738 -1.4619 -0.4768  1.4417
  146MOL    H3346723   3.725   5.112   7.766 -0.9780 -0.6441 -1.6405
  146MOL    C3446724   4.010   5.190   7.432 -0.2000  0.5038  0.4563
  146MOL    C3546725   4.107   5.200   7.553  0.4895 -0.7363  0.4621
  146MOL    C3646726   4.090   5.222   7.296  0.0668  0.1568  0.3822
  146MOL    C3746727   3.995   5.234   7.167 -0.7169 -0.0384  0.2208
  146MOL    C3846728   4.037   5.335   7.060 -0.1301  0.7521  0.3501
  146MOL    C3946729   3.892   5.156   7.142  0.3208 -0.3411  0.1501
  146MOL    H4046730   3.993   5.082   7.425  3.1691 -0.1639  1.5681
  146MOL    H4146731   4.159   5.295   7.543  1.0685 -1.2419 -1.4171
  146MOL    H4246732   4.182   5.122   7.559  2.4933  1.2190  1.6502
  146MOL    H4346733   4.058   5.206   7.650  2.9575 -2.6789  1.8958
  146MOL    H4446734   4.135   5.321   7.299  0.6427 -0.1335  1.8122
  146MOL    H4546735   4.097   5.411   7.111 -0.8492  1.6405 -0.1214
  146MOL    H4646736   3.946   5.385   7.026  0.0411  0.0972 -1.0991
  146MOL    H4746737   4.084   5.295   6.970 -1.1217 -0.1006  0.2012
  146MOL    H4846738   3.851   5.084   7.211 -3.0009  1.5360  0.2730
  146MOL    H4946739   3.846   5.156   7.044 -1.4035 -1.4450  0.9297
  146MOL    C5046740   4.212   5.119   7.263 -0.3182  0.0179 -0.0937
  146MOL    C5146741   4.158   4.977   7.273 -0.5666 -0.5343  0.4340
  146MOL    C5246742   4.360   5.145   7.326  0.8404  0.0319  0.6239
  146MOL    C5346743   4.402   5.285   7.297 -0.4576 -0.2695 -0.1139
  146MOL    C5446744   4.490   5.356   7.402 -0.3388  0.0642 -0.1188
  146MOL    C5546745   4.368   5.359   7.188  0.0350 -0.5452  0.2665
  146MOL    H5646746   4.226   5.127   7.156 -1.8434 -0.9009 -0.3769
  146MOL    H5746747   4.212   4.909   7.208 -1.0958 -0.1589 -0.4164
  146MOL    H5846748   4.056   4.960   7.238 -1.1854  1.2364  1.2992
  146MOL    H5946749   4.167   4.950   7.378  0.0328  0.6545  0.6970
  146MOL    H6046750   4.349   5.152   7.434 -1.2083 -0.8724  0.5064
  146MOL    H6146751   4.589   5.310   7.410 -1.3305 -1.7416  2.4596
  146MOL    H6246752   4.441   5.349   7.499 -0.0789  0.9158  0.0806
  146MOL    H6346753   4.511   5.461   7.383  1.0524  0.1825  1.9447
  146MOL    H6446754   4.313   5.311   7.109  3.2982 -2.4493 -0.9511
  146MOL    H6546755   4.404   5.459   7.170 -3.6930  1.3787  2.8756
  146MOL    C6646756   4.475   5.055   7.284  0.3053 -0.5595 -0.1634
  146MOL    C6746757   4.491   5.044   7.128 -0.9483 -0.3995 -0.1838
  146MOL    C6846758   4.480   4.924   7.368  0.1568  0.5778 -0.2759
  146MOL    C6946759   4.488   4.950   7.520  0.1376  0.1024  0.9692
  146MOL    C7046760   4.403   4.853   7.604  0.0366  0.1292 -0.3847
  146MOL    C7146761   4.567   5.047   7.572 -0.0338  0.2330  0.5623
  146MOL    H7246762   4.565   5.103   7.321 -0.3199  1.6019 -1.3612
  146MOL    H7346763   4.490   5.143   7.081  0.1582 -0.0761  0.4701
  146MOL    H7446764   4.410   4.990   7.078 -0.5437 -1.0750 -0.1098
  146MOL    H7546765   4.581   4.998   7.090 -0.5367 -0.8614  1.3172
  146MOL    H7646766   4.381   4.880   7.360  0.3701  0.0712 -0.1461
  146MOL    H7746767   4.430   4.750   7.582 -0.1285 -0.3115  1.3970
  146MOL    H7846768   4.299   4.876   7.582 -0.2889 -1.1253 -0.1714
  146MOL    H7946769   4.427   4.856   7.710  0.1758  0.4724 -0.4265
  146MOL    H8046770   4.624   5.120   7.515 -0.2704 -0.6405 -0.8167
  146MOL    H8146771   4.555   5.056   7.679  2.7881 -0.4510  0.9764
  146MOL    C8246772   4.572   4.809   7.320  0.6726  0.6314 -0.2980
  146MOL    C8346773   4.718   4.853   7.304 -0.3987  0.9695  0.3281
  146MOL    C8446774   4.529   4.713   7.208  0.4165 -0.6289  0.2578
  146MOL    C8546775   4.377   4.696   7.194  0.0671 -0.7178 -0.1375
  146MOL    C8646776   4.303   4.624   7.305  0.4620  0.1857  0.1830
  146MOL    C8746777   4.308   4.730   7.085 -0.6970  0.1678 -0.5662
  146MOL    H8846778   4.577   4.742   7.406  2.6273 -1.0218 -1.6411
  146MOL    H8946779   4.785   4.780   7.257 -2.2010 -0.3839 -0.2192
  146MOL    H9046780   4.777   4.860   7.395  1.4186 -0.8692 -0.6445
  146MOL    H9146781   4.724   4.951   7.257 -0.6591  1.0182  0.3965
  146MOL    H9246782   4.548   4.772   7.119  2.1867 -1.4808  0.0402
  146MOL    H9346783   4.322   4.675   7.400 -0.8701  0.3556  0.3708
  146MOL    H9446784   4.337   4.521   7.313  1.9397  0.7552  1.5149
  146MOL    H9546785   4.194   4.625   7.299  0.4461  0.3381  0.4544
  146MOL    H9646786   4.361   4.759   6.996 -1.0482 -1.2940 -1.2822
  146MOL    H9746787   4.201   4.715   7.083 -0.4870 -1.4769 -0.4938
  146MOL    C9846788   4.600   4.569   7.194 -0.1860 -0.9606  0.5105
  146MOL    C9946789   4.646   4.514   7.322 -0.1475 -0.1822 -0.2144
  146MOL   C10046790   4.699   4.563   7.073 -0.8129  0.1040 -0.3978
  146MOL   C10146791   4.649   4.641   6.956  0.2289  0.2480 -0.1070
  146MOL   C10246792   4.543   4.581   6.865 -0.1502 -0.4461 -0.4201
  146MOL   C10346793   4.715   4.751   6.918  0.8973 -0.6591  0.4401
  146MOL   H10446794   4.520   4.495   7.191  0.7849 -2.0300  0.9858
  146MOL   H10546795   4.572   4.539   7.399  1.6846  0.3629  1.4186
  146MOL   H10646796   4.740   4.558   7.356  0.4649 -1.2421 -0.5086
  146MOL   H10746797   4.654   4.407   7.307 -0.9793 -0.5754  1.9527
  146MOL   H10846798   4.790   4.614   7.107 -1.1301  0.4600 -0.0752
  146MOL   H10946799   4.449   4.562   6.918 -0.1888 -0.4108 -0.4766
  146MOL   H11046800   4.580   4.486   6.827  1.3495  0.7938 -2.1162
  146MOL   H11146801   4.512   4.648   6.785 -0.5191 -1.1016 -0.8300
  146MOL   H11246802   4.790   4.794   6.983 -1.6871  2.9448  1.1835
  146MOL   H11346803   4.700   4.808   6.828 -2.6649 -0.4352  1.1017
  146MOL   C11446804   4.747   4.419   7.028  0.3104 -0.5617  0.1862
  146MOL   C11546805   4.633   4.309   7.028 -0.1348 -0.2017  0.2602
  146MOL   C11646806   4.887   4.387   7.101 -0.1739 -0.1247 -0.3651
  146MOL   C11746807   5.007   4.479   7.071 -1.0072 -0.0409 -0.0684
  146MOL   C11846808   5.111   4.495   7.178  0.5838 -0.6172  0.1900
  146MOL   C11946809   5.018   4.564   6.968  0.1003  0.3683 -0.3867
  146MOL   H12046810   4.778   4.424   6.923  2.0833 -0.3163  0.7103
  146MOL   H12146811   4.593   4.271   7.122 -0.9473 -1.7312 -0.6767
  146MOL   H12246812   4.652   4.218   6.971 -1.7280 -1.8440  2.2653
  146MOL   H12346813   4.543   4.340   6.974  0.3126 -1.2887 -1.1665
  146MOL   H12446814   4.862   4.393   7.207 -0.4224  0.1515 -0.4359
  146MOL   H12546815   5.065   4.494   7.277 -1.7208 -0.5476 -0.8623
  146MOL   H12646816   5.173   4.585   7.174 -1.4254  0.8292  0.6332
  146MOL   H12746817   5.182   4.413   7.172  1.5740  0.2129  0.3335
  146MOL   H12846818   4.947   4.566   6.887  0.8945 -1.6324 -1.1516
  146MOL   H12946819   5.097   4.637   6.963 -1.4899  2.0615 -1.7445
  146MOL   C13046820   4.928   4.235   7.084 -0.2498  0.2819  0.2356
  146MOL   C13146821   4.964   4.180   6.942  0.0622 -0.1652 -0.3793
  146MOL   C13246822   4.854   4.132   7.179 -0.2989  0.3004 -0.4223
  146MOL   C13346823   4.838   4.177   7.323  0.3131 -0.1153  0.3360
  146MOL   C13446824   4.962   4.208   7.407 -0.4689  0.6330 -0.1274
  146MOL   C13546825   4.719   4.159   7.384  0.2186 -0.7245  0.0153
  146MOL   H13646826   5.030   4.235   7.122 -0.5731  3.6678  1.2256
  146MOL   H13746827   5.037   4.100   6.930  1.7061  1.3856 -0.9687
  146MOL   H13846828   5.004   4.260   6.879  0.5052  1.6741  2.1369
  146MOL   H13946829   4.878   4.145   6.886  0.4130 -0.0664 -0.9827
  146MOL   H14046830   4.759   4.121   7.128  0.3006 -0.0335 -1.4728
  146MOL   H14146831   4.947   4.294   7.473  2.0695  1.9851 -1.2438
  146MOL   H14246832   5.056   4.229   7.356  0.1754 -1.2085  0.2674
  146MOL   H14346833   4.981   4.120   7.469 -0.4256  0.5597 -0.2450
  146MOL   H14446834   4.626   4.133   7.335 -1.2647 -0.1544  2.4043
  146MOL   H14546835   4.694   4.170   7.489 -1.4526  0.6118 -0.4820
  146MOL   C14646836   4.911   3.984   7.184 -0.2939 -0.8406 -0.5829
  146MOL   C14746837   5.060   3.969   7.183 -0.0741 -0.3088 -0.4035
  146MOL   C14846838   4.837   3.888   7.083  0.0813 -0.0147 -0.8477
  146MOL   C14946839   4.690   3.904   7.097  0.3306 -0.2439 -0.8452
  146MOL   C15046840   4.609   3.902   6.969 -0.0530 -0.1877  0.0005
  146MOL   C15146841   4.630   3.907   7.217 -0.1341  0.0963  0.1609
  146MOL   H15246842   4.888   3.937   7.279 -0.1675 -0.0617 -0.1694
  146MOL   H15346843   5.117   4.018   7.104  1.8638 -1.0467  0.4901
  146MOL   H15446844   5.090   3.865   7.175  0.5997 -0.1229 -0.4059
  146MOL   H15546845   5.109   4.005   7.275 -2.4755 -0.7656  1.0953
  146MOL   H15646846   4.854   3.931   6.985  2.1837 -1.6445 -1.2243
  146MOL   H15746847   4.502   3.913   6.984 -0.4402 -2.7916 -0.5142
  146MOL   H15846848   4.618   3.804   6.921 -3.9589 -0.4267 -0.3872
  146MOL   H15946849   4.625   3.986   6.901 -1.6675  0.9388  0.9866
  146MOL   H16046850   4.682   3.894   7.311 -0.8740  0.1573  0.5861
  146MOL   H16146851   4.522   3.914   7.221 -0.3240 -1.9163 -0.7514
  146MOL   C16246852   4.876   3.734   7.076 -0.7243 -0.6243 -0.2775
  146MOL   C16346853   4.877   3.659   7.211  0.1319 -0.0626  1.6139
  146MOL   C16446854   4.993   3.695   6.983 -0.3341  0.0989  0.2776
  146MOL   C16546855   4.978   3.758   6.843 -0.8431 -0.2426  0.1943
  146MOL   C16646856   5.108   3.825   6.800 -0.3240 -0.9010 -0.3548
  146MOL   C16746857   4.868   3.753   6.760 -0.4285  0.5160  0.5412
  146MOL   H16846858   4.788   3.688   7.032 -1.7532  1.3536 -0.3266
  146MOL   H16946859   4.863   3.552   7.194 -4.5964  0.9553 -1.7004
  146MOL   H17046860   4.801   3.697   7.279  0.9013  4.4303  0.0705
  146MOL   H17146861   4.975   3.666   7.258  1.2172 -0.6275 -0.4924
  146MOL   H17246862   5.090   3.728   7.019  0.9786  0.1006 -3.0852
  146MOL   H17346863   5.090   3.920   6.751  0.6731 -1.2866 -1.4964
  146MOL   H17446864   5.178   3.776   6.732 -0.5006 -0.5597 -0.7837
  146MOL   H17546865   5.168   3.864   6.882 -1.2519 -1.7653  0.7429
  146MOL   H17646866   4.776   3.704   6.788  0.1738 -2.1196 -1.8800
  146MOL   H17746867   4.869   3.802   6.663 -1.3565  0.4897  0.5159
  146MOL   C17846868   5.021   3.536   6.962 -0.4296  0.3779  0.6398
  146MOL   C17946869   4.888   3.457   6.935  0.3444  0.1053  0.8383
  146MOL   C18046870   5.111   3.468   7.071  0.0223  0.3692  0.8430
  146MOL   C18146871   5.235   3.552   7.121  0.0175 -0.3973  0.6139
  146MOL   C18246872   5.342   3.587   7.024  0.2944 -0.0993 -0.2959
  146MOL   C18346873   5.241   3.592   7.249  0.4339 -0.2975 -0.6860
  146MOL   H18446874   5.070   3.529   6.865 -0.8198 -2.4704  0.5998
  146MOL   H18546875   4.906   3.367   6.876  0.7511 -0.4381  1.7764
  146MOL   H18646876   4.807   3.508   6.883  1.0139  0.4224  0.0840
  146MOL   H18746877   4.830   3.418   7.018 -0.1516  1.3215  1.0651
  146MOL   H18846878   5.054   3.465   7.163 -0.7823  0.4118  0.3513
  146MOL   H18946879   5.399   3.668   7.070 -0.6153  0.3563  0.0520
  146MOL   H19046880   5.308   3.616   6.925 -1.7522 -3.4681 -0.6942
  146MOL   H19146881   5.400   3.495   7.012  2.4103  1.1087  0.3871
  146MOL   H19246882   5.166   3.564   7.322 -0.0549 -0.7651 -1.3674
  146MOL   H19346883   5.319   3.657   7.287 -0.4199  1.4106 -1.7915
  146MOL   C19446884   5.156   3.320   7.040  0.0228  0.0058  0.0428
  146MOL   C19546885   5.189   3.290   6.895  0.9448 -0.0701 -0.0185
  146MOL   C19646886   5.053   3.212   7.099  0.0685  0.2780  0.0339
  146MOL   C19746887   5.005   3.246   7.238 -0.2430 -0.2988  1.0797
  146MOL   C19846888   5.097   3.276   7.345 -0.2612  0.3160 -0.4537
  146MOL   C19946889   4.873   3.267   7.255 -0.0643 -0.2073  0.3906
  146MOL   H20046890   5.250   3.312   7.094  0.3377  0.3137 -0.4588
  146MOL   H20146891   5.239   3.378   6.855  0.2347  0.1038 -0.5344
  146MOL   H20246892   5.099   3.280   6.834 -0.6752  1.7633  2.0050
  146MOL   H20346893   5.241   3.197   6.873 -0.4453 -1.0674  0.8360
  146MOL   H20446894   4.967   3.225   7.033 -0.5060 -0.6777  0.5838
  146MOL   H20546895   5.137   3.183   7.383  0.0578  0.7407  0.2657
  146MOL   H20646896   5.037   3.331   7.418  0.6090  0.5785  0.0713
  146MOL   H20746897   5.182   3.341   7.320  0.3506 -1.6413 -3.7292
  146MOL   H20846898   4.807   3.260   7.170  2.5316  1.4350 -1.8439
  146MOL   H20946899   4.824   3.297   7.347 -0.5972  0.0517  0.0284
  146MOL   C21046900   5.096   3.060   7.091 -0.0381 -0.3262 -0.2332
  146MOL   C21146901   5.244   3.036   7.135 -0.2254  0.8243 -0.2602
  146MOL   C21246902   5.047   2.984   6.965  0.3384  0.7411 -0.3926
  146MOL   C21346903   4.890   2.995   6.950 -0.6141  0.0129 -0.6520
  146MOL   C21446904   4.829   3.006   6.809 -0.8323 -0.2752 -0.2049
  146MOL   C21546905   4.800   2.998   7.052  0.2957 -0.1964 -0.4380
  146MOL   H21646906   5.043   3.014   7.174 -0.0002  0.1356  0.0490
  146MOL   H21746907   5.317   3.066   7.060 -1.4029  1.3168 -1.2145
  146MOL   H21846908   5.265   2.929   7.138 -0.7232  0.7702  2.1408
  146MOL   H21946909   5.279   3.080   7.229  1.9445  1.0128 -1.1226
  146MOL   H22046910   5.073   3.040   6.875 -0.4644  1.4221 -0.2010
  146MOL   H22146911   4.785   3.103   6.788 -0.5649 -0.7042 -2.8984
  146MOL   H22246912   4.751   2.933   6.787  0.5386 -2.7581  2.8200
  146MOL   H22346913   4.905   2.979   6.735  1.1242  2.3270  0.7782
  146MOL   H22446914   4.830   2.977   7.154  1.9737  1.9393 -0.4758
  146MOL   H22546915   4.694   3.012   7.037  0.2227 -2.1167 -1.9099
  146MOL   C22646916   5.083   2.835   6.943 -0.7673  0.6053  0.1759
  146MOL   C22746917   5.063   2.745   7.060  0.1251  0.1448 -0.6437
  146MOL   C22846918   5.218   2.813   6.858  0.0808  0.0199 -0.2232
  146MOL   C22946919   5.230   2.901   6.726 -0.2507 -0.2034  0.5985
  146MOL   C23046920   5.364   2.976   6.705  0.7030 -0.1165  0.5865
  146MOL   C23146921   5.136   2.903   6.628 -0.8009 -0.4766 -0.0844
  146MOL   H23246922   5.015   2.799   6.865 -0.7101  0.8310  0.0227
  146MOL   H23346923   5.057   2.640   7.032  1.2500 -0.6128  1.7753
  146MOL   H23446924   4.966   2.767   7.106 -0.9561 -0.9950 -2.3026
  146MOL   H23546925   5.137   2.759   7.139 -1.4293  0.5140  0.7881
  146MOL   H23646926   5.295   2.857   6.922  1.5842 -0.4231 -1.6679
  146MOL   H23746927   5.377   3.050   6.784 -1.2977  0.1335  0.7204
  146MOL   H23846928   5.361   3.030   6.611 -0.4778 -0.9792  0.1128
  146MOL   H23946929   5.451   2.912   6.696  2.4140  2.0583  1.3264
  146MOL   H24046930   5.050   2.839   6.641 -3.2046  2.4322 -0.9709
  146MOL   H24146931   5.159   2.961   6.539 -1.2792  0.6554  0.5168
  146MOL   C24246932   5.263   2.663   6.826 -0.6582  0.5495 -0.2673
  146MOL   C24346933   5.164   2.583   6.763  0.3047  0.3225  0.0258
  146MOL   C24446934   5.329   2.589   6.947  0.3691  0.9050 -0.3461
  146MOL   C24546935   5.435   2.666   7.027 -0.5255 -0.2598 -0.8322
  146MOL   C24646936   5.554   2.733   6.951  0.4258 -0.2201 -0.1685
  146MOL   C24746937   5.418   2.675   7.161  0.1904  1.0636  0.5379
  146MOL   H24846938   5.347   2.671   6.756 -0.5741 -0.4728 -0.2962
  146MOL   H24946939   5.115   2.624   6.675 -0.6423  0.2554  0.5176
  146MOL   H25046940   5.086   2.561   6.836 -0.4789 -1.3609 -1.2844
  146MOL   H25146941   5.203   2.485   6.737 -1.5111 -0.1766 -0.8431
  146MOL   H25246942   5.250   2.564   7.018  1.1534 -0.5187  0.0507
  146MOL   H25346943   5.618   2.653   6.914 -0.5997 -0.3111 -1.7947
  146MOL   H25446944   5.612   2.806   7.008  0.8920  1.4797 -2.7587
  146MOL   H25546945   5.523   2.796   6.868  0.0553 -0.7988 -0.4697
  146MOL   H25646946   5.336   2.631   7.214 -0.5254  1.5241 -0.1720
  146MOL   H25746947   5.487   2.733   7.220 -0.1734  0.5871  1.4301
  146MOL   C25846948   5.392   2.442   6.920 -0.1151 -0.3671  0.4398
  146MOL   C25946949   5.475   2.444   6.789  0.2855  0.1923 -0.3014
  146MOL   C26046950   5.303   2.313   6.936 -0.6166  0.2427 -0.1890
  146MOL   C26146951   5.199   2.324   7.050  0.7308 -0.7934 -0.2349
  146MOL   C26246952   5.245   2.327   7.192 -0.3994  0.5734  0.3618
  146MOL   C26346953   5.067   2.332   7.029  0.2632 -0.8809  0.5294
  146MOL   H26446954   5.461   2.426   7.002  1.4513  0.3109 -0.7267
  146MOL   H26546955   5.415   2.457   6.700 -0.9184 -1.2119  0.2905
  146MOL   H26646956   5.530   2.351   6.773 -2.3555 -1.5348  0.5186
  146MOL   H26746957   5.545   2.528   6.780  0.3366  0.3942  1.8227
  146MOL   H26846958   5.246   2.308   6.843  0.9578 -1.7683 -1.1148
  146MOL   H26946959   5.351   2.305   7.201 -0.5122 -0.2577 -0.2673
  146MOL   H27046960   5.189   2.260   7.257 -2.2569 -0.9616 -2.7135
  146MOL   H27146961   5.236   2.421   7.245 -1.2538  0.4228  0.5002
  146MOL   H27246962   5.024   2.336   6.930 -2.1904  0.4274  1.6165
  146MOL   H27346963   4.996   2.339   7.110  0.3518  0.5483  0.4891
  146MOL   C27446964   5.379   2.172   6.946  0.4531 -0.6903  0.5376
  146MOL   C27546965   5.525   2.182   6.993 -0.8329 -0.1766  0.0425
  146MOL   C27646966   5.374   2.065   6.822  0.5934  0.1888 -0.2676
  146MOL   C27746967   5.235   2.073   6.755  0.1397  0.3726 -0.4011
  146MOL   C27846968   5.239   2.080   6.599 -0.8057 -0.2206 -0.1286
  146MOL   C27946969   5.117   2.070   6.824 -0.1735  0.2308 -0.0088
  146MOL   H28046970   5.327   2.121   7.028 -0.5366  2.1062  1.7138
  146MOL   H28146971   5.578   2.087   7.003  1.9222  1.1896 -0.9602
  146MOL   H28246972   5.522   2.234   7.089 -1.5623 -0.2423  0.0584
  146MOL   H28346973   5.586   2.245   6.929 -0.9197 -1.5311 -1.3900
  146MOL   H28446974   5.445   2.115   6.756  0.0196 -0.1245 -1.1334
  146MOL   H28546975   5.316   2.010   6.567  0.9462  2.0926 -1.1073
  146MOL   H28646976   5.279   2.172   6.556  1.2788  0.1422  2.4442
  146MOL   H28746977   5.143   2.066   6.549 -1.3768  1.6235  0.3974
  146MOL   H28846978   5.122   2.054   6.930 -2.7421 -0.9010 -0.0220
  146MOL   H28946979   5.022   2.085   6.776 -0.3448  1.8238  0.8256
  146MOL   C29046980   5.421   1.916   6.839  0.3539  0.1778 -0.6804
  146MOL   C29146981   5.382   1.875   6.983 -0.1668  0.2570  0.0330
  146MOL   C29246982   5.566   1.876   6.800  0.2895 -0.2393  0.1855
  146MOL   C29346983   5.618   1.939   6.668 -0.4698 -0.7301 -0.1471
  146MOL   C29446984   5.747   2.015   6.698  0.3905 -0.3175  0.7911
  146MOL   C29546985   5.561   1.941   6.548  1.0575 -0.3313 -0.5080
  146MOL   H29646986   5.354   1.873   6.765 -2.1929  1.5945  0.7236
  146MOL   H29746987   5.370   1.767   6.992  0.6655  0.2663  1.2812
  146MOL   H29846988   5.285   1.915   7.014  0.7081  3.4712 -1.1857
  146MOL   H29946989   5.466   1.895   7.049 -0.1007  0.4582 -0.1131
  146MOL   H30046990   5.624   1.902   6.888 -0.6084  0.3558  0.6060
  146MOL   H30146991   5.826   1.940   6.704  0.4538 -0.4505 -1.2584
  146MOL   H30246992   5.737   2.066   6.794  1.7292  0.5475  0.4883
  146MOL   H30346993   5.766   2.090   6.621 -2.9666 -2.6610 -2.5196
  146MOL   H30446994   5.468   1.892   6.523  1.3779 -1.3982  0.3326
  146MOL   H30546995   5.609   1.994   6.466  0.8876  0.8973  0.1898
  146MOL   C30646996   5.599   1.727   6.796 -0.2227  0.2454  0.1893
  146MOL   C30746997   5.742   1.689   6.754  0.6932 -0.4639  0.1758
  146MOL   C30846998   5.504   1.637   6.719  0.1872 -0.9864  0.0451
  146MOL   C30946999   5.503   1.488   6.738 -0.2939  0.7837 -0.8063
  146MOL   C31047000   5.473   1.444   6.880  0.2675 -0.9414  0.3040
  146MOL   C31147001   5.527   1.403   6.633  0.0645 -0.3310 -0.6034
  146MOL   H31247002   5.597   1.689   6.898 -1.0669 -1.0911 -0.3030
  146MOL   H31347003   5.769   1.710   6.651  0.7444  1.5076  0.5683
  146MOL   H31447004   5.757   1.582   6.769 -0.6800 -0.5663  0.9335
  146MOL   H31547005   5.816   1.742   6.814  1.5239 -1.8705  0.4140
  146MOL   H31647006   5.398   1.662   6.727 -0.1813 -1.8127 -2.0438
  146MOL   H31747007   5.387   1.499   6.917  1.1855  0.1405  0.8410
  146MOL   H31847008   5.555   1.465   6.949 -0.1652  0.6145  0.3476
  146MOL   H31947009   5.442   1.340   6.889 -2.5129 -0.0384  1.5690
  146MOL   H32047010   5.541   1.435   6.531  0.9725  2.0640  0.2374
  146MOL   H32147011   5.532   1.298   6.659  0.3871  0.2415  1.7959
  146MOL   H32247012   5.535   1.661   6.617  0.7696  0.4924  0.5578
  147MOL     C147013   3.672   4.227   3.409 -1.4335 -0.0820 -0.2038
  147MOL     C247014   3.732   4.287   3.537 -0.1416 -0.2069 -0.2279
  147MOL     C347015   3.541   4.148   3.435  0.2735  0.1906  0.1951
  147MOL     C447016   3.558   4.036   3.539  0.0945 -0.7217 -0.4439
  147MOL     C547017   3.430   4.020   3.628 -0.1702 -0.2076  0.0501
  147MOL     C647018   3.670   3.969   3.566 -0.0492 -0.3439 -0.1251
  147MOL     H747019   3.655   4.312   3.344  3.9229  1.6110  0.3788
  147MOL     H847020   3.668   4.362   3.582 -0.2534  0.2075 -1.0872
  147MOL     H947021   3.835   4.318   3.521  0.4465 -1.6494  0.6404
  147MOL    H1047022   3.744   4.218   3.621 -2.2747 -1.4888 -0.9314
  147MOL    H1147023   3.470   4.215   3.484  0.4652 -1.0671  2.2851
  147MOL    H1247024   3.337   4.017   3.572 -0.4124 -0.6775  0.4867
  147MOL    H1347025   3.431   4.104   3.697  0.1427 -0.1988  0.0358
  147MOL    H1447026   3.430   3.927   3.684  1.1817 -0.3809 -0.2063
  147MOL    H1547027   3.764   3.974   3.513 -0.5400  0.0528 -0.9453
  147MOL    H1647028   3.668   3.898   3.648 -1.3234  0.0461  0.1940
  147MOL    H1747029   3.743   4.160   3.360  1.6743  2.0105  1.3217
  147MOL    C1847030   3.476   4.094   3.300  0.3996  0.1900 -0.2344
  147MOL    C1947031   3.579   4.010   3.210 -0.0948  0.1970 -0.5558
  147MOL    C2047032   3.404   4.192   3.214  0.1444 -0.6109  1.1614
  147MOL    C2147033   3.317   4.290   3.292  0.4382 -0.2704 -0.6430
  147MOL    C2247034   3.188   4.247   3.358  0.8537  0.1658 -0.4610
  147MOL    C2347035   3.347   4.421   3.295  0.0946 -0.4590 -0.8899
  147MOL    H2447036   3.395   4.035   3.342 -1.6301  2.6318 -0.6133
  147MOL    H2547037   3.644   4.080   3.157 -0.6653  0.2745 -1.1663
  147MOL    H2647038   3.526   3.950   3.135  0.3897 -0.2217 -0.5680
  147MOL    H2747039   3.643   3.941   3.265  0.2705  1.2582  0.3724
  147MOL    H2847040   3.492   4.243   3.175 -0.5648  0.6018  1.1249
  147MOL    H2947041   3.147   4.330   3.416  1.1416  1.0788 -1.5263
  147MOL    H3047042   3.201   4.165   3.428  0.1767  0.9224  0.5516
  147MOL    H3147043   3.123   4.204   3.282  2.9480 -2.7019 -0.7174
  147MOL    H3247044   3.434   4.462   3.246 -1.7798  1.6925 -2.4531
  147MOL    H3347045   3.290   4.498   3.344  1.1859  1.2318 -2.2436
  147MOL    C3447046   3.333   4.144   3.082  0.2084 -0.8543 -0.2672
  147MOL    C3547047   3.250   4.012   3.099  0.8499  0.4956 -0.2392
  147MOL    C3647048   3.416   4.154   2.946  0.2682  0.2132  0.4389
  147MOL    C3747049   3.493   4.280   2.927  0.2338  0.5934 -0.9571
  147MOL    C3847050   3.431   4.416   2.910 -0.5358 -0.0872 -0.4778
  147MOL    C3947051   3.627   4.267   2.906 -0.1050  0.1087 -0.3447
  147MOL    H4047052   3.257   4.219   3.060  0.4575 -0.4254  0.3324
  147MOL    H4147053   3.188   3.991   3.012  1.0079  0.6855 -0.3977
  147MOL    H4247054   3.177   4.025   3.178  1.3917 -0.3475  0.4106
  147MOL    H4347055   3.301   3.923   3.137 -2.3066 -0.5612  1.7431
  147MOL    H4447056   3.494   4.078   2.952  1.7250  1.5873 -0.9430
  147MOL    H4547057   3.496   4.493   2.950 -1.5136  0.0955  0.8159
  147MOL    H4647058   3.346   4.427   2.979  1.0628 -2.0440  1.8876
  147MOL    H4747059   3.415   4.437   2.804 -0.2572  0.9409 -0.3153
  147MOL    H4847060   3.679   4.173   2.914 -2.0866 -0.8424  2.1667
  147MOL    H4947061   3.677   4.360   2.882 -1.5378  0.8579 -0.4837
  147MOL    C5047062   3.354   4.116   2.806 -0.4844 -0.4537  0.0776
  147MOL    C5147063   3.216   4.169   2.797  0.3853 -0.6204  0.2344
  147MOL    C5247064   3.362   3.968   2.756  0.0168  0.5735  0.2245
  147MOL    C5347065   3.494   3.889   2.778  0.1441  0.3836 -0.0179
  147MOL    C5447066   3.614   3.937   2.699 -0.1247  0.1884  0.0203
  147MOL    C5547067   3.508   3.793   2.872 -1.2886 -0.0132  0.0531
  147MOL    H5647068   3.408   4.171   2.729 -0.8221 -2.8002 -1.8711
  147MOL    H5747069   3.232   4.276   2.812 -1.6947 -0.5315  2.1019
  147MOL    H5847070   3.156   4.133   2.880  0.1132  2.2404  1.3147
  147MOL    H5947071   3.169   4.169   2.699  0.5782  0.6208  0.1394
  147MOL    H6047072   3.292   3.925   2.827  2.0299 -2.9160  0.1734
  147MOL    H6147073   3.601   4.041   2.669 -0.2805 -0.2141 -1.3474
  147MOL    H6247074   3.632   3.886   2.604  0.7873 -2.2654  1.4366
  147MOL    H6347075   3.698   3.930   2.769 -0.8181 -0.1856  0.8200
  147MOL    H6447076   3.426   3.759   2.933 -0.9619  1.2611  1.2221
  147MOL    H6547077   3.601   3.741   2.892 -0.5673  1.5646  0.9516
  147MOL    C6647078   3.298   3.947   2.610 -0.2280 -0.5213  0.0334
  147MOL    C6747079   3.337   4.052   2.500  0.0057  1.0820  0.4102
  147MOL    C6847080   3.153   3.893   2.612 -0.0700 -0.0227 -0.0673
  147MOL    C6947081   3.121   3.782   2.709  0.2462 -0.4040 -0.8472
  147MOL    C7047082   3.006   3.819   2.805  0.0281 -0.2375 -0.3186
  147MOL    C7147083   3.185   3.665   2.713 -0.4308  0.0477  0.0190
  147MOL    H7247084   3.355   3.859   2.583  0.3162 -0.0051 -0.5132
  147MOL    H7347085   3.283   4.143   2.527 -1.5060  0.3454 -0.0397
  147MOL    H7447086   3.308   4.033   2.397 -1.5114  1.8314  0.6787
  147MOL    H7547087   3.445   4.063   2.505  0.3829 -2.1702  0.8992
  147MOL    H7647088   3.092   3.978   2.645 -0.1461 -1.1866  3.0131
  147MOL    H7747089   2.913   3.821   2.747 -0.3328 -1.2063  0.2173
  147MOL    H7847090   3.045   3.912   2.846 -1.8298  1.1188 -1.5352
  147MOL    H7947091   2.987   3.741   2.879 -2.1777 -0.8490 -1.4648
  147MOL    H8047092   3.259   3.642   2.637 -1.8766  1.1801 -1.7878
  147MOL    H8147093   3.151   3.601   2.793 -0.1405  0.9728  0.8898
  147MOL    C8247094   3.093   3.859   2.472  0.7779  0.3414 -0.3470
  147MOL    C8347095   3.183   3.769   2.382 -0.4679 -0.5019  0.4719
  147MOL    C8447096   3.019   3.975   2.393 -0.2261 -0.2018 -0.0766
  147MOL    C8547097   2.893   4.006   2.467  0.0715 -0.2459  0.8450
  147MOL    C8647098   2.775   3.917   2.462  0.8386  0.1147  0.6388
  147MOL    C8747099   2.885   4.122   2.535 -0.0376  0.3038 -0.7170
  147MOL    H8847100   3.018   3.784   2.498 -0.2038  1.9091  1.4525
  147MOL    H8947101   3.126   3.730   2.298 -0.1045  0.8565 -0.4105
  147MOL    H9047102   3.213   3.673   2.424 -0.3428 -0.0989  1.3198
  147MOL    H9147103   3.274   3.813   2.344 -1.3243  1.8149  1.0359
  147MOL    H9247104   3.081   4.064   2.399  1.2386 -1.2144  0.1693
  147MOL    H9347105   2.788   3.809   2.454 -3.1823 -0.3114 -1.4534
  147MOL    H9447106   2.707   3.956   2.386  1.1029 -0.5149  0.0733
  147MOL    H9547107   2.711   3.936   2.548  0.8591  1.6743  0.3330
  147MOL    H9647108   2.959   4.201   2.537  1.2499 -0.8452 -1.1877
  147MOL    H9747109   2.799   4.132   2.599  0.2844  1.9495 -0.5377
  147MOL    C9847110   2.991   3.953   2.240 -0.3870 -0.5738 -0.2247
  147MOL    C9947111   3.119   3.949   2.149  0.1929  0.7262  0.2820
  147MOL   C10047112   2.885   4.044   2.161 -0.7245  0.2974 -0.4375
  147MOL   C10147113   2.851   3.958   2.033  0.1872  0.0852  0.5368
  147MOL   C10247114   2.746   3.848   2.058 -0.1480  0.1571 -0.2823
  147MOL   C10347115   2.901   3.987   1.916  0.2003 -0.2971  0.3075
  147MOL   H10447116   2.937   3.859   2.238 -0.9348 -0.4201  3.4657
  147MOL   H10547117   3.116   4.018   2.065 -0.4596  1.0702  0.5861
  147MOL   H10647118   3.116   3.857   2.091  2.9077  0.5764  0.3123
  147MOL   H10747119   3.217   3.963   2.195  1.5417  0.1156 -2.3372
  147MOL   H10847120   2.794   4.042   2.221 -0.2586  0.4083  0.2822
  147MOL   H10947121   2.788   3.778   2.129  2.1546  0.2741 -1.4692
  147MOL   H11047122   2.717   3.794   1.968  0.5963 -0.0289 -0.4133
  147MOL   H11147123   2.668   3.893   2.119  0.6790 -0.2250  1.0901
  147MOL   H11247124   2.979   4.057   1.890  2.0468 -1.2548  3.0047
  147MOL   H11347125   2.867   3.940   1.824  0.9388  0.6764 -0.4746
  147MOL   C11447126   2.911   4.202   2.141  0.8193 -0.2229  0.4008
  147MOL   C11547127   3.022   4.272   2.224  0.4566  0.5899 -0.2423
  147MOL   C11647128   2.774   4.287   2.152  0.7771 -0.0888 -0.1498
  147MOL   C11747129   2.654   4.218   2.075  0.6830  0.0565 -0.0662
  147MOL   C11847130   2.542   4.171   2.162 -0.1762  0.7437 -0.3778
  147MOL   C11947131   2.654   4.205   1.943 -0.3412  0.0284  1.3355
  147MOL   H12047132   2.950   4.211   2.040 -0.7770  1.5632 -0.0795
  147MOL   H12147133   3.002   4.258   2.330  0.0343  1.4210 -0.2130
  147MOL   H12247134   3.021   4.379   2.202 -0.8976  0.3737 -1.2935
  147MOL   H12347135   3.117   4.220   2.214 -0.4744 -1.6405  1.9992
  147MOL   H12447136   2.748   4.283   2.258 -1.5559 -0.2902 -0.6880
  147MOL   H12547137   2.474   4.247   2.201  0.9305  0.7681  1.5759
  147MOL   H12647138   2.582   4.125   2.252 -1.4286  0.2826 -0.0398
  147MOL   H12747139   2.481   4.104   2.101  1.6900 -0.5423 -0.8576
  147MOL   H12847140   2.732   4.236   1.875  0.9906 -3.1652  1.3476
  147MOL   H12947141   2.564   4.166   1.899 -0.0509  1.0453 -0.2006
  147MOL   C13047142   2.765   4.444   2.124 -0.2385  0.0047 -0.3696
  147MOL   C13147143   2.857   4.485   2.007 -0.3353  0.7080  0.0228
  147MOL   C13247144   2.783   4.535   2.257  0.0876 -0.1701  0.2924
  147MOL   C13347145   2.684   4.500   2.363 -0.4764 -0.2659 -0.0219
  147MOL   C13447146   2.735   4.521   2.507  0.1292 -0.1641  0.1943
  147MOL   C13547147   2.556   4.468   2.345  0.2702  0.1992  0.0706
  147MOL   H13647148   2.667   4.464   2.080 -1.5487 -1.3502  1.8263
  147MOL   H13747149   2.962   4.504   2.030 -0.8449  3.0779  0.5177
  147MOL   H13847150   2.837   4.579   1.956  1.2377  1.8697  1.4945
  147MOL   H13947151   2.850   4.412   1.926  1.7071 -0.4112  0.8249
  147MOL   H14047152   2.872   4.505   2.310  1.1708  1.2507 -0.6773
  147MOL   H14147153   2.690   4.455   2.582 -1.2930 -0.6158 -1.0194
  147MOL   H14247154   2.722   4.627   2.529  1.0404 -0.0033 -0.0439
  147MOL   H14347155   2.842   4.503   2.515  0.3624  0.2939 -1.7380
  147MOL   H14447156   2.497   4.453   2.256  1.0840  1.2017 -0.6477
  147MOL   H14547157   2.509   4.442   2.439  0.8030 -0.6869  0.0997
  147MOL   C14647158   2.770   4.688   2.224 -0.8276  0.5873 -0.3391
  147MOL   C14747159   2.655   4.724   2.128 -0.6867  0.3516 -0.3204
  147MOL   C14847160   2.913   4.756   2.194 -0.2266 -0.4300  0.0629
  147MOL   C14947161   3.021   4.704   2.294  0.3837 -0.9592 -0.2465
  147MOL   C15047162   3.154   4.658   2.233  0.0079 -0.3928 -0.2781
  147MOL   C15147163   3.008   4.699   2.428  0.8499  0.3952  0.1965
  147MOL   H15247164   2.734   4.739   2.314  0.4722 -1.1023  1.1680
  147MOL   H15347165   2.691   4.711   2.026 -1.1216 -0.7668 -0.3361
  147MOL   H15447166   2.633   4.829   2.146 -0.8899  0.2153  0.2278
  147MOL   H15547167   2.557   4.681   2.145 -0.0948 -0.5890  0.7834
  147MOL   H15647168   2.958   4.714   2.104  1.3872  1.6022 -0.1202
  147MOL   H15747169   3.129   4.581   2.160  0.7825  0.1385 -1.1203
  147MOL   H15847170   3.231   4.623   2.301  0.4468 -1.2102 -1.1759
  147MOL   H15947171   3.189   4.741   2.171  1.2550  1.0612  2.3246
  147MOL   H16047172   2.927   4.734   2.490 -0.5674 -0.7289 -0.9763
  147MOL   H16147173   3.088   4.657   2.487 -0.7159  2.4211  3.9434
  147MOL   C16247174   2.921   4.915   2.176 -0.1203  0.1705 -0.1425
  147MOL   C16347175   2.863   4.987   2.290  0.9204  0.0938 -0.6647
  147MOL   C16447176   2.869   4.969   2.033 -0.4730 -0.4335 -0.0516
  147MOL   C16547177   2.938   4.896   1.920  0.2272  0.4633  0.1179
  147MOL   C16647178   3.089   4.907   1.907 -0.5518 -0.2573 -0.9376
  147MOL   C16747179   2.870   4.830   1.821  0.1116  0.0753 -0.7183
  147MOL   H16847180   3.028   4.929   2.185 -0.0435 -1.0097  0.9508
  147MOL   H16947181   2.887   4.934   2.382  1.0339 -0.2346 -0.8843
  147MOL   H17047182   2.755   4.999   2.286  1.0313  0.8312 -2.0844
  147MOL   H17147183   2.905   5.086   2.308  1.1214  0.3216 -2.2888
  147MOL   H17247184   2.766   4.932   2.035 -0.6547  0.0876  0.2342
  147MOL   H17347185   3.108   5.015   1.908  3.2055 -0.8637 -0.3319
  147MOL   H17447186   3.124   4.859   1.816  1.3284 -2.0823  0.6723
  147MOL   H17547187   3.145   4.853   1.984 -0.6798 -2.0581 -2.0834
  147MOL   H17647188   2.763   4.824   1.812  0.2574 -1.0674 -1.8855
  147MOL   H17747189   2.923   4.791   1.735  0.3980 -0.0869 -0.4652
  147MOL   C17847190   2.864   5.121   1.999 -0.5647 -0.1149 -0.2720
  147MOL   C17947191   2.951   5.218   2.084  0.3283  0.1130  0.1593
  147MOL   C18047192   2.715   5.163   1.966 -0.0145  0.2408 -0.0466
  147MOL   C18147193   2.643   5.080   1.856  0.0690 -0.2048  0.9182
  147MOL   C18247194   2.689   5.108   1.712 -0.2795 -0.2270 -0.9251
  147MOL   C18347195   2.538   4.994   1.883 -0.3819  0.3657 -0.5802
  147MOL   H18447196   2.909   5.126   1.899 -0.7141 -3.2869 -0.5611
  147MOL   H18547197   3.047   5.169   2.100 -0.0517 -1.0998 -1.1769
  147MOL   H18647198   2.908   5.255   2.177  0.7471 -0.4185  0.5672
  147MOL   H18747199   2.956   5.308   2.021  2.1366 -1.0450 -1.4308
  147MOL   H18847200   2.661   5.138   2.057 -0.3741 -0.3424 -0.4126
  147MOL   H18947201   2.663   5.206   1.672  1.3944 -0.2138 -2.0558
  147MOL   H19047202   2.661   5.022   1.651  0.9590 -1.4471  0.1997
  147MOL   H19147203   2.798   5.100   1.715 -0.4012 -1.4532  2.4382
  147MOL   H19247204   2.509   4.977   1.985 -1.5113 -0.5440 -1.0441
  147MOL   H19347205   2.488   4.933   1.810  0.8233 -0.6005 -0.6108
  147MOL   C19447206   2.696   5.320   1.935  0.4136 -0.2423 -0.0219
  147MOL   C19547207   2.798   5.380   1.836  0.2668 -0.0299 -0.0803
  147MOL   C19647208   2.673   5.420   2.059 -0.1606  0.4116  0.1342
  147MOL   C19747209   2.592   5.354   2.172 -0.1485 -0.0688  0.7657
  147MOL   C19847210   2.648   5.375   2.305  0.0340 -0.1959  0.4828
  147MOL   C19947211   2.477   5.288   2.152 -0.4229  0.3870  0.4256
  147MOL   H20047212   2.596   5.327   1.894  0.0268  2.3448  1.2527
  147MOL   H20147213   2.871   5.439   1.891  0.0672  1.0501 -0.9587
  147MOL   H20247214   2.745   5.450   1.771  0.3205 -1.4024 -1.6103
  147MOL   H20347215   2.848   5.308   1.772 -0.6604 -1.3557  0.6526
  147MOL   H20447216   2.773   5.428   2.101 -0.1489  1.9075 -0.1606
  147MOL   H20547217   2.626   5.290   2.370  0.3607 -0.4809  0.2213
  147MOL   H20647218   2.602   5.458   2.359  0.0445 -0.1451  0.4125
  147MOL   H20747219   2.754   5.400   2.309 -0.1098  1.0311 -2.1328
  147MOL   H20847220   2.437   5.266   2.054  0.9974  0.0384 -0.0987
  147MOL   H20947221   2.422   5.261   2.241  0.2664  2.4833  1.5230
  147MOL   C21047222   2.615   5.568   2.033 -0.5264  0.5861  0.2124
  147MOL   C21147223   2.503   5.556   1.934  0.2341  0.7970  0.0473
  147MOL   C21247224   2.729   5.671   2.001 -0.1564  0.2730 -0.3519
  147MOL   C21347225   2.840   5.669   2.107  0.1844  0.6724 -0.5222
  147MOL   C21447226   2.983   5.653   2.060 -0.3544  0.0797 -0.0103
  147MOL   C21547227   2.822   5.650   2.238 -0.7827 -0.3359 -0.5516
  147MOL   H21647228   2.561   5.604   2.121 -0.9225 -0.6052  0.4680
  147MOL   H21747229   2.543   5.542   1.833  1.9354 -0.2502  0.8386
  147MOL   H21847230   2.450   5.651   1.942 -0.6080  0.4783 -1.6461
  147MOL   H21947231   2.438   5.470   1.949  0.5725  0.6170  0.4956
  147MOL   H22047232   2.773   5.641   1.906 -0.9519 -0.7039 -0.4181
  147MOL   H22147233   3.060   5.686   2.129 -1.5213  0.5397  1.0926
  147MOL   H22247234   2.995   5.695   1.961  0.7395  1.3073  0.6347
  147MOL   H22347235   3.006   5.546   2.062 -0.9969 -0.1069 -1.6771
  147MOL   H22447236   2.721   5.648   2.276 -0.7316 -1.8444 -0.4722
  147MOL   H22547237   2.902   5.629   2.307 -0.5043  0.0598 -0.7518
  147MOL   C22647238   2.693   5.823   1.971 -0.3177  0.8437 -0.0145
  147MOL   C22747239   2.588   5.872   2.075 -0.0179 -1.2607  0.1921
  147MOL   C22847240   2.643   5.843   1.821  0.3653  0.0528  0.1857
  147MOL   C22947241   2.742   5.784   1.716  0.0423 -0.1190  1.2462
  147MOL   C23047242   2.888   5.845   1.712  0.5214 -0.2392 -0.2020
  147MOL   C23147243   2.712   5.679   1.636 -0.2561 -0.0918 -0.0667
  147MOL   H23247244   2.783   5.884   1.977 -1.4460  2.5238 -0.1597
  147MOL   H23347245   2.491   5.829   2.050 -0.0530 -0.5186 -0.9619
  147MOL   H23447246   2.575   5.980   2.066 -0.2779 -1.4555 -1.9521
  147MOL   H23547247   2.622   5.845   2.175 -1.5880 -3.4831  0.1627
  147MOL   H23647248   2.556   5.778   1.819  1.2559 -1.1866  0.6707
  147MOL   H23747249   2.932   5.863   1.810  2.9139 -1.5764 -0.9815
  147MOL   H23847250   2.891   5.948   1.678 -0.9499 -0.1501 -0.0724
  147MOL   H23947251   2.954   5.780   1.654  1.1713  0.1577  0.0792
  147MOL   H24047252   2.610   5.645   1.636 -0.7042  1.2243 -1.0487
  147MOL   H24147253   2.786   5.643   1.566  0.7160  1.5948  0.0586
  147MOL   C24247254   2.601   5.982   1.778  0.2289 -0.2574 -0.2265
  147MOL   C24347255   2.699   6.091   1.833 -0.0171 -0.1510  0.2477
  147MOL   C24447256   2.452   6.015   1.798  0.4061  0.3932  0.1204
  147MOL   C24547257   2.364   5.909   1.732 -0.1167  0.3829  0.2576
  147MOL   C24647258   2.240   5.869   1.808  0.2082 -0.0735  0.1212
  147MOL   C24747259   2.389   5.856   1.611  0.2320 -0.5164  0.4379
  147MOL   H24847260   2.619   5.994   1.672 -3.8206  0.7584 -0.9116
  147MOL   H24947261   2.680   6.104   1.940  0.1298 -1.1301  0.3985
  147MOL   H25047262   2.677   6.190   1.794 -0.8957  0.2591  1.7591
  147MOL   H25147263   2.806   6.085   1.812 -0.0749  1.6920 -0.6756
  147MOL   H25247264   2.434   6.013   1.906 -0.3217 -0.2581 -0.0082
  147MOL   H25347265   2.261   5.815   1.900  3.9631 -1.3109 -1.3696
  147MOL   H25447266   2.180   5.803   1.746 -0.9899  0.8301  0.3085
  147MOL   H25547267   2.182   5.960   1.823  0.8666  0.3542  0.1114
  147MOL   H25647268   2.480   5.883   1.560 -1.7600  2.4639 -1.6870
  147MOL   H25747269   2.322   5.786   1.562  1.0505 -0.3816 -0.9011
  147MOL   C25847270   2.397   6.149   1.744  0.4391 -0.4601 -0.0316
  147MOL   C25947271   2.449   6.184   1.605 -0.4793  0.2452 -0.4180
  147MOL   C26047272   2.390   6.267   1.838  0.1076  0.9006 -0.7644
  147MOL   C26147273   2.323   6.243   1.980 -0.1205  0.2140  0.1748
  147MOL   C26247274   2.170   6.230   1.991 -0.7361 -0.4723  0.5133
  147MOL   C26347275   2.403   6.221   2.087  0.4314  0.2244 -0.5419
  147MOL   H26447276   2.295   6.124   1.717 -0.0249  2.5806 -1.3174
  147MOL   H26547277   2.379   6.254   1.560 -0.9857  0.1737  0.2386
  147MOL   H26647278   2.465   6.097   1.542  2.9491 -1.2441  2.3072
  147MOL   H26747279   2.544   6.236   1.613 -0.2208 -0.4431  1.2582
  147MOL   H26847280   2.495   6.290   1.860 -0.2755  2.3832 -0.4422
  147MOL   H26947281   2.137   6.146   1.931 -0.1983 -0.9134  0.8345
  147MOL   H27047282   2.130   6.328   1.964 -1.3248 -0.8413  0.0241
  147MOL   H27147283   2.136   6.216   2.094 -1.2299 -0.0947  0.4098
  147MOL   H27247284   2.510   6.217   2.072  0.5004 -0.4950  0.1417
  147MOL   H27347285   2.369   6.202   2.187  2.9119  1.9446  0.6691
  147MOL   C27447286   2.338   6.408   1.788 -0.2114 -0.2884 -0.3624
  147MOL   C27547287   2.208   6.401   1.716 -0.2662  0.0805  0.3322
  147MOL   C27647288   2.431   6.507   1.713 -0.5013 -0.1956  0.3405
  147MOL   C27747289   2.576   6.512   1.767  0.0384 -0.2806 -0.1792
  147MOL   C27847290   2.604   6.540   1.914  0.2985 -0.2865  0.2873
  147MOL   C27947291   2.677   6.484   1.682 -0.2883 -0.4615  0.0830
  147MOL   H28047292   2.317   6.458   1.882  1.9252 -2.6124  1.4229
  147MOL   H28147293   2.211   6.395   1.607 -0.0789  0.6366  0.3087
  147MOL   H28247294   2.148   6.488   1.744 -2.4868 -0.6008 -2.0380
  147MOL   H28347295   2.144   6.319   1.750 -2.8800  2.1457  0.5301
  147MOL   H28447296   2.447   6.476   1.610 -1.1223 -1.5020  0.6188
  147MOL   H28547297   2.588   6.465   1.991  1.8725 -1.9338 -0.9379
  147MOL   H28647298   2.578   6.640   1.949 -1.1932 -0.4998 -0.1731
  147MOL   H28747299   2.713   6.541   1.907  0.3818 -0.2528  1.5618
  147MOL   H28847300   2.663   6.472   1.576  0.4978 -2.5740  0.1867
  147MOL   H28947301   2.779   6.474   1.718 -0.5056  2.4776  1.6258
  147MOL   C29047302   2.377   6.653   1.695 -0.6671  0.0628 -0.8052
  147MOL   C29147303   2.303   6.711   1.813 -0.6401  0.1232 -0.9229
  147MOL   C29247304   2.293   6.682   1.557  0.4817 -0.0351 -1.0168
  147MOL   C29347305   2.377   6.653   1.429  0.0269 -0.6042 -0.0325
  147MOL   C29447306   2.300   6.572   1.326 -0.1840  0.1584 -0.0448
  147MOL   C29547307   2.508   6.685   1.418 -0.4655  0.3079 -0.4763
  147MOL   H29647308   2.473   6.705   1.690  0.2767 -1.7556 -2.2958
  147MOL   H29747309   2.355   6.684   1.905 -0.6134 -2.1064 -1.5504
  147MOL   H29847310   2.200   6.677   1.826  0.2838 -2.4661 -0.0291
  147MOL   H29947311   2.302   6.819   1.804  0.4474  0.3234  1.1022
  147MOL   H30047312   2.208   6.614   1.555  0.5383 -0.1362 -0.3253
  147MOL   H30147313   2.273   6.478   1.373 -0.2779  0.8632  1.3439
  147MOL   H30247314   2.367   6.558   1.241 -1.7010  1.9025 -1.5694
  147MOL   H30347315   2.210   6.621   1.288  1.0329  0.7588 -2.2483
  147MOL   H30447316   2.562   6.742   1.492 -1.1815 -0.1179  0.3829
  147MOL   H30547317   2.556   6.649   1.328  0.2527 -1.4419  0.5950
  147MOL   C30647318   2.206   6.811   1.544 -0.5966  0.1344 -0.0515
  147MOL   C30747319   2.095   6.814   1.437  0.2196  0.0515  0.5538
  147MOL   C30847320   2.289   6.942   1.549 -0.0043  0.1634  0.3626
  147MOL   C30947321   2.214   7.075   1.548  0.4222 -0.0371  0.2410
  147MOL   C31047322   2.107   7.096   1.651 -0.9091 -0.1110 -0.5548
  147MOL   C31147323   2.234   7.169   1.455  0.1047 -0.6944  1.0595
  147MOL   H31247324   2.147   6.814   1.635 -1.0337 -0.4657 -0.3122
  147MOL   H31347325   2.040   6.720   1.428 -1.1642  1.0660 -2.1225
  147MOL   H31447326   2.134   6.825   1.336 -2.7878 -0.4877 -0.7214
  147MOL   H31547327   2.020   6.893   1.435 -0.0919 -0.2600 -0.0792
  147MOL   H31647328   2.360   6.944   1.632 -0.5732  0.2733  0.8435
  147MOL   H31747329   2.102   7.203   1.671  2.0592  0.0025 -0.1677
  147MOL   H31847330   2.124   7.033   1.738 -2.8682 -1.1948 -0.9075
  147MOL   H31947331   2.007   7.072   1.614 -1.8908  1.8042  0.8025
  147MOL   H32047332   2.303   7.153   1.373 -0.6196  0.6314  0.1875
  147MOL   H32147333   2.179   7.261   1.460  0.7547 -0.0401 -2.4596
  147MOL   H32247334   2.349   6.944   1.457 -0.5745 -2.6504 -0.1055
  148MOL     C147335   7.624   1.475   7.653  0.1151 -0.2110  0.2438
  148MOL     C247336   7.762   1.473   7.584 -0.1447  0.2306 -0.2473
  148MOL     C347337   7.542   1.347   7.640  0.0375  0.1237  1.3508
  148MOL     C447338   7.522   1.319   7.486 -0.4122  0.2029  0.1859
  148MOL     C547339   7.425   1.406   7.408 -0.8865 -0.0534 -0.1725
  148MOL     C647340   7.592   1.226   7.420 -0.0016 -0.2116 -1.0404
  148MOL     H747341   7.654   1.513   7.751  1.6619  1.3601 -0.7838
  148MOL     H847342   7.754   1.461   7.476  3.1224 -1.6335 -0.3344
  148MOL     H947343   7.842   1.414   7.629  0.2009 -1.2128 -2.6424
  148MOL    H1047344   7.814   1.569   7.590  0.2904 -0.0496  0.6010
  148MOL    H1147345   7.613   1.273   7.677  4.1401  2.7951 -0.8133
  148MOL    H1247346   7.325   1.395   7.451 -1.4614  1.3562 -1.0821
  148MOL    H1347347   7.415   1.382   7.303 -0.1215 -2.6493  0.3328
  148MOL    H1447348   7.456   1.511   7.414 -0.1464 -0.3270  0.8857
  148MOL    H1547349   7.662   1.169   7.480 -0.2829 -0.4959 -0.9783
  148MOL    H1647350   7.585   1.194   7.317 -0.7245 -0.4319 -0.9269
  148MOL    H1747351   7.563   1.554   7.610 -0.6494 -1.2022 -0.5025
  148MOL    C1847352   7.408   1.330   7.721 -0.4645  0.4412  0.1631
  148MOL    C1947353   7.425   1.376   7.871 -0.0124  0.0981 -0.2530
  148MOL    C2047354   7.349   1.185   7.704  0.2001  0.9789 -0.7142
  148MOL    C2147355   7.194   1.181   7.699  0.6951  0.4220  0.2762
  148MOL    C2247356   7.109   1.185   7.830 -0.4152 -0.0728 -0.3646
  148MOL    C2347357   7.137   1.166   7.576  0.6628  0.2459 -0.0078
  148MOL    H2447358   7.337   1.399   7.675 -0.1651  1.0950  0.6853
  148MOL    H2547359   7.503   1.322   0.033  2.0125  0.6987 -2.4513
  148MOL    H2647360   7.325   1.357   0.018 -0.1917  1.3963 -0.0617
  148MOL    H2747361   7.435   1.483   7.888 -1.4310 -0.0850  1.8308
  148MOL    H2847362   7.376   1.151   7.604 -0.4232  5.0014 -2.3590
  148MOL    H2947363   7.136   1.116   0.017 -1.2729 -1.2164 -1.0587
  148MOL    H3047364   7.005   1.176   7.799 -0.3439 -2.1991 -0.0361
  148MOL    H3147365   7.114   1.286   7.872 -2.9637  0.9113 -2.3468
  148MOL    H3247366   7.189   1.163   7.482  0.8841  0.6522  0.0969
  148MOL    H3347367   7.033   1.156   7.549  1.5837  0.6678 -3.9690
  148MOL    C3447368   7.405   1.069   7.799  0.8232 -0.3349  0.8315
  148MOL    C3547369   7.559   1.055   7.800 -0.1494 -0.3155 -0.3397
  148MOL    C3647370   7.339   0.924   7.798  0.2873 -0.0714 -0.3953
  148MOL    C3747371   7.317   0.859   0.043  0.4471 -0.9590 -0.1180
  148MOL    C3847372   7.436   0.843   0.139 -0.0201 -0.2085  0.0042
  148MOL    C3947373   7.189   0.838   0.081 -0.4552 -0.0061 -0.0601
  148MOL    H4047374   7.382   1.114   0.004 -1.4651 -0.0996  0.2172
  148MOL    H4147375   7.608   1.033   7.706 -0.5713 -2.1265 -0.1600
  148MOL    H4247376   7.592   0.984   7.876 -0.8167  0.3476  0.5923
  148MOL    H4347377   7.604   1.146   7.838  2.0425 -1.4460 -0.1584
  148MOL    H4447378   7.238   0.938   7.762  0.7542  2.2062 -0.8737
  148MOL    H4547379   7.400   0.773   0.216  2.0821 -2.0004 -0.5859
  148MOL    H4647380   7.475   0.930   0.192 -2.0503 -0.0404  1.3110
  148MOL    H4747381   7.511   0.794   0.077 -0.8920 -0.1317 -1.1179
  148MOL    H4847382   7.099   0.851   0.023 -0.4665 -0.4138 -0.1336
  148MOL    H4947383   7.174   0.798   0.180 -1.0597  0.0549 -0.1242
  148MOL    C5047384   7.403   0.823   7.696 -0.2894  0.3754  0.0118
  148MOL    C5147385   7.397   0.874   7.547  0.2079  0.1082 -0.0316
  148MOL    C5247386   7.367   0.664   7.709  0.0256 -0.0750 -0.2840
  148MOL    C5347387   7.495   0.584   7.703  0.2168 -0.2351  0.0111
  148MOL    C5447388   7.566   0.561   7.565 -0.2433  0.0555  0.1895
  148MOL    C5547389   7.531   0.515   7.811 -0.3972  0.2202 -0.2239
  148MOL    H5647390   7.511   0.823   7.708 -0.3118  0.0747  0.2296
  148MOL    H5747391   7.463   0.803   7.498 -0.3589 -1.8065  1.9214
  148MOL    H5847392   7.448   0.965   7.515 -1.1817  1.3296  1.1674
  148MOL    H5947393   7.302   0.878   7.493 -0.1366  0.2936  0.5793
  148MOL    H6047394   7.332   0.642   7.810  0.6920  0.1722  0.0037
  148MOL    H6147395   7.517   0.502   7.486  0.1279  1.9051 -1.4626
  148MOL    H6247396   7.656   0.503   7.582 -0.1668 -0.4035 -1.6601
  148MOL    H6347397   7.588   0.656   7.517 -1.3386  0.0897 -0.2813
  148MOL    H6447398   7.477   0.521   0.012 -0.4337  0.2279 -0.2452
  148MOL    H6547399   7.608   0.441   7.800 -0.2723 -0.1645  2.8776
  148MOL    C6647400   7.248   0.612   7.616  0.7152 -0.6196  0.2239
  148MOL    C6747401   7.116   0.694   7.634 -0.1377  0.2878 -0.1865
  148MOL    C6847402   7.221   0.457   7.629 -0.5841 -0.0862  0.7522
  148MOL    C6947403   7.180   0.403   7.489 -0.1939 -0.0151 -0.2447
  148MOL    C7047404   7.044   0.435   7.438 -0.2368  0.0882  1.1856
  148MOL    C7147405   7.273   0.330   7.422  0.3218  0.9079  0.4383
  148MOL    H7247406   7.282   0.625   7.513 -1.3987  0.9224 -0.3277
  148MOL    H7347407   7.089   0.703   7.739  1.6846  0.5600  0.2852
  148MOL    H7447408   7.033   0.637   7.592  1.6110 -2.5973  0.1440
  148MOL    H7547409   7.132   0.792   7.590 -0.1033  1.1650  1.7393
  148MOL    H7647410   7.319   0.411   7.639 -0.5851 -0.7897 -2.1013
  148MOL    H7747411   7.028   0.537   7.406  0.9084 -0.2860 -0.6351
  148MOL    H7847412   6.965   0.422   7.512 -0.2297  0.7627  1.3126
  148MOL    H7947413   7.018   0.376   7.351  1.0276  1.7057 -0.3241
  148MOL    H8047414   7.372   0.314   7.464 -0.0003  0.2261  0.9496
  148MOL    H8147415   7.250   0.295   7.323 -1.3999 -2.0075  1.8120
  148MOL    C8247416   7.127   0.406   7.733  0.7238  0.6051 -0.4269
  148MOL    C8347417   7.182   0.446   7.876  0.3512  0.6511  0.5051
  148MOL    C8447418   7.077   0.253   7.723  0.6615  0.0272 -0.2610
  148MOL    C8547419   6.929   0.239   7.750  0.0250 -0.0026 -0.7821
  148MOL    C8647420   6.882   0.269   7.888 -0.1892  0.7780 -0.8786
  148MOL    C8747421   6.838   0.208   7.654 -0.0875  0.0291 -0.0626
  148MOL    H8847422   7.040   0.471   7.727 -1.2315 -1.9876 -0.8296
  148MOL    H8947423   7.143   0.375   0.057  2.1746  0.3117  1.1627
  148MOL    H9047424   7.157   0.549   0.011 -0.1231  0.4660  0.7878
  148MOL    H9147425   7.288   0.423   7.875  0.6756  2.1192 -0.3456
  148MOL    H9247426   7.090   0.214   7.622 -1.7048 -1.2081 -0.1207
  148MOL    H9347427   6.962   0.249   0.068  0.2189  1.0258 -1.2588
  148MOL    H9447428   6.788   0.228   0.031  1.4783 -0.2734  2.5843
  148MOL    H9547429   6.880   0.378   0.003  1.1222  0.8355 -1.1925
  148MOL    H9647430   6.869   0.176   7.556 -0.9558 -0.5150 -0.1605
  148MOL    H9747431   6.730   0.200   7.661 -0.0987 -0.2162 -0.5081
  148MOL    C9847432   7.157   0.143   7.803 -0.1429  0.3463  0.3530
  148MOL    C9947433   7.308   0.140   7.793  0.3116  0.0818 -0.0092
  148MOL   C10047434   7.106   7.886   7.783 -0.2248  0.0784 -0.3547
  148MOL   C10147435   7.087   7.813   0.028 -0.0781  0.0018  0.4215
  148MOL   C10247436   6.939   7.805   0.062 -0.2164  0.1820 -0.3085
  148MOL   C10347437   7.185   7.769   0.103  0.2306 -0.2090 -0.5147
  148MOL   H10447438   7.135   0.156   0.017  0.4278  1.0188  0.3932
  148MOL   H10547439   7.352   0.046   7.827  0.9824  0.9781  1.6553
  148MOL   H10647440   7.345   0.212   7.866  1.2638  0.0271 -0.4239
  148MOL   H10747441   7.353   0.173   7.699  1.6827  1.3490  1.0798
  148MOL   H10847442   7.001   7.884   7.754 -0.2111  0.3923 -0.4257
  148MOL   H10947443   6.888   0.008   0.044 -2.4630 -0.3958  2.5310
  148MOL   H11047444   6.932   7.782   0.168 -1.0478 -3.8393 -1.1390
  148MOL   H11147445   6.898   7.725   0.000  1.2693 -0.7227 -0.1357
  148MOL   H11247446   7.291   7.774   0.080  0.5247  1.7865  1.1045
  148MOL   H11347447   7.157   7.715   0.192  0.6024  0.8854  0.2892
  148MOL   C11447448   7.172   7.804   7.657 -0.5897 -0.0348 -0.7334
  148MOL   C11547449   7.172   7.869   7.522 -0.4957 -0.1338 -0.0402
  148MOL   C11647450   7.152   7.650   7.668  0.3397 -0.0444 -0.4727
  148MOL   C11747451   7.281   7.568   7.643  0.3368  0.2044  0.3193
  148MOL   C11847452   7.362   7.539   7.762 -0.7161  1.3785 -0.1529
  148MOL   C11947453   7.334   7.553   7.521  0.0732 -0.4834  0.1149
  148MOL   H12047454   7.281   7.811   7.666 -0.2924  0.0479 -3.9883
  148MOL   H12147455   7.237   7.812   7.456  1.2979 -1.5827  2.8929
  148MOL   H12247456   7.219   0.075   7.513 -1.1559  0.1481 -0.4149
  148MOL   H12347457   7.084   7.871   7.459  0.2117  1.2458 -1.0154
  148MOL   H12447458   7.121   7.627   7.770  1.9438  1.6629  0.4345
  148MOL   H12547459   7.380   7.627   7.823  0.1029  1.1932 -0.1262
  148MOL   H12647460   7.456   7.496   7.727 -1.5506 -1.3261  0.8057
  148MOL   H12747461   7.319   7.474   7.838  0.4937  2.1336  1.1932
  148MOL   H12847462   7.274   7.575   7.434 -1.0768 -0.1307  0.9898
  148MOL   H12947463   7.431   7.515   7.492  1.3727  1.4610  1.7534
  148MOL   C13047464   7.034   7.588   7.588  0.3110  0.0916 -0.2034
  148MOL   C13147465   6.899   7.657   7.619 -0.0397 -0.2533 -0.3726
  148MOL   C13247466   7.022   7.432   7.557  0.3231 -0.2604 -0.4752
  148MOL   C13347467   6.937   7.421   7.425 -0.3499 -0.4487  0.1418
  148MOL   C13447468   7.021   7.428   7.292 -0.7145  0.0259  0.1067
  148MOL   C13547469   6.803   7.401   7.425 -0.4260  0.0701 -0.3607
  148MOL   H13647470   7.040   7.632   7.488 -0.3226  0.4478 -0.0899
  148MOL   H13747471   6.866   7.633   7.720 -0.1955  1.7321  0.0701
  148MOL   H13847472   6.822   7.625   7.549 -0.5589 -1.3462  0.6729
  148MOL   H13947473   6.913   7.765   7.613  1.0853 -0.3745  0.0579
  148MOL   H14047474   7.121   7.389   7.540  0.6605  0.4530 -0.3476
  148MOL   H14147475   7.103   7.496   7.315 -1.4279  0.1264  2.5028
  148MOL   H14247476   6.958   7.451   7.207 -0.2113 -2.1819 -0.8928
  148MOL   H14347477   7.056   7.326   7.276  0.2093  0.2211  0.8043
  148MOL   H14447478   6.742   7.392   7.514 -1.1533 -1.0764 -0.9651
  148MOL   H14547479   6.743   7.393   7.336  0.9058  2.4685 -1.5066
  148MOL   C14647480   6.980   7.328   7.669 -0.5177 -0.1706 -0.4225
  148MOL   C14747481   7.044   7.355   7.813  0.5491 -0.2907  0.1992
  148MOL   C14847482   6.986   7.175   7.629 -0.1013 -0.1379  0.2117
  148MOL   C14947483   7.021   7.132   7.482  0.1045  0.7437 -0.4047
  148MOL   C15047484   7.166   7.133   7.435  0.0759  0.7120 -0.0552
  148MOL   C15147485   6.923   7.084   7.396 -0.4342  0.1248  0.2101
  148MOL   H15247486   6.875   7.340   7.695 -0.1516 -1.6696  1.8799
  148MOL   H15347487   7.014   7.269   7.873  0.1271  0.8945  1.7023
  148MOL   H15447488   7.006   7.444   7.862 -0.1934 -0.6212  0.2236
  148MOL   H15547489   7.153   7.350   7.815  0.6428  0.4106 -1.7091
  148MOL   H15647490   7.080   7.143   7.675 -0.7615 -0.6693  1.1947
  148MOL   H15747491   7.205   7.235   7.438  0.4186  0.5635  3.6771
  148MOL   H15847492   7.166   7.102   7.331  1.4714  1.0692 -0.1688
  148MOL   H15947493   7.215   7.060   7.499 -2.3179 -0.4753  0.4673
  148MOL   H16047494   6.819   7.068   7.421 -0.8090 -0.9208 -1.8964
  148MOL   H16147495   6.949   7.052   7.296 -0.7537  1.1037 -0.2022
  148MOL   C16247496   6.870   7.069   7.686 -1.1640 -0.6343  0.0280
  148MOL   C16347497   6.729   7.141   7.683 -0.0644  0.5321  0.9372
  148MOL   C16447498   6.903   7.000   7.823 -0.4000  0.0366 -0.5016
  148MOL   C16547499   7.044   6.925   7.822  0.2691 -0.2305  0.8708
  148MOL   C16647500   7.129   6.924   0.054 -0.2776 -0.3011 -0.0637
  148MOL   C16747501   7.087   6.862   7.707 -0.2511  1.0783  0.3515
  148MOL   H16847502   6.843   6.986   7.620  0.5350  0.5265 -2.1945
  148MOL   H16947503   6.732   7.201   7.774 -1.3176  1.5864  0.2834
  148MOL   H17047504   6.636   7.085   7.688 -1.4727  2.7792  0.4765
  148MOL   H17147505   6.732   7.196   7.589 -0.5178 -1.3652 -0.2306
  148MOL   H17247506   6.927   7.080   0.001  4.7998 -0.2408 -1.6926
  148MOL   H17347507   7.233   6.903   0.029 -0.1312  0.3274  0.0087
  148MOL   H17447508   7.086   6.858   0.130  1.8864 -1.7616 -0.0864
  148MOL   H17547509   7.123   7.024   0.098 -0.2932 -0.4200  0.2064
  148MOL   H17647510   7.020   6.857   7.622  0.4212  1.5883 -0.2148
  148MOL   H17747511   7.186   6.822   7.694  0.3232  1.8422  2.2687
  148MOL   C17847512   6.782   6.920   7.883  0.1061  0.4681  0.1718
  148MOL   C17947513   6.742   6.990   0.115  0.0603 -0.3854  0.1217
  148MOL   C18047514   6.797   6.759   7.886 -0.2797 -0.5036 -0.7712
  148MOL   C18147515   6.817   6.691   7.747 -0.0925 -0.3937 -0.2699
  148MOL   C18247516   6.918   6.568   7.752  0.2093  0.4900 -0.6526
  148MOL   C18347517   6.748   6.726   7.638 -0.4847  0.5214 -1.0527
  148MOL   H18447518   6.695   6.923   7.818 -1.1793 -0.0906  1.8294
  148MOL   H18547519   6.811   6.967   0.196  0.1421  0.1575  0.2098
  148MOL   H18647520   6.638   6.974   0.144 -0.3117 -0.8069 -1.4040
  148MOL   H18747521   6.762   7.097   0.106  1.9111 -0.9398 -3.0788
  148MOL   H18847522   6.892   6.747   0.045 -0.0702  0.6187 -0.8963
  148MOL   H18947523   6.870   6.484   7.803 -1.4703  1.6529 -0.2860
  148MOL   H19047524   7.004   6.584   7.818  0.4027 -0.3512 -0.6920
  148MOL   H19147525   6.937   6.535   7.650  1.0058 -1.8885  0.2197
  148MOL   H19247526   6.678   6.808   7.638 -0.5832  0.4461 -1.7377
  148MOL   H19347527   6.749   6.669   7.546 -1.8385 -3.7051  1.4499
  148MOL   C19447528   6.684   6.684   0.070  0.0659  0.0859 -0.8393
  148MOL   C19547529   6.547   6.740   0.028 -0.2041 -0.2996 -0.1184
  148MOL   C19647530   6.704   6.691   0.229  0.0757 -0.4902 -0.3015
  148MOL   C19747531   6.849   6.672   0.270  0.2995 -0.2053  0.5621
  148MOL   C19847532   6.898   6.753   0.390  0.4522  0.0733  0.6081
  148MOL   C19947533   6.923   6.570   0.224  0.2445 -0.5466 -0.1566
  148MOL   H20047534   6.682   6.577   0.051 -2.5676  0.1183 -0.9513
  148MOL   H20147535   6.475   6.660   0.047  0.6134 -0.8052  0.9359
  148MOL   H20247536   6.553   6.766   7.815 -1.4714  1.3311  0.1921
  148MOL   H20347537   6.517   6.830   0.081  0.8836 -0.3750  0.6355
  148MOL   H20447538   6.692   6.796   0.255 -1.7003 -1.0984  1.4755
  148MOL   H20547539   6.872   6.859   0.382 -0.7261 -0.4025 -3.1948
  148MOL   H20647540   7.006   6.740   0.400  0.4006  0.0550  1.1652
  148MOL   H20747541   6.851   6.710   0.478  0.5608 -1.8993 -0.2725
  148MOL   H20847542   6.889   6.500   0.149 -0.5139  0.7401 -1.0272
  148MOL   H20947543   7.024   6.555   0.257  0.2706  0.8920  0.4358
  148MOL   C21047544   6.601   6.628   0.327  0.3512 -0.6287 -0.2471
  148MOL   C21147545   6.603   6.479   0.309 -0.2325  0.6683 -0.0319
  148MOL   C21247546   6.451   6.686   0.350  0.2161  0.2692 -0.5600
  148MOL   C21347547   6.455   6.842   0.366  0.1224 -0.1431 -0.7382
  148MOL   C21447548   6.340   6.924   0.302 -0.3192 -0.1022 -0.5876
  148MOL   C21547549   6.550   6.909   0.439  0.0127 -0.5518 -0.4872
  148MOL   H21647550   6.642   6.636   0.427 -0.0893  1.7981 -0.2366
  148MOL   H21747551   6.706   6.447   0.318  0.0782  1.7184  0.1373
  148MOL   H21847552   6.566   6.442   0.213 -0.0616  1.1863 -0.2995
  148MOL   H21947553   6.551   6.434   0.393 -1.3225 -0.5290 -1.3168
  148MOL   H22047554   6.398   6.662   0.258  3.9222  0.2977 -2.8216
  148MOL   H22147555   6.342   6.903   0.195 -0.4051 -1.9998 -0.2338
  148MOL   H22247556   6.367   7.029   0.306  0.0839 -0.2038 -0.5870
  148MOL   H22347557   6.240   6.901   0.338 -0.0337 -0.3936  0.0334
  148MOL   H22447558   6.630   6.860   0.492 -2.1609 -1.4466  2.0628
  148MOL   H22547559   6.549   7.017   0.441  0.6910 -0.5526  2.6095
  148MOL   C22647560   6.361   6.632   0.467  0.1985  1.0045  0.3278
  148MOL   C22747561   6.444   6.617   0.596  0.3399 -0.4707  0.9538
  148MOL   C22847562   6.278   6.503   0.442 -0.0202  0.0262 -0.3495
  148MOL   C22947563   6.192   6.508   0.319  1.1580 -0.2257  0.4485
  148MOL   C23047564   6.176   6.378   0.237  0.1193  0.1956 -0.2876
  148MOL   C23147565   6.135   6.616   0.274  0.5659 -0.5839 -0.2629
  148MOL   H23247566   6.298   6.719   0.486  1.1467  2.6330 -3.4245
  148MOL   H23347567   6.511   6.531   0.590 -0.3590 -0.8703 -2.2667
  148MOL   H23447568   6.375   6.605   0.679 -0.9972  0.2174 -0.0420
  148MOL   H23547569   6.506   6.705   0.613 -0.0866  0.0516 -0.1588
  148MOL   H23647570   6.343   6.420   0.412  0.1725  0.1102 -0.1642
  148MOL   H23747571   6.131   6.302   0.301  2.2395 -0.7875  0.1032
  148MOL   H23847572   6.268   6.333   0.199 -0.1599 -0.6742  0.0434
  148MOL   H23947573   6.116   6.392   0.147 -1.8851  1.6008  1.2257
  148MOL   H24047574   6.136   6.709   0.328  1.8607 -2.0778  2.3452
  148MOL   H24147575   6.080   6.600   0.182  0.0936 -4.3923  0.5994
  148MOL   C24247576   6.183   6.459   0.563 -0.9250  0.4311  0.8745
  148MOL   C24347577   6.116   6.587   0.629 -0.0011 -0.2403  0.3705
  148MOL   C24447578   6.241   6.358   0.665 -0.2815  0.0171  0.1284
  148MOL   C24547579   6.306   6.238   0.597  0.2924  0.8081  0.3975
  148MOL   C24647580   6.451   6.208   0.623  0.2619  0.6427  0.4167
  148MOL   C24747581   6.235   6.164   0.508 -0.4309 -0.3347  0.2996
  148MOL   H24847582   6.096   6.420   0.511  0.4511  0.9916 -1.9635
  148MOL   H24947583   6.038   6.563   0.701  0.7082 -1.4454  0.7515
  148MOL   H25047584   6.082   6.643   0.542  2.1134  0.8159  0.1821
  148MOL   H25147585   6.181   6.660   0.678 -0.4870  1.8144 -1.9471
  148MOL   H25247586   6.325   6.410   0.713  0.7518 -0.6040 -0.9795
  148MOL   H25347587   6.507   6.290   0.577  2.8434 -1.8047 -0.9696
  148MOL   H25447588   6.477   6.124   0.560  0.4811  1.0356 -0.0184
  148MOL   H25547589   6.476   6.182   0.726  1.2538 -1.0085 -0.2237
  148MOL   H25647590   6.134   6.173   0.469  0.2021 -0.4209 -1.4194
  148MOL   H25747591   6.288   6.081   0.463  2.2956  1.7568 -0.4803
  148MOL   C25847592   6.144   6.305   0.779  0.2320  0.2017  0.0364
  148MOL   C25947593   5.992   6.290   0.735  0.1940  0.1273  0.0331
  148MOL   C26047594   6.163   6.373   0.923 -0.5792 -0.0141 -0.2563
  148MOL   C26147595   6.310   6.387   0.968 -0.6385 -0.2067 -0.0673
  148MOL   C26247596   6.352   6.533   0.993  0.4100 -0.0280 -0.2768
  148MOL   C26347597   6.403   6.288   0.976  0.2308 -0.7803 -0.7535
  148MOL   H26447598   6.173   6.202   0.799 -1.1850 -0.2749 -0.2859
  148MOL   H26547599   5.937   6.238   0.813  1.0355  0.8427  1.1308
  148MOL   H26647600   5.995   6.233   0.643  0.3102  0.5775 -0.2417
  148MOL   H26747601   5.946   6.382   0.701 -0.3206  0.1801  0.8560
  148MOL   H26847602   6.127   6.474   0.902  2.3079  0.9580 -0.7504
  148MOL   H26947603   6.364   6.589   0.900 -1.1112  0.0485 -0.4425
  148MOL   H27047604   6.444   6.536   1.051  0.6581 -5.2374 -0.1753
  148MOL   H27147605   6.276   6.588   1.049  1.9588  0.6381  1.2322
  148MOL   H27247606   6.385   6.186   0.944 -1.0318 -1.1952  1.1784
  148MOL   H27347607   6.501   6.322   1.006 -1.0794  1.8517  0.7146
  148MOL   C27447608   6.078   6.325   1.044 -0.6208  0.8144 -0.5215
  148MOL   C27547609   6.088   6.172   1.051 -0.4208  0.6071 -0.4764
  148MOL   C27647610   5.935   6.392   1.066  0.3397  0.2691 -0.2549
  148MOL   C27747611   5.922   6.546   1.047 -0.3770 -0.3497 -0.6664
  148MOL   C27847612   5.998   6.637   1.144  0.1741 -0.4428  0.5008
  148MOL   C27947613   5.842   6.596   0.952  0.1302  0.2108 -0.1473
  148MOL   H28047614   6.135   6.372   1.124 -1.0329 -0.2217  0.3937
  148MOL   H28147615   6.063   6.121   1.144  0.0702  1.2380 -0.0007
  148MOL   H28247616   6.192   6.144   1.037  0.0145  1.7857  0.3153
  148MOL   H28347617   6.031   6.124   0.971 -0.5720 -3.4287  1.8999
  148MOL   H28447618   5.873   6.350   0.987 -0.8684  0.2704  0.6807
  148MOL   H28547619   6.003   6.736   1.100 -0.1594 -0.4808  0.3703
  148MOL   H28647620   6.098   6.605   1.173  0.0795 -0.1290  1.1743
  148MOL   H28747621   5.948   6.648   1.240  0.2973 -0.5691  0.5787
  148MOL   H28847622   5.794   6.519   0.892 -0.6113  1.7345 -1.5537
  148MOL   H28947623   5.826   6.701   0.935  0.7897  0.8814  3.0887
  148MOL   C29047624   5.852   6.357   1.195 -0.3154 -0.0639 -0.9578
  148MOL   C29147625   5.954   6.353   1.312  0.9952  0.3856 -0.2853
  148MOL   C29247626   5.773   6.224   1.190  0.5422  0.6187  0.0707
  148MOL   C29347627   5.678   6.223   1.069 -0.1641  0.3861 -0.0948
  148MOL   C29447628   5.668   6.086   0.998  0.2038  0.8539 -0.2836
  148MOL   C29547629   5.607   6.331   1.017  0.1754 -0.5757  0.1261
  148MOL   H29647630   5.777   6.431   1.219  2.8873  2.4779  1.7400
  148MOL   H29747631   5.902   6.375   1.405  0.5955  0.9817 -0.6453
  148MOL   H29847632   6.026   6.435   1.306 -0.8380  2.0431 -0.1232
  148MOL   H29947633   5.998   6.253   1.316  1.2224  0.4452 -1.1765
  148MOL   H30047634   5.849   6.149   1.168  0.8344  1.6036 -2.4874
  148MOL   H30147635   5.770   6.055   0.976 -0.7233 -4.1326  1.8621
  148MOL   H30247636   5.609   6.086   0.907 -0.9842  4.9655  0.3834
  148MOL   H30347637   5.630   6.010   1.065  0.8440 -0.4784 -1.4080
  148MOL   H30447638   5.616   6.430   1.059  0.9369 -0.4131 -0.4118
  148MOL   H30547639   5.544   6.309   0.933  0.7097  0.1270 -0.4619
  148MOL   C30647640   5.692   6.170   1.311  0.1730 -0.5588  0.1713
  148MOL   C30747641   5.587   6.259   1.369  0.0358  0.2189  0.5873
  148MOL   C30847642   5.779   6.114   1.427  0.3440 -0.3351  0.0318
  148MOL   C30947643   5.880   6.004   1.388 -0.2234  0.2514  0.2189
  148MOL   C31047644   5.818   5.893   1.297 -0.3067 -0.7932 -0.5244
  148MOL   C31147645   6.012   6.010   1.415  0.3660 -0.6381 -0.0108
  148MOL   H31247646   5.636   6.084   1.275  0.9328 -0.9071 -0.1911
  148MOL   H31347647   5.633   6.339   1.426  1.6945  2.0677 -3.1377
  148MOL   H31447648   5.517   6.199   1.427  1.1662  0.0137  1.7403
  148MOL   H31547649   5.526   6.308   1.292 -1.1788 -2.8021 -0.4608
  148MOL   H31647650   5.835   6.191   1.480 -1.0274  0.2725  0.6266
  148MOL   H31747651   5.745   5.835   1.354  1.0904 -1.0158  1.0809
  148MOL   H31847652   5.902   5.832   1.264  0.9467  0.7030 -0.1945
  148MOL   H31947653   5.773   5.931   1.206  0.0828 -0.1134 -0.4414
  148MOL   H32047654   6.056   6.091   1.471  1.1626 -0.6870 -0.5594
  148MOL   H32147655   6.074   5.931   1.374  1.2742 -0.4012  0.8871
  148MOL   H32247656   5.714   6.070   1.503 -0.0428 -2.5631 -1.5167
  149MOL     C147657   7.007   2.232   5.890  0.6535 -0.0547 -0.8574
  149MOL     C247658   7.043   2.211   6.034  0.0165 -0.1851  0.3495
  149MOL     C347659   7.126   2.300   5.815  0.6898  0.2207 -1.1258
  149MOL     C447660   7.145   2.448   5.851  0.5137 -0.1426  0.6807
  149MOL     C547661   7.286   2.501   5.830  0.2396 -0.1667 -0.1122
  149MOL     C647662   7.042   2.532   5.881 -0.2053 -0.4280  0.5728
  149MOL     H747663   6.995   2.132   5.848  1.2354 -0.3678 -0.2956
  149MOL     H847664   7.112   2.128   6.047  0.6648  0.3301  0.2777
  149MOL     H947665   6.964   2.180   6.102  1.3320 -0.0729  1.9492
  149MOL    H1047666   7.075   2.307   6.076 -2.0865 -0.0020  1.5894
  149MOL    H1147667   7.213   2.253   5.862 -1.1082 -0.1490  1.9378
  149MOL    H1247668   7.292   2.606   5.858 -1.4853  0.0545 -0.5487
  149MOL    H1347669   7.322   2.493   5.727  2.1921  1.0868  0.4376
  149MOL    H1447670   7.357   2.446   5.892  1.0254 -0.5530 -1.3462
  149MOL    H1547671   6.941   2.496   5.893 -0.0096 -0.3045  2.7610
  149MOL    H1647672   7.053   2.638   5.900 -1.4987 -0.0459 -0.7257
  149MOL    H1747673   6.919   2.294   5.873  0.6620 -0.5150 -2.6507
  149MOL    C1847674   7.137   2.272   5.660  0.7463 -0.1236 -0.2370
  149MOL    C1947675   7.005   2.312   5.592 -0.1147  0.3303 -0.2897
  149MOL    C2047676   7.183   2.131   5.618  0.1058  0.1503  0.1046
  149MOL    C2147677   7.316   2.098   5.687  0.2158  0.6801  0.9274
  149MOL    C2247678   7.307   1.973   5.775  0.0906  0.0071 -1.4669
  149MOL    C2347679   7.424   2.182   5.689 -0.0718  0.5551  0.9903
  149MOL    H2447680   7.206   2.341   5.610  1.0956 -0.0995  0.2676
  149MOL    H2547681   6.929   2.241   5.623  0.0292 -0.1180 -0.9376
  149MOL    H2647682   7.007   2.312   5.483 -1.1523 -1.2593 -0.3311
  149MOL    H2747683   6.960   2.403   5.631  0.0829  0.6398 -0.7875
  149MOL    H2847684   7.111   2.062   5.663  0.4422 -0.6830 -0.6205
  149MOL    H2947685   7.273   1.887   5.717 -1.3663 -0.5806  0.2125
  149MOL    H3047686   7.222   1.986   5.842  1.0025 -0.9774 -0.0945
  149MOL    H3147687   7.401   1.944   5.822  0.1519  0.2504 -1.4411
  149MOL    H3247688   7.428   2.277   5.638  0.2864  1.3320  2.4572
  149MOL    H3347689   7.511   2.168   5.751  0.9176 -1.7869 -0.8545
  149MOL    C3447690   7.195   2.093   5.463  0.1752 -0.2984  0.3783
  149MOL    C3547691   7.277   2.206   5.382  0.2449 -0.5024 -0.4508
  149MOL    C3647692   7.061   2.054   5.390  0.3070  0.1785 -0.2968
  149MOL    C3747693   6.964   1.984   5.479  0.4663  0.6500 -0.0727
  149MOL    C3847694   7.001   1.846   5.546  0.3564 -0.0515  0.0752
  149MOL    C3947695   6.836   2.034   5.488 -0.7262 -0.7262 -0.2453
  149MOL    H4047696   7.254   2.002   5.456 -2.2454 -2.1509  2.7213
  149MOL    H4147697   7.222   2.300   5.386  0.9376  0.0714 -3.3101
  149MOL    H4247698   7.294   2.183   5.276  1.7515 -0.5753 -0.2120
  149MOL    H4347699   7.371   2.240   5.426 -0.9888  2.5761 -0.0856
  149MOL    H4447700   7.014   2.151   5.372  0.4039  0.3035  0.1050
  149MOL    H4547701   6.935   1.813   5.627  1.4561 -0.9062  0.6380
  149MOL    H4647702   7.100   1.858   5.590  1.1046  0.5469 -1.7417
  149MOL    H4747703   7.007   1.770   5.468  0.3504 -0.9998  0.9777
  149MOL    H4847704   6.802   2.120   5.432  2.9553  0.8719 -0.2371
  149MOL    H4947705   6.760   1.990   5.549 -2.0361  1.7169 -0.0759
  149MOL    C5047706   7.078   1.979   5.250 -0.4566  0.2336  0.9288
  149MOL    C5147707   7.201   1.879   5.251  0.5528 -0.3398  0.0143
  149MOL    C5247708   7.072   2.076   5.127  0.3679 -1.3340 -0.3635
  149MOL    C5347709   6.955   2.170   5.131  0.2614 -0.7997  0.1245
  149MOL    C5447710   6.976   2.313   5.089 -0.3493 -0.2800 -0.0565
  149MOL    C5547711   6.834   2.136   5.180 -0.1593  0.1879  0.6104
  149MOL    H5647712   6.989   1.917   5.240  2.1998 -3.2999 -2.6954
  149MOL    H5747713   7.205   1.828   5.347 -0.4898 -1.8117 -0.7038
  149MOL    H5847714   7.292   1.939   5.240 -0.0349  0.6125  0.3793
  149MOL    H5947715   7.195   1.803   5.174  3.4941  0.2541 -0.8848
  149MOL    H6047716   7.159   2.142   5.135  0.3541 -1.3468 -0.0933
  149MOL    H6147717   7.053   2.314   5.012 -0.4285  1.3980 -0.1378
  149MOL    H6247718   7.026   2.368   5.169 -1.1073  2.2859 -1.3129
  149MOL    H6347719   6.890   2.374   5.062  2.3388  3.8178  0.1746
  149MOL    H6447720   6.829   2.036   5.218 -2.0461  0.4875  1.1731
  149MOL    H6547721   6.754   2.208   5.188  0.5609  0.7335  3.3587
  149MOL    C6647722   7.087   2.007   4.991 -0.8510  0.4003 -0.3514
  149MOL    C6747723   6.982   1.896   4.970 -0.6364  0.3984  0.1365
  149MOL    C6847724   7.231   1.973   4.940 -0.6694 -0.3870 -0.0379
  149MOL    C6947725   7.317   2.102   4.934 -0.4135 -0.0184  0.2758
  149MOL    C7047726   7.452   2.090   4.993  0.5317 -0.8348 -0.6274
  149MOL    C7147727   7.275   2.218   4.872 -0.0519  0.2282  0.4399
  149MOL    H7247728   7.054   2.080   4.917  0.2212  1.3953  0.1374
  149MOL    H7347729   6.986   1.868   4.865 -0.8781  0.8787 -0.0006
  149MOL    H7447730   6.882   1.938   4.984 -0.9052 -0.7529  1.9326
  149MOL    H7547731   6.986   1.796   5.015 -0.0628 -0.0034 -0.7946
  149MOL    H7647732   7.271   1.906   5.016 -0.3458  0.3471  0.4516
  149MOL    H7747733   7.500   2.006   4.942  1.3732  1.0239 -2.9518
  149MOL    H7847734   7.443   2.061   5.098  0.8586 -0.3824 -0.4694
  149MOL    H7947735   7.509   2.183   4.985  2.2631 -1.7067  0.9706
  149MOL    H8047736   7.178   2.222   4.825  0.5567  0.0702 -0.8769
  149MOL    H8147737   7.340   2.304   4.864 -1.2831  0.9328 -3.1359
  149MOL    C8247738   7.253   1.891   4.806  0.3911 -0.9115 -0.1771
  149MOL    C8347739   7.198   1.960   4.678  0.4009 -0.3362  0.8461
  149MOL    C8447740   7.247   1.737   4.817  0.6284  0.2658  0.0643
  149MOL    C8547741   7.385   1.694   4.850  0.3646 -0.8054  0.8333
  149MOL    C8647742   7.422   1.659   4.991  0.4026  0.6088 -0.3759
  149MOL    C8747743   7.485   1.680   4.762 -0.2685 -0.1718  0.1777
  149MOL    H8847744   7.356   1.911   4.778  0.4781 -1.3556 -0.1866
  149MOL    H8947745   7.228   1.907   4.588 -0.5679  0.8397 -0.1876
  149MOL    H9047746   7.237   2.062   4.674  2.5558 -1.2153 -2.0875
  149MOL    H9147747   7.090   1.966   4.684  0.4449 -0.5449  2.0169
  149MOL    H9247748   7.180   1.711   4.899 -0.3600  3.5295  0.3613
  149MOL    H9347749   7.519   1.610   4.999  0.3362  0.6424  0.7092
  149MOL    H9447750   7.341   1.600   5.033  1.5642 -0.4901  0.3760
  149MOL    H9547751   7.434   1.757   5.036  0.0726  0.1472  0.7378
  149MOL    H9647752   7.470   1.716   4.661 -2.0710 -0.9641  0.1430
  149MOL    H9747753   7.586   1.650   4.787 -0.3104  0.1026  0.6797
  149MOL    C9847754   7.182   1.639   4.696 -0.1104 -0.6987  0.4947
  149MOL    C9947755   7.044   1.663   4.640 -0.6889 -0.1609 -0.1350
  149MOL   C10047756   7.202   1.485   4.708 -0.6035  0.3908 -0.9693
  149MOL   C10147757   7.235   1.425   4.570  0.1140  1.4371  0.0463
  149MOL   C10247758   7.373   1.447   4.512  0.1458  0.3813 -0.3037
  149MOL   C10347759   7.139   1.357   4.498  0.1052  0.5904 -0.2024
  149MOL   H10447760   7.245   1.662   4.610 -1.1081 -0.7343 -0.2694
  149MOL   H10547761   7.030   1.762   4.596  1.3806  0.2749  0.1632
  149MOL   H10647762   6.972   1.666   4.722  0.6360  0.8893  1.0243
  149MOL   H10747763   7.022   1.595   4.558  0.4915 -3.6855  2.3116
  149MOL   H10847764   7.295   1.481   4.764 -0.4380  1.9932 -1.1036
  149MOL   H10947765   7.438   1.452   4.600 -0.3226  1.8175 -0.0319
  149MOL   H11047766   7.378   1.539   4.454 -0.1556  0.3927 -0.3087
  149MOL   H11147767   7.407   1.363   4.453 -0.3231  1.0892 -1.5923
  149MOL   H11247768   7.042   1.335   4.539  1.9092 -3.6343  2.1095
  149MOL   H11347769   7.161   1.314   4.401 -0.3574 -0.9465  0.3613
  149MOL   C11447770   7.094   1.404   4.795  0.3568 -0.6745  0.3549
  149MOL   C11547771   7.052   1.464   4.928 -0.4862  0.7624 -0.3553
  149MOL   C11647772   7.120   1.245   4.812 -0.1375  1.0717  1.0616
  149MOL   C11747773   6.997   1.169   4.873 -0.2093 -0.3796  0.1043
  149MOL   C11847774   6.897   1.111   4.774 -0.4366 -0.1479 -0.5642
  149MOL   C11947775   6.985   1.130   5.005  0.1850  0.2095  0.4033
  149MOL   H12047776   6.997   1.400   4.747  0.9722  0.0652 -0.9800
  149MOL   H12147777   7.001   1.558   4.909  1.6323  1.7277 -1.4109
  149MOL   H12247778   7.138   1.486   4.991 -0.3458  0.6525 -0.5073
  149MOL   H12347779   6.988   1.404   4.992  2.5127 -2.0171  0.1733
  149MOL   H12447780   7.111   1.213   4.708  1.8860  1.6633  0.6873
  149MOL   H12547781   6.859   1.187   4.706 -0.3181 -0.9258 -1.5070
  149MOL   H12647782   6.806   1.075   4.822 -0.9659 -0.6517 -1.9145
  149MOL   H12747783   6.949   1.031   4.722 -0.2556 -0.8683  0.6923
  149MOL   H12847784   7.059   1.153   5.081 -2.0367  2.0383  2.0975
  149MOL   H12947785   6.905   1.069   5.044  0.6643 -1.0495 -0.5502
  149MOL   C13047786   7.251   1.187   4.869  0.2789  0.3779  0.7439
  149MOL   C13147787   7.319   1.270   4.986  0.2149  0.1733 -0.7019
  149MOL   C13247788   7.349   1.133   4.757 -1.5032  0.2287  0.2206
  149MOL   C13347789   7.284   1.022   4.668 -0.0192 -0.5625 -0.7265
  149MOL   C13447790   7.329   1.018   4.523  0.5789  0.3358 -0.4648
  149MOL   C13547791   7.185   0.941   4.706 -0.1951 -0.4074 -0.2789
  149MOL   H13647792   7.213   1.102   4.926 -1.1105  0.8351  0.5271
  149MOL   H13747793   7.374   1.357   4.951 -0.6280  0.5121 -1.1999
  149MOL   H13847794   7.384   1.211   5.051  0.0170  0.7598  0.0388
  149MOL   H13947795   7.242   1.308   5.053 -0.1825 -1.7698 -0.0349
  149MOL   H14047796   7.381   1.219   4.698 -0.2264 -0.9946 -0.9051
  149MOL   H14147797   7.363   1.116   4.491  1.2577 -0.0500 -0.9495
  149MOL   H14247798   7.259   0.974   4.452  1.1968 -0.2258 -0.7432
  149MOL   H14347799   7.411   0.945   4.518  1.1440  0.7712  1.7555
  149MOL   H14447800   7.142   0.935   4.804  0.4905 -2.5503 -0.0803
  149MOL   H14547801   7.143   0.876   4.630 -0.3102  0.8262 -1.2980
  149MOL   C14647802   7.479   1.060   4.814  0.5405  0.1360  0.4967
  149MOL   C14747803   7.440   0.947   4.926 -0.5839  0.1903  0.2793
  149MOL   C14847804   7.605   1.153   4.850 -1.1851 -0.6362  0.0962
  149MOL   C14947805   7.642   1.249   4.736  0.1897  0.2094 -0.2381
  149MOL   C15047806   7.682   1.392   4.769  0.5175 -0.1688  0.6773
  149MOL   C15147807   7.646   1.207   4.606 -0.1561 -0.2674  0.6359
  149MOL   H15247808   7.517   1.016   4.722 -0.8433  1.0389 -0.5229
  149MOL   H15347809   7.366   0.876   4.889 -1.4355  0.9973  0.4175
  149MOL   H15447810   7.402   0.988   5.020  2.7137  1.3941  1.1442
  149MOL   H15547811   7.521   0.887   4.966  1.5710  1.3360 -2.1783
  149MOL   H15647812   7.575   1.227   4.924  0.8881  0.9547 -0.6014
  149MOL   H15747813   7.614   1.434   4.843  0.8907  1.0839  0.3187
  149MOL   H15847814   7.691   1.454   4.680 -0.5176  0.5955  1.0994
  149MOL   H15947815   7.783   1.384   4.808  0.0107  1.6906  2.4517
  149MOL   H16047816   7.640   1.107   4.568 -0.8848  0.2050 -0.4896
  149MOL   H16147817   7.668   1.281   4.531 -0.5689  0.2403  1.0106
  149MOL   C16247818   7.731   1.087   4.914 -0.2272 -0.4893 -0.0347
  149MOL   C16347819   7.776   0.972   4.822 -0.7005  0.9222  0.4616
  149MOL   C16447820   7.725   1.054   5.071  0.0747  0.0986 -0.0388
  149MOL   C16547821   7.655   1.167   5.162 -0.3866 -0.4858  0.6099
  149MOL   C16647822   7.549   1.119   5.262 -0.2375  0.5344  0.2641
  149MOL   C16747823   7.688   1.299   5.169  0.7069  0.8184  0.0910
  149MOL   H16847824   7.806   1.166   4.911 -1.3709  0.6055 -0.1327
  149MOL   H16947825   7.762   1.003   4.718 -2.2175 -0.8940  0.0989
  149MOL   H17047826   7.714   0.882   4.823  2.0608 -1.0412  0.6049
  149MOL   H17147827   7.878   0.933   4.829 -1.1984 -0.7847 -1.3231
  149MOL   H17247828   7.654   0.973   5.076  0.2072 -0.0620 -0.7833
  149MOL   H17347829   7.589   1.082   5.356  0.7416  1.7353  0.3372
  149MOL   H17447830   7.484   1.041   5.222 -1.1248 -0.2392  3.1602
  149MOL   H17547831   7.478   1.197   5.288 -0.0846  1.0395 -0.7738
  149MOL   H17647832   7.770   1.334   5.107  1.7771 -3.0967 -0.8180
  149MOL   H17747833   7.638   1.376   5.226  4.6105  2.4691  1.4493
  149MOL   C17847834   7.851   0.993   5.133 -0.8476  0.8075  0.0940
  149MOL   C17947835   7.810   0.913   5.267  0.7069  0.0728 -0.2190
  149MOL   C18047836   0.078   1.098   5.157 -0.0492 -0.4808 -0.8547
  149MOL   C18147837   0.133   1.160   5.034 -0.4626 -0.0223  0.1040
  149MOL   C18247838   0.147   1.313   5.026 -0.1986 -0.0932 -0.1050
  149MOL   C18347839   0.187   1.088   4.939 -0.5207  0.0034 -0.0165
  149MOL   H18447840   7.879   0.909   5.070  0.3109  0.2376  1.3377
  149MOL   H18547841   7.805   0.971   5.359 -0.5611 -2.6403  1.4718
  149MOL   H18647842   7.882   0.836   5.298 -0.1229  0.2352  2.2240
  149MOL   H18747843   7.714   0.861   5.266  1.4419 -1.3235  0.0447
  149MOL   H18847844   0.017   1.174   5.206  0.9288 -0.9792  1.1843
  149MOL   H18947845   0.202   1.337   4.935  0.3616  0.4033  0.3583
  149MOL   H19047846   0.219   1.340   5.103  0.7213 -0.1473 -0.9399
  149MOL   H19147847   0.060   1.379   5.030 -1.1197 -1.2146 -1.4624
  149MOL   H19247848   0.184   0.980   4.928  0.2867 -0.1775  1.4993
  149MOL   H19347849   0.232   1.149   4.862  0.6658  0.3325  0.9322
  149MOL   C19447850   0.197   1.056   5.253  0.6413 -0.2142 -0.0022
  149MOL   C19547851   0.265   0.922   5.211 -0.5250 -0.7565 -0.0879
  149MOL   C19647852   0.187   1.062   5.407 -0.5038  0.2300 -0.4932
  149MOL   C19747853   0.117   1.188   5.466  0.3784  0.4142  0.1188
  149MOL   C19847854   0.180   1.328   5.441 -0.8726  0.3473 -0.2585
  149MOL   C19947855   0.009   1.168   5.539  0.0151 -0.1209  0.1668
  149MOL   H20047856   0.276   1.126   5.228  0.0874  1.1440  1.8900
  149MOL   H20147857   0.245   0.905   5.105 -1.7327  0.2372 -0.0314
  149MOL   H20247858   0.219   0.837   5.262  0.5099 -1.3085 -0.0659
  149MOL   H20347859   0.373   0.929   5.223 -0.5185  0.5744 -0.8796
  149MOL   H20447860   0.119   0.978   5.419 -1.3607  0.8056 -1.2679
  149MOL   H20547861   0.125   1.417   5.471 -1.9622  1.1010 -4.1247
  149MOL   H20647862   0.207   1.341   5.336  0.1382 -0.3364 -0.0884
  149MOL   H20747863   0.274   1.335   5.495 -0.2908  0.0156 -1.2094
  149MOL   H20847864   7.860   1.071   5.560 -0.3956 -0.2494 -1.2064
  149MOL   H20947865   7.838   1.248   5.573  0.1368  0.5432 -1.1244
  149MOL   C21047866   0.320   1.040   5.492  0.6279 -0.0023  0.5765
  149MOL   C21147867   0.435   1.124   5.425  0.1725 -0.1633 -0.1102
  149MOL   C21247868   0.360   0.886   5.528 -0.1675 -0.9748 -0.5171
  149MOL   C21347869   0.237   0.812   5.576 -0.1382  0.3465  0.1298
  149MOL   C21447870   0.212   0.669   5.532  0.1732 -0.5660  0.1426
  149MOL   C21547871   0.148   0.872   5.652 -0.2442 -0.3628  0.2253
  149MOL   H21647872   0.302   1.085   5.589 -0.9651  0.8845 -0.1015
  149MOL   H21747873   0.408   1.215   5.371  1.5996  1.3019  1.5877
  149MOL   H21847874   0.496   1.067   5.354  0.9655 -0.4659  0.8153
  149MOL   H21947875   0.502   1.159   5.503  0.0248  1.9919 -0.9080
  149MOL   H22047876   0.389   0.836   5.436 -0.4266  0.5078 -1.4275
  149MOL   H22147877   0.174   0.675   5.430 -0.3531  1.4313  0.4485
  149MOL   H22247878   0.151   0.614   5.604 -0.1249 -0.5160 -0.0695
  149MOL   H22347879   0.309   0.618   5.532  0.1665 -0.5937  1.4039
  149MOL   H22447880   0.157   0.974   5.685  1.7723 -0.6942  0.7158
  149MOL   H22547881   0.059   0.819   5.684 -1.9216  1.9036 -0.5722
  149MOL   C22647882   0.485   0.856   5.625  0.4434 -0.3622  0.3906
  149MOL   C22747883   0.464   0.938   5.759 -0.3010 -0.1768  0.3481
  149MOL   C22847884   0.627   0.871   5.566  0.4963  0.0104  0.7008
  149MOL   C22947885   0.644   0.790   5.434  0.0134  0.0899 -0.1273
  149MOL   C23047886   0.613   0.645   5.440  0.3696  0.7701 -0.9340
  149MOL   C23147887   0.685   0.840   5.313  0.3869 -0.2229  0.1664
  149MOL   H23247888   0.475   0.757   5.668 -0.4931 -0.3630  0.1719
  149MOL   H23347889   0.499   1.041   5.754 -0.5159 -0.0259  1.7434
  149MOL   H23447890   0.539   0.893   5.824 -1.4865 -2.1505  0.3947
  149MOL   H23547891   0.365   0.926   5.804 -0.6631 -2.1518 -0.8950
  149MOL   H23647892   0.635   0.972   5.526 -1.7968 -0.1493 -0.2520
  149MOL   H23747893   0.645   0.601   5.534 -3.2894 -1.2837 -0.5413
  149MOL   H23847894   0.649   0.585   5.356  0.9881  0.9247 -0.7845
  149MOL   H23947895   0.504   0.639   5.444  0.4386  0.6319  1.2462
  149MOL   H24047896   0.717   0.940   5.286 -0.2088 -0.5767 -1.8819
  149MOL   H24147897   0.686   0.777   5.226 -0.5138  1.2085 -0.8893
  149MOL   C24247898   0.749   0.858   5.670  0.0768  0.1031  0.5569
  149MOL   C24347899   0.748   0.734   5.769  0.3189  0.2508 -0.3399
  149MOL   C24447900   0.816   0.988   5.725  0.4698 -0.1752 -0.3406
  149MOL   C24547901   0.845   1.082   5.600  0.0416  0.0940 -0.1518
  149MOL   C24647902   0.802   1.226   5.611  0.5042 -0.5630  0.5809
  149MOL   C24747903   0.915   1.038   5.491 -0.3569 -0.1649 -0.2189
  149MOL   H24847904   0.827   0.819   5.605 -0.1951  1.0992 -0.3621
  149MOL   H24947905   0.668   0.666   5.738  1.4472 -1.1858 -0.1612
  149MOL   H25047906   0.714   0.771   5.866 -1.6698  0.3100 -1.0410
  149MOL   H25147907   0.840   0.677   5.783 -0.4097 -0.7758  0.3188
  149MOL   H25247908   0.732   1.031   5.780  0.4191 -1.1911  0.3924
  149MOL   H25347909   0.694   1.228   5.624  0.8413 -0.2603  3.5387
  149MOL   H25447910   0.831   1.282   5.522  1.3313 -2.5189 -0.4028
  149MOL   H25547911   0.844   1.284   5.693  0.2188 -0.3132  0.5511
  149MOL   H25647912   0.947   0.935   5.476 -1.6728 -1.0309  2.5212
  149MOL   H25747913   0.937   1.113   5.416  2.2680  0.9198  1.5826
  149MOL   C25847914   0.943   0.994   5.823 -0.3437  1.2670  0.0694
  149MOL   C25947915   1.058   0.904   5.765 -0.6673 -0.4017 -0.2739
  149MOL   C26047916   0.918   0.962   5.973 -0.6600  0.5364 -0.8335
  149MOL   C26147917   0.785   1.030   6.019 -0.3052  0.7690  0.0026
  149MOL   C26247918   0.784   1.182   6.023  0.0141  0.1278  0.6141
  149MOL   C26347919   0.679   0.959   6.062  0.4456 -0.2034 -0.1149
  149MOL   H26447920   0.963   1.101   5.821  1.2884  0.9573 -0.8957
  149MOL   H26547921   1.151   0.911   5.821  0.8921  1.1654 -2.9657
  149MOL   H26647922   1.077   0.938   5.663  0.6383  1.5530  0.5840
  149MOL   H26747923   1.033   0.798   5.779  0.2424 -0.6068 -0.1812
  149MOL   H26847924   0.898   0.855   5.980 -3.6310  1.1761  1.7105
  149MOL   H26947925   0.850   1.220   6.101  2.4416  0.0865 -1.3691
  149MOL   H27047926   0.684   1.222   6.036 -0.2849 -0.7300  0.9956
  149MOL   H27147927   0.830   1.223   5.933 -0.3319 -0.6194  0.0830
  149MOL   H27247928   0.681   0.851   6.056  1.3938 -0.0877 -2.4678
  149MOL   H27347929   0.592   1.007   6.105  1.7054  1.1383  1.0051
  149MOL   C27447930   1.042   0.995   6.068 -0.3473  0.2781 -0.2407
  149MOL   C27547931   1.138   1.121   6.029 -0.1117 -0.1076 -0.0178
  149MOL   C27647932   1.132   0.866   6.110 -0.2659  0.4931  0.2342
  149MOL   C27747933   1.043   0.740   6.139 -0.2394 -0.4922  0.7445
  149MOL   C27847934   0.930   0.742   6.243  0.0402  0.5346 -0.5849
  149MOL   C27947935   1.060   0.628   6.068  0.1355 -0.3529 -0.2020
  149MOL   H28047936   0.997   1.029   6.161 -2.1346  1.7683 -1.6116
  149MOL   H28147937   1.164   1.108   5.924 -1.8371  1.5148 -0.6727
  149MOL   H28247938   1.235   1.123   6.077  0.2437  0.3952 -0.7488
  149MOL   H28347939   1.089   1.216   6.052 -0.1966 -0.2406  0.3500
  149MOL   H28447940   1.188   0.849   6.019 -2.5567 -0.5817 -1.0336
  149MOL   H28547941   0.863   0.657   6.230  0.6282 -0.2814  1.3865
  149MOL   H28647942   0.870   0.833   6.241 -0.3566  0.2492 -2.0632
  149MOL   H28747943   0.971   0.745   6.344 -1.3215  1.4230 -0.0408
  149MOL   H28847944   1.138   0.625   5.994  0.4055  0.7549  0.0144
  149MOL   H28947945   0.995   0.545   6.094  1.1866 -1.4025 -0.9204
  149MOL   C29047946   1.225   0.889   6.233  0.1277  0.3934  0.6084
  149MOL   C29147947   1.175   0.994   6.330  0.6336  0.8346  0.0209
  149MOL   C29247948   1.378   0.882   6.195 -0.1525 -0.3536 -0.3487
  149MOL   C29347949   1.411   0.751   6.118 -0.2178  0.1879 -0.3126
  149MOL   C29447950   1.418   0.617   6.192  0.4280  0.1159  0.2344
  149MOL   C29547951   1.441   0.751   5.984 -0.7678 -0.2258 -0.2988
  149MOL   H29647952   1.205   0.806   6.299  2.2126 -0.6057  0.0330
  149MOL   H29747953   1.199   1.094   6.295 -0.3946  0.9063 -0.4758
  149MOL   H29847954   1.227   0.995   6.426  0.9928 -0.9257 -0.1239
  149MOL   H29947955   1.070   0.969   6.346  0.4318  0.0146 -2.3688
  149MOL   H30047956   1.403   0.962   6.126  1.3548  0.1978  0.8114
  149MOL   H30147957   1.324   0.599   6.245  0.2213  1.3916  0.3310
  149MOL   H30247958   1.490   0.622   6.274  1.1740 -1.0939 -0.3354
  149MOL   H30347959   1.434   0.538   6.119 -1.4112 -0.1213  0.0455
  149MOL   H30447960   1.435   0.842   5.928 -0.7650 -0.2221 -0.2928
  149MOL   H30547961   1.467   0.659   5.934  2.2346 -0.0119  0.7602
  149MOL   C30647962   1.463   0.895   6.324 -1.0082 -0.0352  0.2593
  149MOL   C30747963   1.610   0.899   6.294  0.7052 -0.1311 -0.2710
  149MOL   C30847964   1.444   0.793   6.442 -0.6797  0.1587  0.3943
  149MOL   C30947965   1.426   0.869   6.571 -0.6861  0.1043  0.3308
  149MOL   C31047966   1.501   0.996   6.591 -0.7800  0.3338 -0.8551
  149MOL   C31147967   1.356   0.811   6.664 -0.2814 -0.2316 -0.9445
  149MOL   H31247968   1.440   0.996   6.357  0.0193  1.5306 -3.5745
  149MOL   H31347969   1.630   1.000   6.259  0.8886 -0.4250 -1.0326
  149MOL   H31447970   1.633   0.831   6.212  0.4839 -0.1686 -0.3008
  149MOL   H31547971   1.677   0.873   6.377  0.4461 -0.1697 -0.0741
  149MOL   H31647972   1.365   0.718   6.432 -0.6541  0.1424  0.3143
  149MOL   H31747973   1.505   1.013   6.699  0.5028 -0.7841 -0.7176
  149MOL   H31847974   1.458   1.085   6.545 -0.0226  0.2247 -1.7944
  149MOL   H31947975   1.607   0.994   6.565  0.4135  2.1701  3.3828
  149MOL   H32047976   1.288   0.727   6.660 -1.2039  0.4681 -0.0730
  149MOL   H32147977   1.360   0.862   6.759  1.0196 -1.1467 -0.4894
  149MOL   H32247978   1.534   0.734   6.457 -0.4290  0.4983  0.2063
  150MOL     C147979   4.164   0.410   4.433  0.0689 -0.7402 -0.0666
  150MOL     C247980   4.301   0.425   4.500 -0.5154  0.3809 -0.5812
  150MOL     C347981   4.171   0.315   4.313  0.2453 -0.2544 -0.4652
  150MOL     C447982   4.278   0.373   4.217  0.2783  0.2882  0.3154
  150MOL     C547983   4.269   0.518   4.171  0.3770 -0.1709 -0.2212
  150MOL     C647984   4.389   0.302   4.188  0.9082 -0.0890 -0.2054
  150MOL     H747985   4.085   0.369   4.496 -0.8190 -0.1718 -0.7898
  150MOL     H847986   4.289   0.465   4.601  2.4191  0.1054 -0.0791
  150MOL     H947987   4.361   0.497   4.442 -1.4247  1.9285  0.3698
  150MOL    H1047988   4.349   0.328   4.508  0.1326  0.5865 -1.7260
  150MOL    H1147989   4.193   0.213   4.342 -1.1298 -0.7459 -1.1183
  150MOL    H1247990   4.242   0.585   4.253 -1.2589 -0.5744 -0.4125
  150MOL    H1347991   4.188   0.522   4.099 -1.3624 -1.6542  1.5923
  150MOL    H1447992   4.357   0.560   4.122 -0.7141  3.4114  0.7271
  150MOL    H1547993   4.412   0.199   4.210  0.3920 -0.5351 -1.6749
  150MOL    H1647994   4.460   0.364   4.135  1.1737 -0.3804 -0.1889
  150MOL    H1747995   4.133   0.511   4.407 -1.3629 -1.2528 -0.4086
  150MOL    C1847996   4.036   0.308   4.236  0.8343  0.0062  0.6157
  150MOL    C1947997   3.926   0.243   4.313  0.4304 -0.4996 -0.7057
  150MOL    C2047998   4.044   0.239   4.091 -0.3829  0.1756  0.3730
  150MOL    C2147999   3.931   0.296   4.004 -0.2668  0.6286  0.0509
  150MOL    C2248000   3.974   0.412   3.917 -0.4990 -0.3205 -0.1174
  150MOL    C2348001   3.803   0.255   4.004 -0.1498  0.1721  0.0059
  150MOL    H2448002   3.992   0.406   4.217  0.3979 -0.0640  1.2796
  150MOL    H2548003   3.838   0.237   4.250 -0.4074  0.3050  0.3607
  150MOL    H2648004   3.911   0.304   4.402  1.5067  0.4680 -1.1746
  150MOL    H2748005   3.950   0.146   4.356  0.0468 -0.2126  0.1791
  150MOL    H2848006   4.136   0.274   4.044 -2.1988  2.3238 -1.6823
  150MOL    H2948007   4.043   0.372   3.843 -1.4960 -0.4964 -0.9642
  150MOL    H3048008   4.030   0.487   3.972  0.2474 -1.0066  0.0721
  150MOL    H3148009   3.889   0.462   3.870 -1.3992  0.2554  2.0477
  150MOL    H3248010   3.784   0.164   4.058 -1.1867  0.1103 -0.4533
  150MOL    H3348011   3.725   0.307   3.950  0.2545 -1.8739 -2.6475
  150MOL    C3448012   4.054   0.081   4.077  0.2773 -0.4130  0.3916
  150MOL    C3548013   4.160   0.011   4.171  0.5020 -0.2539 -0.3636
  150MOL    C3648014   4.064   0.033   3.930 -0.1975  0.4262  0.4728
  150MOL    C3748015   3.957   7.810   3.912  0.6837 -0.2083  0.0430
  150MOL    C3848016   3.986   7.681   3.982 -0.0687 -0.4105 -0.2456
  150MOL    C3948017   3.847   7.831   3.836 -0.4288 -0.6454 -0.1088
  150MOL    H4048018   3.959   0.042   4.112 -0.0928 -1.0227 -1.2385
  150MOL    H4148019   4.258   0.059   4.164  0.9664 -1.2194 -0.4937
  150MOL    H4248020   4.185   7.799   4.152 -0.5319 -0.2533 -1.7735
  150MOL    H4348021   4.132   0.024   4.275 -0.3343 -3.3470 -0.1725
  150MOL    H4448022   4.032   0.106   3.855  1.2360 -0.2458 -0.8337
  150MOL    H4548023   3.957   7.697   4.085 -0.7851  1.5376 -0.7276
  150MOL    H4648024   4.090   7.647   3.976 -0.0274 -0.5933  1.2581
  150MOL    H4748025   3.922   7.597   3.953 -1.8521  0.5422  0.8684
  150MOL    H4848026   3.815   0.030   3.790  0.3906 -0.4332 -0.2640
  150MOL    H4948027   3.780   7.749   3.812  0.0299 -0.7011 -1.2038
  150MOL    C5048028   4.203   7.887   3.867 -0.2673  0.4685 -0.5590
  150MOL    C5148029   4.298   0.115   3.873 -0.0655 -0.1205  0.2806
  150MOL    C5248030   4.210   7.811   3.728 -0.2965 -0.6850  0.9044
  150MOL    C5348031   4.325   7.704   3.733 -0.7682 -0.5804  0.5708
  150MOL    C5448032   4.281   7.559   3.751 -0.2568 -0.6523  0.2136
  150MOL    C5548033   4.458   7.741   3.712  0.2090 -0.5410  0.2343
  150MOL    H5648034   4.240   7.810   3.935 -1.0652  0.8842  0.3684
  150MOL    H5748035   4.253   0.197   3.816  0.0259 -2.3467 -3.1260
  150MOL    H5848036   4.392   0.098   3.821  0.2322  2.5409 -0.1581
  150MOL    H5948037   4.313   0.156   3.973 -0.9327  2.1307 -0.4711
  150MOL    H6048038   4.115   7.760   3.707  1.3298 -2.2328 -3.1157
  150MOL    H6148039   4.228   7.548   3.846 -0.4789 -1.2032  0.0278
  150MOL    H6248040   4.359   7.483   3.743 -0.4460 -0.8891  0.6082
  150MOL    H6348041   4.216   7.523   3.672  0.0652  0.1822 -0.4367
  150MOL    H6448042   4.486   7.844   3.694 -0.3147 -0.5729 -0.7819
  150MOL    H6548043   4.540   7.671   3.718 -0.3537 -1.1026  1.6162
  150MOL    C6648044   4.212   0.009   3.597 -0.8132  0.1880  0.1003
  150MOL    C6748045   4.076   0.085   3.579  0.0985 -0.2132 -0.0425
  150MOL    C6848046   4.261   7.836   3.460  0.6487 -0.0645  0.3206
  150MOL    C6948047   4.350   0.055   3.391  0.4611  0.0467  0.1915
  150MOL    C7048048   4.501   0.045   3.403 -0.0282  0.8165 -0.4445
  150MOL    C7148049   4.297   0.150   3.316 -0.0953 -0.3234  0.4053
  150MOL    H7248050   4.284   0.086   3.624 -0.8744  0.0990  0.5116
  150MOL    H7348051   3.988   0.027   3.606  1.3837 -1.2191  2.0623
  150MOL    H7448052   4.062   0.117   3.475 -1.4095 -0.9793 -0.0878
  150MOL    H7548053   4.083   0.177   3.637  1.1062  0.2490 -0.8763
  150MOL    H7648054   4.330   7.755   3.483 -0.8431 -1.2756  0.5902
  150MOL    H7748055   4.518   0.060   3.510 -0.0132  0.3389 -0.3798
  150MOL    H7848056   4.546   0.130   3.350  0.5998  0.9919  0.3449
  150MOL    H7948057   4.541   7.843   3.367  0.1823  1.2426 -1.3308
  150MOL    H8048058   4.191   0.160   3.298 -0.1049  0.2669  0.7918
  150MOL    H8148059   4.359   0.227   3.272 -0.4230  0.1145  0.7096
  150MOL    C8248060   4.162   7.771   3.350  0.5344 -0.1817 -0.0363
  150MOL    C8348061   4.068   7.656   3.404  0.2587  0.1767  0.0527
  150MOL    C8448062   4.239   7.716   3.224  0.2329  0.5326 -0.2011
  150MOL    C8548063   4.158   7.749   3.101  0.2128  0.0731 -0.3671
  150MOL    C8648064   4.186   7.884   3.031 -0.5235 -0.7246  0.3436
  150MOL    C8748065   4.051   7.673   3.062 -0.5529 -0.0648 -0.5078
  150MOL    H8848066   4.096   7.850   3.314  0.7829 -0.1918 -0.5148
  150MOL    H8948067   3.994   7.637   3.327  0.5914  2.4128 -0.8486
  150MOL    H9048068   4.012   7.677   3.495  3.0720  4.7994  0.8817
  150MOL    H9148069   4.123   7.565   3.427 -0.8651  0.0551  2.4446
  150MOL    H9248070   4.331   7.774   3.215 -1.1575  2.9947  0.6464
  150MOL    H9348071   4.294   7.891   3.026 -0.5834  0.4563  0.4941
  150MOL    H9448072   4.144   0.070   3.094 -0.9924 -0.1190 -0.7124
  150MOL    H9548073   4.147   7.875   2.930 -0.5467  1.6114  0.1220
  150MOL    H9648074   4.026   7.585   3.119 -4.1484  1.4735  0.4677
  150MOL    H9748075   3.992   7.696   2.975 -1.2977  2.7261  0.6753
  150MOL    C9848076   4.284   7.560   3.228  0.2959  0.0188 -0.2288
  150MOL    C9948077   4.374   7.529   3.346  0.1214 -0.1900 -0.5053
  150MOL   C10048078   4.346   7.505   3.092  0.5842  0.4808  0.1559
  150MOL   C10148079   4.305   7.361   3.071 -1.1936 -0.5136 -0.0599
  150MOL   C10248080   4.167   7.338   3.005 -0.0935 -0.1548  0.1030
  150MOL   C10348081   4.376   7.258   3.115  0.2259  0.0017  0.1387
  150MOL   H10448082   4.196   7.498   3.247 -1.3056  1.6026 -2.1748
  150MOL   H10548083   4.324   7.528   3.443 -0.0473  1.4850 -0.5593
  150MOL   H10648084   4.462   7.592   3.358 -0.1103  0.2438 -1.0434
  150MOL   H10748085   4.425   7.433   3.347  0.1679 -0.1621  1.9455
  150MOL   H10848086   4.278   7.555   3.023  0.9240 -1.6860 -1.7882
  150MOL   H10948087   4.088   7.366   3.075 -0.4688  1.7847 -1.0432
  150MOL   H11048088   4.147   7.231   2.997  0.1486 -0.1472 -0.7268
  150MOL   H11148089   4.143   7.400   2.918  2.8057  2.3526  0.9985
  150MOL   H11248090   4.464   7.271   3.176 -0.2215 -0.3552  0.8606
  150MOL   H11348091   4.352   7.157   3.086  0.4862 -0.3171  1.0093
  150MOL   C11448092   4.496   7.539   3.059 -0.2163  0.1202  0.4248
  150MOL   C11548093   4.533   7.689   3.070 -0.2925 -0.0776  0.1087
  150MOL   C11648094   4.539   7.479   2.922 -0.9807  0.0754 -0.1320
  150MOL   C11748095   4.688   7.441   2.943  0.8718 -0.7379 -0.0028
  150MOL   C11848096   4.712   7.302   2.997 -0.1755  0.1631  0.0897
  150MOL   C11948097   4.788   7.516   2.891 -0.6525  0.1198  0.4149
  150MOL   H12048098   4.551   7.490   3.140 -1.5242 -0.4737  0.9790
  150MOL   H12148099   4.461   7.760   3.031  0.5563  0.2768 -0.8462
  150MOL   H12248100   4.632   7.708   3.028 -0.9591  0.1488 -1.3883
  150MOL   H12348101   4.537   7.710   3.177 -2.6654  0.1110  0.1805
  150MOL   H12448102   4.484   7.386   2.902  0.5769 -0.4955 -1.8755
  150MOL   H12548103   4.669   7.219   2.941  4.2013 -1.3549 -1.2462
  150MOL   H12648104   4.668   7.306   3.097  0.2111  0.2866  0.2543
  150MOL   H12748105   4.817   7.288   3.021 -0.2565  0.0987  0.4107
  150MOL   H12848106   4.775   7.610   2.839  0.4868  0.7335  1.2007
  150MOL   H12948107   4.888   7.476   2.900  0.3949  2.2290 -1.1428
  150MOL   C13048108   4.511   7.563   2.792  0.8282 -0.2296  0.5371
  150MOL   C13148109   4.374   7.621   2.787  0.0894 -0.7380  0.0410
  150MOL   C13248110   4.554   7.498   2.656  0.5862 -0.1411  0.8297
  150MOL   C13348111   4.588   7.606   2.549  0.7787 -0.1425  0.1932
  150MOL   C13448112   4.710   7.687   2.571 -0.1354  0.4419  0.6225
  150MOL   C13548113   4.507   7.649   2.448 -0.6786  0.6256 -0.2366
  150MOL   H13648114   4.573   7.651   2.809 -0.7943  1.2851 -1.2604
  150MOL   H13748115   4.343   7.637   2.684  0.3475  2.2305  0.3886
  150MOL   H13848116   4.381   7.721   2.830 -1.6522  0.4945 -2.3961
  150MOL   H13948117   4.294   7.560   2.830 -1.6231  0.8068 -0.8855
  150MOL   H14048118   4.649   7.445   2.663  0.9234  0.1971 -0.9719
  150MOL   H14148119   4.726   7.750   2.483  1.1375 -1.4690 -0.5613
  150MOL   H14248120   4.794   7.621   2.593  1.8806  2.1743 -1.5427
  150MOL   H14348121   4.703   7.757   2.654 -1.3370  0.6766  0.3290
  150MOL   H14448122   4.416   7.595   2.429 -1.0132  0.7326  1.0190
  150MOL   H14548123   4.530   7.734   2.385 -0.6678  0.9892  0.2493
  150MOL   C14648124   4.455   7.386   2.592 -0.0823 -0.2747 -0.1667
  150MOL   C14748125   4.385   7.306   2.701 -0.9062 -0.0040 -0.1166
  150MOL   C14848126   4.513   7.308   2.458  0.5927  0.7623 -0.3963
  150MOL   C14948127   4.419   7.323   2.336 -0.3393  0.2384  0.2528
  150MOL   C15048128   4.280   7.270   2.356 -0.0766 -0.1117 -0.1073
  150MOL   C15148129   4.451   7.395   2.222 -0.0225 -0.4747 -0.0002
  150MOL   H15248130   4.367   7.435   2.549 -1.5218 -1.5283  1.3093
  150MOL   H15348131   4.316   7.362   2.764 -0.1902 -1.1338  1.6961
  150MOL   H15448132   4.456   7.252   2.763 -1.7318 -0.5923  0.3199
  150MOL   H15548133   4.320   7.229   2.658 -4.2812  2.0421  1.1173
  150MOL   H15648134   4.598   7.365   2.421  0.6507  0.2223 -1.0955
  150MOL   H15748135   4.225   7.341   2.417  0.8408  1.3465 -0.9341
  150MOL   H15848136   4.310   7.183   2.414  3.7813  1.9206  1.1018
  150MOL   H15948137   4.228   7.246   2.263  0.8399 -1.1582 -0.3573
  150MOL   H16048138   4.546   7.443   2.207  0.8618 -2.0808  0.3254
  150MOL   H16148139   4.382   7.400   2.139  1.2678  2.8039 -0.9410
  150MOL   C16248140   4.559   7.159   2.484  0.5626  0.4881  0.3512
  150MOL   C16348141   4.699   7.177   2.557  0.5694 -0.3407 -0.1354
  150MOL   C16448142   4.565   7.053   2.366 -0.3575 -0.2077 -0.0744
  150MOL   C16548143   4.524   6.920   2.422  0.2923  0.4842 -0.4737
  150MOL   C16648144   4.382   6.881   2.398 -0.7246  0.3982  0.0608
  150MOL   C16748145   4.607   6.843   2.493  0.3244 -0.6767  0.3662
  150MOL   H16848146   4.478   7.119   2.546  0.2537 -0.0117 -0.3736
  150MOL   H16948147   4.744   7.083   2.587 -1.2692 -1.4617 -0.7822
  150MOL   H17048148   4.694   7.239   2.646  0.8572  1.3323 -1.2613
  150MOL   H17148149   4.768   7.224   2.487 -0.0483  0.1097 -0.4523
  150MOL   H17248150   4.495   7.069   2.284 -0.9005  0.3729  0.4927
  150MOL   H17348151   4.306   6.941   2.448 -0.4155 -0.0587  1.0728
  150MOL   H17448152   4.365   6.779   2.431  0.2607 -0.3408 -1.6653
  150MOL   H17548153   4.372   6.883   2.289  0.5036 -0.2354 -0.0724
  150MOL   H17648154   4.705   6.883   2.515  0.2669 -0.8573  0.9537
  150MOL   H17748155   4.586   6.745   2.532  1.6784 -0.9050  0.5672
  150MOL   C17848156   4.701   7.051   2.282  0.1790 -0.2911 -0.0964
  150MOL   C17948157   4.726   7.176   2.201 -0.9808  0.0376  0.0858
  150MOL   C18048158   4.733   6.914   2.202 -0.0747  0.0044  0.0776
  150MOL   C18148159   4.872   6.874   2.228  0.1416 -0.1902 -0.6628
  150MOL   C18248160   4.981   6.963   2.180  0.2022 -0.2235 -0.1283
  150MOL   C18348161   4.898   6.773   2.310  0.1314  0.0299 -0.3130
  150MOL   H18448162   4.777   7.054   2.359  1.9888  0.2089 -1.8704
  150MOL   H18548163   4.665   7.188   2.112 -1.0459  0.9495  0.2520
  150MOL   H18648164   4.828   7.180   2.163 -1.1660 -0.1354 -0.4390
  150MOL   H18748165   4.715   7.266   2.262  3.9357  0.5115  0.4559
  150MOL   H18848166   4.672   6.832   2.240 -0.6264  0.8045  0.9318
  150MOL   H18948167   4.988   7.057   2.235 -0.3206  0.5527 -1.3699
  150MOL   H19048168   4.969   6.982   2.073  0.5994  2.7113  0.3230
  150MOL   H19148169   5.072   6.906   2.198 -1.0006 -1.4344  2.3688
  150MOL   H19248170   4.816   6.714   2.349  0.4105  0.1523  0.4760
  150MOL   H19348171   4.998   6.744   2.339 -0.2816 -1.7154 -0.5567
  150MOL   C19448172   4.694   6.915   2.050 -0.4674  0.6031  0.5247
  150MOL   C19548173   4.545   6.945   2.014 -0.1236 -0.0075 -0.3871
  150MOL   C19648174   4.747   6.799   1.954  0.2014  0.1624 -0.2082
  150MOL   C19748175   4.770   6.851   1.812  0.2916  0.1586  0.3970
  150MOL   C19848176   4.910   6.897   1.772  0.5648  0.5252  0.0422
  150MOL   C19948177   4.666   6.854   1.725  0.2759 -0.1594 -0.2034
  150MOL   H20048178   4.743   7.002   2.006 -0.2137  0.2369  0.0715
  150MOL   H20148179   4.511   7.021   2.083 -1.3767 -0.7235 -0.2026
  150MOL   H20248180   4.472   6.867   2.033  0.5505 -0.7003 -0.6236
  150MOL   H20348181   4.533   6.978   1.910 -0.4807 -0.5652 -0.5272
  150MOL   H20448182   4.846   6.779   1.996  0.6363 -1.9679 -2.1628
  150MOL   H20548183   4.903   6.911   1.664  0.2844 -0.5600 -0.0897
  150MOL   H20648184   4.982   6.822   1.804 -0.3359  0.3751  1.7975
  150MOL   H20748185   4.926   6.992   1.822 -2.7454  0.8418  0.6119
  150MOL   H20848186   4.566   6.828   1.754  0.5411 -0.1962  0.6944
  150MOL   H20948187   4.677   6.883   1.622 -0.1207  0.1728 -0.1520
  150MOL   C21048188   4.667   6.657   1.964  0.4824  1.3213  0.0379
  150MOL   C21148189   4.618   6.611   2.108  0.6459  1.0870  0.1144
  150MOL   C21248190   4.732   6.544   1.873 -0.2442 -0.3271  0.6568
  150MOL   C21348191   4.614   6.453   1.816  0.2019  0.1939  0.0087
  150MOL   C21448192   4.542   6.510   1.695 -0.4877 -0.1373  0.1523
  150MOL   C21548193   4.563   6.339   1.868  0.8012 -0.4758  0.9696
  150MOL   H21648194   4.572   6.679   1.916  0.2756 -1.1117 -0.7651
  150MOL   H21748195   4.537   6.679   2.133 -1.7936 -2.0765  1.2378
  150MOL   H21848196   4.704   6.608   2.174  0.0159 -0.4166  0.8833
  150MOL   H21948197   4.582   6.508   2.115  0.9810  1.0040  0.5995
  150MOL   H22048198   4.766   6.583   1.777 -0.7914 -1.1912  0.0991
  150MOL   H22148199   4.613   6.559   1.627 -0.3787  0.9138  1.0036
  150MOL   H22248200   4.478   6.587   1.738 -0.8185 -1.6498  2.4297
  150MOL   H22348201   4.477   6.451   1.631  2.8178  0.8023 -4.3454
  150MOL   H22448202   4.596   6.292   1.960 -0.0079 -1.7985  0.5994
  150MOL   H22548203   4.478   6.286   1.829  1.1956 -0.8808  0.6589
  150MOL   C22648204   4.840   6.457   1.933 -0.4552  1.0666 -0.5981
  150MOL   C22748205   4.942   6.548   2.000  0.2921  0.2589  0.0422
  150MOL   C22848206   4.906   6.341   1.848  0.4999 -0.0943 -0.1584
  150MOL   C22948207   4.917   6.216   1.936 -0.5603 -0.1049  0.4599
  150MOL   C23048208   5.028   6.201   2.039 -0.0802  0.0658  0.3853
  150MOL   C23148209   4.827   6.117   1.922  0.2129 -0.3521 -0.5275
  150MOL   H23248210   4.793   6.391   2.005 -0.2006 -1.6315 -2.8330
  150MOL   H23348211   5.015   6.484   2.050 -0.4443 -0.1292  0.6382
  150MOL   H23448212   4.901   6.606   2.083 -1.3577  1.0456 -1.3214
  150MOL   H23548213   5.005   6.613   1.939  1.7151 -3.8280 -3.0643
  150MOL   H23648214   4.843   6.331   1.759 -1.7121  4.1135  0.7952
  150MOL   H23748215   5.005   6.271   2.120 -1.3648  1.2341 -0.9629
  150MOL   H23848216   5.121   6.220   1.984 -0.8198 -2.3301 -1.7467
  150MOL   H23948217   5.038   6.100   2.078  1.2800 -0.0477 -0.2008
  150MOL   H24048218   4.749   6.125   1.848  0.2391 -0.9012 -0.6193
  150MOL   H24148219   4.831   6.028   1.983 -1.9145 -1.9826 -2.6831
  150MOL   C24248220   5.037   6.377   1.769 -0.3400 -0.0881  0.2578
  150MOL   C24348221   5.038   6.510   1.688  0.0227  0.1730  0.6507
  150MOL   C24448222   5.098   6.256   1.692  0.2783  0.0149 -0.5122
  150MOL   C24548223   5.247   6.247   1.730 -0.2083 -0.1201 -0.7656
  150MOL   C24648224   5.330   6.362   1.683  0.1498  0.7358 -0.4244
  150MOL   C24748225   5.295   6.136   1.793  0.3179  0.1918  1.1319
  150MOL   H24848226   5.099   6.396   1.857 -0.6544 -0.9464  0.6752
  150MOL   H24948227   5.117   6.564   1.739  1.0755 -0.6473 -0.0913
  150MOL   H25048228   4.946   6.568   1.676 -0.2249 -0.4074 -0.3342
  150MOL   H25148229   5.077   6.506   1.587 -2.6346 -1.5331 -0.3751
  150MOL   H25248230   5.066   6.163   1.738  0.4165 -0.1838 -0.8131
  150MOL   H25348231   5.436   6.344   1.698 -0.7277 -3.4530  1.3048
  150MOL   H25448232   5.311   6.450   1.745  0.3036  1.5005 -1.4417
  150MOL   H25548233   5.313   6.389   1.579 -0.9317 -1.2697 -0.7799
  150MOL   H25648234   5.226   6.057   1.818 -2.5811  2.7665  1.6505
  150MOL   H25748235   5.401   6.127   1.810  0.6618  2.6710  0.5827
  150MOL   C25848236   5.073   6.239   1.542 -0.1460  0.3823  0.4203
  150MOL   C25948237   4.943   6.295   1.482  0.1854 -0.0063 -0.4148
  150MOL   C26048238   5.116   6.089   1.493  0.3576 -0.8548  0.0470
  150MOL   C26148239   5.196   6.102   1.362 -0.8593  0.3253  0.1294
  150MOL   C26248240   5.132   6.176   1.244  0.0181 -0.2803  0.3601
  150MOL   C26348241   5.315   6.047   1.348  0.6610  0.1163 -0.0517
  150MOL   H26448242   5.149   6.300   1.493  2.3547 -2.9439 -0.0337
  150MOL   H26548243   4.970   6.383   1.424  2.0462  2.5605  4.1192
  150MOL   H26648244   4.874   6.317   1.564 -1.1253 -0.4178 -1.3821
  150MOL   H26748245   4.890   6.217   1.427  1.5522  0.4792 -2.4695
  150MOL   H26848246   5.175   6.039   1.569 -0.0101 -1.1382  0.1442
  150MOL   H26948247   5.187   6.166   1.150  1.9697  2.1300  1.1905
  150MOL   H27048248   5.133   6.284   1.248  0.8237 -0.2695  0.1116
  150MOL   H27148249   5.030   6.146   1.222 -0.6714  3.0934 -1.2525
  150MOL   H27248250   5.366   5.986   1.421  2.6290  3.3453  1.3626
  150MOL   H27348251   5.369   6.076   1.259 -0.2992  4.5888  0.6887
  150MOL   C27448252   5.005   5.979   1.489  0.6306  0.1883 -0.3798
  150MOL   C27548253   4.917   5.980   1.612  0.5334  0.5917 -0.1935
  150MOL   C27648254   5.047   5.837   1.445 -0.3145  0.0935  0.1985
  150MOL   C27748255   4.946   5.755   1.357 -0.1240  0.0865  0.1024
  150MOL   C27848256   5.012   5.706   1.226  0.1242  0.0405  0.2694
  150MOL   C27948257   4.810   5.746   1.366 -0.3952  0.6393 -0.1377
  150MOL   H28048258   4.936   6.005   1.408  2.2317  3.0566 -0.9032
  150MOL   H28148259   4.834   5.914   1.590  0.1561  0.9337  0.1900
  150MOL   H28248260   4.867   6.073   1.639 -0.3556  0.0275  0.0995
  150MOL   H28348261   4.957   5.937   1.704  0.7889  1.0237 -0.0981
  150MOL   H28448262   5.127   5.856   1.373  1.1777 -0.7511  1.6101
  150MOL   H28548263   4.945   5.684   1.143  0.1219  1.4879 -0.1380
  150MOL   H28648264   5.056   5.608   1.242  1.6697  0.9757  1.8718
  150MOL   H28748265   5.085   5.775   1.184  3.6574 -3.8111 -0.2023
  150MOL   H28848266   4.761   5.781   1.456  0.9515  0.0362  0.8499
  150MOL   H28948267   4.738   5.717   1.291 -1.9973  0.8521  1.2666
  150MOL   C29048268   5.112   5.734   1.543  0.7795 -0.9229  0.2372
  150MOL   C29148269   5.200   5.634   1.471 -0.3947 -0.3155 -0.1487
  150MOL   C29248270   5.022   5.660   1.654 -0.2908  0.1170  0.6579
  150MOL   C29348271   5.070   5.649   1.800  0.3249 -0.0837  0.6624
  150MOL   C29448272   4.965   5.677   1.906  0.2286 -0.1812 -0.1145
  150MOL   C29548273   5.186   5.613   1.845  0.4078  0.1917 -0.1090
  150MOL   H29648274   5.174   5.795   1.608  0.6346 -1.4271  0.8500
  150MOL   H29748275   5.146   5.556   1.418  1.0763 -1.1088 -0.5023
  150MOL   H29848276   5.271   5.587   1.538 -0.3257 -1.7829 -1.2322
  150MOL   H29948277   5.257   5.690   1.397 -1.7757  0.7398 -0.4421
  150MOL   H30048278   4.938   5.729   1.655  0.6129  1.2276  0.8127
  150MOL   H30148279   4.956   5.588   1.969  2.2745 -1.9990 -2.3024
  150MOL   H30248280   4.867   5.695   1.862 -0.4220 -0.1302  1.3177
  150MOL   H30348281   4.987   5.767   1.963  2.1276  0.3093 -1.5700
  150MOL   H30448282   5.272   5.591   1.785 -1.9845 -2.9621 -2.6060
  150MOL   H30548283   5.200   5.596   1.951 -1.8471 -0.8987  0.0540
  150MOL   C30648284   4.963   5.519   1.612 -0.2050 -0.5719  0.3990
  150MOL   C30748285   4.815   5.504   1.656 -0.3863 -0.3928 -0.1799
  150MOL   C30848286   5.033   5.390   1.661  0.2307 -0.1250 -0.2598
  150MOL   C30948287   4.995   5.260   1.579 -0.5223  0.0190 -0.3145
  150MOL   C31048288   5.019   5.257   1.432 -0.3854 -0.2100  0.1390
  150MOL   C31148289   4.929   5.160   1.645 -0.3056 -0.3610 -0.3818
  150MOL   H31248290   4.950   5.517   1.503 -1.5843  0.4187  0.5173
  150MOL   H31348291   4.755   5.588   1.619 -0.3141 -0.1134  0.3390
  150MOL   H31448292   4.792   5.498   1.762 -0.5083  1.3549 -0.0933
  150MOL   H31548293   4.768   5.421   1.603 -1.2401 -1.0755  1.6320
  150MOL   H31648294   5.139   5.416   1.661  0.3924 -0.7769 -0.5165
  150MOL   H31748295   4.929   5.308   1.398 -0.0620 -0.6007 -1.3466
  150MOL   H31848296   5.027   5.153   1.401  1.0922  0.3899 -1.6712
  150MOL   H31948297   5.106   5.316   1.401 -1.8550  0.9720 -1.8682
  150MOL   H32048298   4.900   5.177   1.748 -1.7003 -2.3487 -0.4162
  150MOL   H32148299   4.900   5.067   1.598 -0.7251  0.7003 -2.2367
  150MOL   H32248300   5.010   5.363   1.764  1.5387 -0.5954 -0.0815
  151MOL     C148301   5.131   5.821   4.904  0.3770 -0.3239  0.0187
  151MOL     C248302   5.053   5.949   4.916 -0.0331 -1.5377 -0.5573
  151MOL     C348303   5.049   5.698   4.953  0.2755 -0.0296  0.6738
  151MOL     C448304   5.008   5.696   5.102  0.1941  0.4190  0.8083
  151MOL     C548305   4.893   5.615   5.147 -0.1065  0.5102 -0.0129
  151MOL     C648306   5.082   5.760   5.199 -0.2950 -0.8025  0.5146
  151MOL     H748307   5.159   5.809   4.799 -2.2037  1.1598 -0.8860
  151MOL     H848308   4.953   5.933   4.876 -0.3094 -1.0023 -0.0890
  151MOL     H948309   5.100   6.027   4.857  0.3577 -0.9239  0.5682
  151MOL    H1048310   5.044   5.979   5.020  1.1651 -2.9174 -0.0388
  151MOL    H1148311   4.953   5.701   4.901 -0.1015  0.7488  1.4089
  151MOL    H1248312   4.808   5.601   5.079 -1.1679 -2.0873  1.7468
  151MOL    H1348313   4.852   5.657   5.238 -0.0070  1.7277 -0.5298
  151MOL    H1448314   4.937   5.518   5.174 -0.4228 -0.1551 -1.7884
  151MOL    H1548315   5.178   5.806   5.186 -1.2919  1.7264  1.8913
  151MOL    H1648316   5.051   5.756   5.302  2.9550  1.1229  1.6284
  151MOL    H1748317   5.223   5.830   4.961 -0.3200 -0.2311  1.1465
  151MOL    C1848318   5.121   5.565   4.917  0.3216  1.1239 -0.4099
  151MOL    C1948319   5.258   5.551   4.989 -0.0374 -0.6355  0.6464
  151MOL    C2048320   5.127   5.539   4.763 -0.6203 -0.0167  0.2793
  151MOL    C2148321   4.995   5.557   4.690  0.4693  0.3735 -0.6074
  151MOL    C2248322   4.874   5.481   4.734  0.1577 -0.3127  0.9320
  151MOL    C2348323   4.990   5.636   4.582  0.4289  0.9141 -0.4346
  151MOL    H2448324   5.062   5.480   4.950  1.2171 -0.0314 -1.7161
  151MOL    H2548325   5.264   5.558   5.097 -1.2948  0.0638  0.6742
  151MOL    H2648326   5.323   5.633   4.960  2.2519 -2.6681 -0.2010
  151MOL    H2748327   5.303   5.457   4.956 -0.9265 -0.0942 -2.3021
  151MOL    H2848328   5.180   5.628   4.728  1.2733 -0.1166  2.7850
  151MOL    H2948329   4.792   5.508   4.668 -1.1782 -1.3583  2.1300
  151MOL    H3048330   4.841   5.508   4.835  0.8061  2.1084  0.5123
  151MOL    H3148331   4.892   5.373   4.733 -1.1886 -0.5529  1.2998
  151MOL    H3248332   5.079   5.689   4.551  1.2202  0.0017  0.2594
  151MOL    H3348333   4.910   5.653   4.511 -0.3639 -0.5165  0.0946
  151MOL    C3448334   5.198   5.417   4.697  0.0282 -0.2219 -0.0320
  151MOL    C3548335   5.171   5.291   4.781  0.4288 -0.5651  0.0711
  151MOL    C3648336   5.353   5.425   4.681 -0.2746 -0.6392 -0.1157
  151MOL    C3748337   5.417   5.560   4.645 -0.3713  0.6449  0.9107
  151MOL    C3848338   5.362   5.628   4.520  0.8915  0.5071  0.3911
  151MOL    C3948339   5.516   5.624   4.711 -0.0950 -0.1221 -0.4268
  151MOL    H4048340   5.158   5.404   4.597 -0.5426  0.4704  0.1044
  151MOL    H4148341   5.072   5.288   4.826  0.3506 -1.0982 -0.1335
  151MOL    H4248342   5.234   5.278   4.869  0.5472  3.3702  0.6368
  151MOL    H4348343   5.168   5.194   4.731  1.5858 -0.0851 -0.9544
  151MOL    H4448344   5.378   5.408   4.786 -1.9292 -0.8351  0.2532
  151MOL    H4548345   5.257   5.601   4.507  1.1787 -0.7149  0.5075
  151MOL    H4648346   5.418   5.601   4.430  1.4765  0.9311  0.6280
  151MOL    H4748347   5.364   5.736   4.534 -0.4367  0.7690 -1.2853
  151MOL    H4848348   5.562   5.586   4.802  2.7824  1.2261 -1.2794
  151MOL    H4948349   5.552   5.720   4.679  0.1230 -0.0717 -0.0395
  151MOL    C5048350   5.430   5.312   4.604 -0.2185  0.3625 -0.3862
  151MOL    C5148351   5.343   5.259   4.487  0.5126 -0.3143  0.5771
  151MOL    C5248352   5.495   5.193   4.694  0.1820 -0.4816 -0.0059
  151MOL    C5348353   5.571   5.256   4.814 -0.2518 -0.2539  0.5080
  151MOL    C5448354   5.700   5.321   4.775  0.5172 -0.5531 -0.5340
  151MOL    C5548355   5.532   5.240   4.944  0.2406 -1.0907 -0.1937
  151MOL    H5648356   5.518   5.352   4.553  0.3081  0.7107  0.7782
  151MOL    H5748357   5.265   5.188   4.514 -0.2196  0.5052  0.6452
  151MOL    H5848358   5.400   5.195   4.420  1.4619 -0.2211  1.2852
  151MOL    H5948359   5.303   5.329   4.414  0.6949  0.1314  0.9039
  151MOL    H6048360   5.406   5.138   4.725 -0.3466  0.4637  0.1613
  151MOL    H6148361   5.768   5.243   4.740 -0.4585 -1.7402  0.1627
  151MOL    H6248362   5.743   5.369   4.862  2.2169 -0.5000 -1.3716
  151MOL    H6348363   5.692   5.392   4.692  0.4169 -1.0175 -0.9266
  151MOL    H6448364   5.440   5.191   4.973 -1.3207  1.2324 -1.1541
  151MOL    H6548365   5.602   5.265   5.023  1.7956  0.2164 -1.9614
  151MOL    C6648366   5.569   5.079   4.619  0.0535  0.0656  0.0034
  151MOL    C6748367   5.661   5.140   4.504 -0.1008  0.6083  0.2368
  151MOL    C6848368   5.480   4.952   4.575  0.1167 -0.1596  0.1198
  151MOL    C6948369   5.418   4.895   4.702 -0.9783 -0.4808 -0.3158
  151MOL    C7048370   5.267   4.863   4.693 -0.6197  0.5262  0.2502
  151MOL    C7148371   5.480   4.889   4.825  0.3839 -0.3474  0.6370
  151MOL    H7248372   5.645   5.046   4.689 -0.1674  0.3156  0.3659
  151MOL    H7348373   5.734   5.212   4.542 -0.0990 -0.2082  1.8177
  151MOL    H7448374   5.599   5.205   4.442 -0.4895 -0.4979 -0.5576
  151MOL    H7548375   5.719   5.067   4.448  0.7904  0.4439  1.3818
  151MOL    H7648376   5.399   4.995   4.516  1.4384  1.8392 -0.2866
  151MOL    H7748377   5.264   4.766   4.643 -1.2921  0.7632 -0.1757
  151MOL    H7848378   5.215   4.945   4.643 -0.4380  0.5027  0.0204
  151MOL    H7948379   5.228   4.844   4.792 -2.0495  2.2905  0.0532
  151MOL    H8048380   5.583   4.919   4.830  0.0173  0.9158  0.6555
  151MOL    H8148381   5.425   4.856   4.912 -2.1876 -0.7012 -1.0725
  151MOL    C8248382   5.547   4.843   4.490 -0.1682 -0.3050 -0.4875
  151MOL    C8348383   5.694   4.812   4.537  0.7260 -0.2408 -0.3450
  151MOL    C8448384   5.524   4.865   4.339  0.8626  1.1984 -0.7970
  151MOL    C8548385   5.382   4.869   4.293  0.0929 -0.4924 -0.2971
  151MOL    C8648386   5.355   4.966   4.179  0.2672 -1.0230 -0.4141
  151MOL    C8748387   5.285   4.786   4.342  0.4037  0.0973 -0.4787
  151MOL    H8848388   5.489   4.756   4.520 -1.9908  0.0885 -2.7068
  151MOL    H8948389   5.718   4.717   4.490  0.2783 -0.0126 -1.0461
  151MOL    H9048390   5.692   4.794   4.645  1.2371  1.3391 -0.0524
  151MOL    H9148391   5.778   4.882   4.528 -0.9109  1.9098  0.4984
  151MOL    H9248392   5.568   4.965   4.331 -1.0017  2.0910 -0.2400
  151MOL    H9348393   5.405   4.927   4.090 -1.5637  0.9488 -2.3529
  151MOL    H9448394   5.405   5.055   4.216 -0.2022 -1.0048  0.1833
  151MOL    H9548395   5.253   5.002   4.165  0.8178  0.9691  0.5357
  151MOL    H9648396   5.295   4.713   4.421 -2.3237 -0.0034 -0.1968
  151MOL    H9748397   5.185   4.790   4.301  0.2070 -0.0631 -0.0109
  151MOL    C9848398   5.612   4.774   4.242  0.2332 -0.7403 -0.5562
  151MOL    C9948399   5.590   4.625   4.258 -0.0260 -0.1549 -0.7514
  151MOL   C10048400   5.755   4.828   4.218  0.0729 -0.5918 -0.1936
  151MOL   C10148401   5.758   4.975   4.165  0.3006  0.0250  0.0463
  151MOL   C10248402   5.876   5.058   4.214  0.1042 -0.1439  0.2540
  151MOL   C10348403   5.680   5.026   4.067 -0.1011 -0.3415  0.1839
  151MOL   H10448404   5.565   4.794   4.145  1.9422 -1.7159 -1.6214
  151MOL   H10548405   5.612   4.595   4.360 -1.6399  1.3649  0.0802
  151MOL   H10648406   5.637   4.562   4.182 -0.6884 -1.8508  0.2324
  151MOL   H10748407   5.483   4.607   4.264 -0.0591  0.5812  1.0182
  151MOL   H10848408   5.797   4.841   4.318 -0.1761 -0.5747 -0.0908
  151MOL   H10948409   5.969   5.046   4.159 -1.5691 -1.4126 -2.3822
  151MOL   H11048410   5.906   5.042   4.317 -0.4556 -3.2603 -0.0245
  151MOL   H11148411   5.841   5.161   4.208 -0.6621 -0.3869  0.5244
  151MOL   H11248412   5.599   4.977   4.016 -0.5998  1.7492 -1.1065
  151MOL   H11348413   5.709   5.125   4.034  1.4148 -0.3355  1.4664
  151MOL   C11448414   5.853   4.749   4.129  0.2956 -0.5180 -0.1281
  151MOL   C11548415   5.791   4.695   3.999  0.3868 -0.0206  0.7930
  151MOL   C11648416   5.945   4.637   4.191 -0.0138  0.2148 -0.9733
  151MOL   C11748417   5.964   4.641   4.340 -0.9643 -0.0260  0.5344
  151MOL   C11848418   6.056   4.744   4.391 -0.4507  0.3803  0.3034
  151MOL   C11948419   5.915   4.545   4.423 -0.0482 -0.1390 -0.3235
  151MOL   H12048420   5.919   4.826   4.088  1.0973 -0.3661  1.3948
  151MOL   H12148421   5.874   4.682   3.930  1.8082  0.4072  2.3887
  151MOL   H12248422   5.727   4.768   3.950  1.6445  0.5972  0.0406
  151MOL   H12348423   5.733   4.602   4.002  2.1235 -1.0857  2.1720
  151MOL   H12448424   5.874   4.555   4.185  0.7743 -0.5268 -0.2470
  151MOL   H12548425   6.157   4.736   4.349 -0.8222 -0.0198 -0.5232
  151MOL   H12648426   6.070   4.730   4.499  0.6465  0.1741  0.1442
  151MOL   H12748427   6.031   4.848   4.372 -2.8283 -0.3548 -0.7991
  151MOL   H12848428   5.848   4.468   4.388  0.6780 -0.2794 -1.4216
  151MOL   H12948429   5.947   4.540   4.526 -1.6506  1.1862  0.2734
  151MOL   C13048430   6.086   4.603   4.113 -0.2199 -1.0649  0.1854
  151MOL   C13148431   6.158   4.731   4.065  0.1257 -0.1101  0.4205
  151MOL   C13248432   6.074   4.482   4.004 -0.3208  0.0337  0.7559
  151MOL   C13348433   6.030   4.347   4.067 -0.1332  0.1633  0.3755
  151MOL   C13448434   5.936   4.272   3.970 -0.3327  0.6419 -0.8961
  151MOL   C13548435   6.050   4.302   4.189 -0.2028 -0.0376 -0.6041
  151MOL   H13648436   6.150   4.552   4.185 -0.6868 -0.0449  1.3353
  151MOL   H13748437   6.148   4.807   4.142 -0.9907 -2.5065  2.7168
  151MOL   H13848438   6.107   4.764   3.974  2.6864 -1.4870 -1.6024
  151MOL   H13948439   6.260   4.705   4.039 -0.0703  0.0008 -0.4710
  151MOL   H14048440   5.983   4.511   3.951 -0.4874 -1.4607  0.2071
  151MOL   H14148441   5.840   4.320   3.958  0.1960  1.9792  0.0500
  151MOL   H14248442   5.932   4.168   4.004 -1.8968  0.0947 -2.7162
  151MOL   H14348443   5.986   4.259   3.874  0.5804 -1.2634 -0.2016
  151MOL   H14448444   6.120   4.355   4.251  0.8278 -2.4445  0.3665
  151MOL   H14548445   5.999   4.211   4.218 -1.3249  0.0271 -2.2860
  151MOL   C14648446   6.188   4.455   3.901 -0.1118 -0.4924 -0.0536
  151MOL   C14748447   6.319   4.430   3.975 -0.3425 -0.0414 -0.4160
  151MOL   C14848448   6.201   4.559   3.786  0.0030 -0.1450  0.5168
  151MOL   C14948449   6.066   4.618   3.733 -0.3796 -0.5357  0.5263
  151MOL   C15048450   6.071   4.765   3.706  0.1542 -0.3860  0.1745
  151MOL   C15148451   5.962   4.548   3.698  0.3177  0.4740 -0.1110
  151MOL   H15248452   6.166   4.359   3.853 -4.0659  0.0286  0.5226
  151MOL   H15348453   6.394   4.375   3.918 -1.6522 -0.8678 -1.3641
  151MOL   H15448454   6.302   4.363   4.059  1.8835 -1.2931 -0.9136
  151MOL   H15548455   6.364   4.523   4.011 -0.8404 -0.5974  1.6691
  151MOL   H15648456   6.250   4.647   3.828 -1.7913  1.3306 -0.3835
  151MOL   H15748457   6.060   4.791   3.601  0.1950 -0.2997  0.1918
  151MOL   H15848458   6.165   4.808   3.740 -2.0427  2.7221  2.5709
  151MOL   H15948459   5.989   4.826   3.744 -0.0032 -1.1934  1.1468
  151MOL   H16048460   5.961   4.443   3.721  1.2159  1.0624  2.9000
  151MOL   H16148461   5.890   4.598   3.635 -0.1638 -0.0804  0.0005
  151MOL   C16248462   6.299   4.515   3.671  0.3396  0.1785 -0.4862
  151MOL   C16348463   6.270   4.375   3.621 -0.1084 -0.0402 -0.2156
  151MOL   C16448464   6.453   4.541   3.679 -0.5201 -0.4993 -0.4870
  151MOL   C16548465   6.499   4.661   3.756  0.5651 -0.1233 -0.2190
  151MOL   C16648466   6.604   4.642   3.866 -0.8153  0.0700 -0.0301
  151MOL   C16748467   6.452   4.778   3.717 -0.4150 -0.3051  0.1897
  151MOL   H16848468   6.273   4.580   3.587  0.5216  0.5475 -0.2589
  151MOL   H16948469   6.163   4.352   3.612 -0.5107  1.2091  1.2382
  151MOL   H17048470   6.303   4.292   3.684  0.4422 -0.0966 -0.5743
  151MOL   H17148471   6.315   4.351   3.524  0.0519 -1.7860  0.2690
  151MOL   H17248472   6.481   4.458   3.745  1.0682  1.3683  1.2756
  151MOL   H17348473   6.585   4.579   3.953  2.5572  0.2433  0.9214
  151MOL   H17448474   6.640   4.739   3.900 -1.1026  0.4546 -0.8290
  151MOL   H17548475   6.693   4.603   3.816 -1.3041 -0.6757 -0.3192
  151MOL   H17648476   6.390   4.794   3.630  0.7413  1.1863 -0.3886
  151MOL   H17748477   6.478   4.870   3.767  2.2828 -1.7236  1.5163
  151MOL   C17848478   6.538   4.534   3.550  0.4803  0.0857  0.1322
  151MOL   C17948479   6.453   4.590   3.432 -0.9942 -0.6406  1.3971
  151MOL   C18048480   6.615   4.394   3.517  1.1643 -0.5287 -0.0427
  151MOL   C18148481   6.678   4.321   3.632 -0.6201  0.0014 -0.1274
  151MOL   C18248482   6.627   4.181   3.657  0.0394 -0.3793  0.4057
  151MOL   C18348483   6.786   4.371   3.700 -0.4702 -0.6551 -0.4812
  151MOL   H18448484   6.626   4.595   3.571  1.8972 -1.6924 -0.4338
  151MOL   H18548485   6.400   4.682   3.456  1.1707  0.7146  1.1043
  151MOL   H18648486   6.387   4.512   3.394  1.4143 -1.3985 -1.4262
  151MOL   H18748487   6.504   4.614   3.338 -2.2140  0.1134  0.9071
  151MOL   H18848488   6.525   4.335   3.500  0.0292  1.1935 -0.1674
  151MOL   H18948489   6.649   4.127   3.565  1.2220  0.0141  0.4528
  151MOL   H19048490   6.518   4.179   3.667 -0.0971 -2.5206 -1.0690
  151MOL   H19148491   6.664   4.149   3.754 -1.9854  0.0752  1.3548
  151MOL   H19248492   6.825   4.471   3.689 -0.0253 -0.5781  1.5697
  151MOL   H19348493   6.826   4.316   3.783 -0.0171  1.3367  0.6649
  151MOL   C19448494   6.697   4.396   3.386  0.2439  0.3435 -0.3435
  151MOL   C19548495   6.785   4.519   3.375  0.0906  0.5019  0.0424
  151MOL   C19648496   6.619   4.343   3.260 -1.2249 -0.1384 -0.7990
  151MOL   C19748497   6.590   4.197   3.275  0.1041  0.0626 -0.3174
  151MOL   C19848498   6.710   4.103   3.268 -0.2129 -0.2668  0.0424
  151MOL   C19948499   6.467   4.140   3.275 -0.1746  0.0712 -0.2559
  151MOL   H20048500   6.774   4.321   3.404 -0.8139  0.0233  3.2911
  151MOL   H20148501   6.830   4.550   3.469 -1.3324  2.0445  0.2470
  151MOL   H20248502   6.732   4.611   3.351  0.5554  0.6011 -0.6096
  151MOL   H20348503   6.856   4.499   3.295  1.5012  1.0049  1.1505
  151MOL   H20448504   6.521   4.391   3.255 -0.1885  2.1587  0.0255
  151MOL   H20548505   6.717   4.048   3.175 -0.1527  2.3907 -1.5744
  151MOL   H20648506   6.699   4.023   3.341  0.6891 -0.4449 -0.0130
  151MOL   H20748507   6.807   4.149   3.287  0.4122 -1.3300 -0.5511
  151MOL   H20848508   6.377   4.199   3.279 -1.0253 -1.2331  0.3355
  151MOL   H20948509   6.449   4.034   3.270  2.8081 -0.4643 -0.8149
  151MOL   C21048510   6.685   4.376   3.118 -0.6219  0.2170 -0.6437
  151MOL   C21148511   6.648   4.524   3.084  0.1192 -0.2561 -0.3440
  151MOL   C21248512   6.668   4.276   2.997 -0.0944  0.4583  0.8438
  151MOL   C21348513   6.802   4.265   2.932 -0.3767 -1.0422  0.7244
  151MOL   C21448514   6.900   4.152   2.985 -0.2788  0.0946 -0.2211
  151MOL   C21548515   6.848   4.365   2.855 -0.5584 -0.8514 -0.0996
  151MOL   H21648516   6.790   4.370   3.146 -1.2665  1.3518  2.1330
  151MOL   H21748517   6.714   4.561   3.005 -0.0368 -1.6688 -1.1644
  151MOL   H21848518   6.657   4.595   3.166 -0.8923 -2.1547  1.4696
  151MOL   H21948519   6.544   4.538   3.055  0.5336 -0.0207 -1.7706
  151MOL   H22048520   6.641   4.180   3.039  2.3633 -1.1399 -1.1013
  151MOL   H22148521   6.933   4.181   3.085  1.8672 -2.6139 -0.0870
  151MOL   H22248522   6.992   4.140   2.929 -0.6981  0.6514 -1.0376
  151MOL   H22348523   6.854   4.053   2.993 -0.4535  0.2776  1.1001
  151MOL   H22448524   6.787   4.451   2.834  1.7975  1.1427  0.9939
  151MOL   H22548525   6.947   4.348   2.816  0.2363  1.7859  0.6416
  151MOL   C22648526   6.539   4.300   2.904  0.2876  0.1565  0.0860
  151MOL   C22748527   6.400   4.293   2.976  0.1084 -0.3544 -0.0430
  151MOL   C22848528   6.527   4.206   2.768  0.3911 -0.3880 -0.1972
  151MOL   C22948529   6.472   4.055   2.782 -0.3345 -0.1651  0.0562
  151MOL   C23048530   6.537   3.960   2.883  0.2314  0.0742  0.3254
  151MOL   C23148531   6.360   4.015   2.720  0.3198 -0.1703  1.3416
  151MOL   H23248532   6.540   4.407   2.881 -0.4245  0.1305 -0.0989
  151MOL   H23348533   6.325   4.320   2.902  0.6051  1.1310 -0.0242
  151MOL   H23448534   6.400   4.357   3.064 -1.4403  1.7512 -1.5214
  151MOL   H23548535   6.360   4.201   3.019  1.6771 -0.7865  0.5272
  151MOL   H23648536   6.437   4.250   2.725  1.4851  0.8212 -1.3077
  151MOL   H23748537   6.520   4.001   2.982 -2.2476 -0.4055  0.1195
  151MOL   H23848538   6.645   3.943   2.887  0.4493  1.1854 -0.4627
  151MOL   H23948539   6.495   3.859   2.884 -0.7869  0.5005  1.3518
  151MOL   H24048540   6.312   4.081   2.650  3.4795 -0.7875 -1.5185
  151MOL   H24148541   6.305   3.922   2.731 -1.3823  0.3520 -2.1505
  151MOL   C24248542   6.631   4.222   2.644  0.5350  0.0500 -0.4008
  151MOL   C24348543   6.615   4.369   2.593 -0.0993 -0.2760 -0.1053
  151MOL   C24448544   6.634   4.101   2.538 -0.4970  0.2829  0.2038
  151MOL   C24548545   6.706   3.971   2.596  0.8095 -0.0735  0.6900
  151MOL   C24648546   6.843   3.973   2.648  0.2641 -0.4796  0.2260
  151MOL   C24748547   6.648   3.848   2.587  0.2357 -0.4533  0.2402
  151MOL   H24848548   6.737   4.227   2.673  0.5167  1.2070 -0.5071
  151MOL   H24948549   6.635   4.444   2.668  5.6487 -1.1872 -0.5209
  151MOL   H25048550   6.515   4.394   2.556 -1.1134 -3.5247  0.2086
  151MOL   H25148551   6.681   4.377   2.507 -0.4177 -1.4399 -0.4754
  151MOL   H25248552   6.531   4.069   2.520 -1.2282  1.7991  1.6051
  151MOL   H25348553   6.904   3.958   2.560  0.6909  1.1099  0.2349
  151MOL   H25448554   6.864   3.890   2.716 -0.3470 -1.5019 -0.8238
  151MOL   H25548555   6.874   4.063   2.700  2.1903  0.1484 -1.9664
  151MOL   H25648556   6.546   3.834   2.554  0.0835  0.6782  0.1971
  151MOL   H25748557   6.708   3.766   2.623  0.3981 -0.0454  0.9130
  151MOL   C25848558   6.690   4.127   2.396 -0.2416  0.5716 -0.4654
  151MOL   C25948559   6.837   4.186   2.414  0.3906  0.0831 -0.3309
  151MOL   C26048560   6.588   4.188   2.293  0.3965 -0.5438 -0.3164
  151MOL   C26148561   6.478   4.096   2.257  0.0318 -0.3175  0.2409
  151MOL   C26248562   6.506   3.960   2.201 -0.5399  0.6169  1.0335
  151MOL   C26348563   6.350   4.122   2.292  0.2284 -0.2101  0.0945
  151MOL   H26448564   6.718   4.029   2.359 -0.1219 -1.1879  3.9110
  151MOL   H26548565   6.838   4.291   2.385 -1.9201 -0.3657 -2.1780
  151MOL   H26648566   6.911   4.147   2.343 -0.9134 -0.3990 -1.4510
  151MOL   H26748567   6.878   4.177   2.514 -1.9005 -0.4187  0.5905
  151MOL   H26848568   6.543   4.276   2.340  1.2387 -0.3833  0.2049
  151MOL   H26948569   6.561   3.898   2.272  0.3381  0.6863  0.4159
  151MOL   H27048570   6.550   3.981   2.104 -0.6806 -0.5757  0.7054
  151MOL   H27148571   6.420   3.896   2.180  0.0626 -0.2241  1.0903
  151MOL   H27248572   6.328   4.219   2.333 -1.5375 -0.3145 -0.5597
  151MOL   H27348573   6.270   4.051   2.276 -2.1557  2.5757 -0.7673
  151MOL   C27448574   6.651   4.258   2.167  0.4907 -0.0942  0.0905
  151MOL   C27548575   6.777   4.185   2.111 -0.3444 -0.2343 -0.4078
  151MOL   C27648576   6.668   4.421   2.166 -0.1981  0.2944 -0.3050
  151MOL   C27748577   6.548   4.501   2.216  0.1396  0.4542 -0.1073
  151MOL   C27848578   6.420   4.484   2.136 -0.0032 -1.5181 -0.0749
  151MOL   C27948579   6.563   4.584   2.316 -0.1069 -0.2948  0.4454
  151MOL   H28048580   6.579   4.236   2.088  1.4493 -0.5937 -0.6669
  151MOL   H28148581   6.784   4.195   2.003  2.2204  2.0300 -0.0822
  151MOL   H28248582   6.778   4.078   2.136  0.8624 -0.0847  0.2144
  151MOL   H28348583   6.875   4.218   2.144 -0.9257 -0.7847  2.0237
  151MOL   H28448584   6.739   4.431   2.248  0.0433  0.2108 -0.5009
  151MOL   H28548585   6.398   4.381   2.108 -0.2185 -1.1010 -1.4880
  151MOL   H28648586   6.441   4.520   2.035  1.7135 -2.4965 -0.0887
  151MOL   H28748587   6.338   4.543   2.177  0.7953  1.6466 -2.8513
  151MOL   H28848588   6.661   4.610   2.354 -0.9614  1.4661  1.5116
  151MOL   H28948589   6.481   4.639   2.359  0.9906  1.7963 -0.0672
  151MOL   C29048590   6.727   4.486   2.038 -0.9718  0.3188 -0.0229
  151MOL   C29148591   6.655   4.442   1.900 -0.0324  0.1584 -0.4391
  151MOL   C29248592   6.878   4.490   2.030 -0.1656 -0.6750  0.8352
  151MOL   C29348593   6.937   4.541   2.166  0.1541  0.5191 -0.3839
  151MOL   C29448594   7.049   4.463   2.225 -0.0417  0.1202  0.1085
  151MOL   C29548595   6.896   4.651   2.234  0.5074  0.1110  0.3710
  151MOL   H29648596   6.700   4.590   2.056 -1.5094 -0.0402  1.3008
  151MOL   H29748597   6.650   4.518   1.822 -0.2523  2.7508  1.9994
  151MOL   H29848598   6.557   4.395   1.907  0.4920 -0.6664  1.6230
  151MOL   H29948599   6.701   4.350   1.864 -4.3541 -1.9780 -0.8738
  151MOL   H30048600   6.911   4.387   2.026 -1.5165 -1.0576 -1.6653
  151MOL   H30148601   7.123   4.434   2.151  1.0680 -1.4638  1.7794
  151MOL   H30248602   6.998   4.375   2.265  0.2698 -0.2551 -0.3196
  151MOL   H30348603   7.087   4.519   2.311 -0.8377  1.7269 -0.5783
  151MOL   H30448604   6.819   4.717   2.198  0.4926 -0.3554 -0.4734
  151MOL   H30548605   6.945   4.676   2.327  0.1978 -2.7268  1.3518
  151MOL   C30648606   6.944   4.565   1.904 -0.0564 -0.0175 -0.2704
  151MOL   C30748607   7.102   4.542   1.906 -0.8002  0.5492  0.0949
  151MOL   C30848608   6.908   4.705   1.891 -0.6020 -0.2797 -0.3532
  151MOL   C30948609   6.937   4.776   1.759  0.5211  0.3420 -0.3866
  151MOL   C31048610   6.995   4.908   1.770 -0.3454 -0.5779  0.4554
  151MOL   C31148611   6.901   4.725   1.643  0.4445  0.1634  0.3920
  151MOL   H31248612   6.906   4.503   1.823  2.7011 -1.2473 -0.6456
  151MOL   H31348613   7.152   4.605   1.979 -0.0860  0.7461 -0.5653
  151MOL   H31448614   7.142   4.573   1.809  1.2813 -0.3790  0.6281
  151MOL   H31548615   7.129   4.437   1.915 -1.2327  0.6116  2.5305
  151MOL   H31648616   6.801   4.712   1.910 -0.4587 -0.8838  0.7198
  151MOL   H31748617   7.005   4.951   1.671  1.5989 -0.3163  0.7423
  151MOL   H31848618   7.092   4.906   1.819 -0.3786  0.7529  0.5910
  151MOL   H31948619   6.933   4.967   1.838 -2.9248 -2.2573 -0.3681
  151MOL   H32048620   6.866   4.623   1.635 -1.0224  0.6436  0.5871
  151MOL   H32148621   6.911   4.784   1.553 -1.3956  1.6074  1.1015
  151MOL   H32248622   6.960   4.775   1.957  0.0942  1.0321 -2.2362
  152MOL     C148623   3.548   4.610   4.511  0.5231  0.6023  0.8562
  152MOL     C248624   3.446   4.543   4.601 -0.5290 -0.2483  0.1632
  152MOL     C348625   3.500   4.735   4.434 -0.1653  0.0438  0.3828
  152MOL     C448626   3.385   4.708   4.337 -0.4890 -0.6862 -0.3484
  152MOL     C548627   3.284   4.820   4.309 -0.4633  0.3972  0.0828
  152MOL     C648628   3.357   4.593   4.282 -0.3095  0.0747  0.0686
  152MOL     H748629   3.627   4.649   4.574 -0.0345 -0.3120  2.1542
  152MOL     H848630   3.357   4.510   4.548 -1.8273  0.0840  2.1090
  152MOL     H948631   3.409   4.611   4.678  1.2380  1.6762 -0.6205
  152MOL    H1048632   3.490   4.454   4.644  0.1686 -0.6647 -1.3604
  152MOL    H1148633   3.464   4.807   4.508 -1.2103 -0.1593  0.0739
  152MOL    H1248634   3.321   4.923   4.304 -2.4410  1.1565  0.6727
  152MOL    H1348635   3.211   4.819   4.389 -1.5376 -3.2892 -0.8680
  152MOL    H1448636   3.223   4.796   4.222  0.2786 -0.1366 -0.2997
  152MOL    H1548637   3.410   4.500   4.302  0.2386  0.4607  0.4418
  152MOL    H1648638   3.274   4.589   4.214  0.0615  1.1808 -0.4635
  152MOL    H1748639   3.587   4.535   4.441  0.0232 -0.9028  2.1508
  152MOL    C1848640   3.616   4.816   4.368  0.7563 -0.5586  0.0665
  152MOL    C1948641   3.670   4.732   4.251  0.0768 -0.8736 -0.1756
  152MOL    C2048642   3.726   4.876   4.457 -0.3082 -0.0923 -0.0308
  152MOL    C2148643   3.683   4.950   4.586  0.1202  0.6306  0.1360
  152MOL    C2248644   3.629   5.094   4.576  0.3507  1.4283 -0.3301
  152MOL    C2348645   3.705   4.888   4.703 -0.5337 -0.1553  0.2352
  152MOL    H2448646   3.561   4.893   4.313  0.8654 -0.1869  0.4806
  152MOL    H2548647   3.589   4.685   4.195  0.4180 -0.3340 -1.1334
  152MOL    H2648648   3.737   4.651   4.277  0.3696 -0.8593 -0.8727
  152MOL    H2748649   3.726   4.791   4.178 -0.4631  0.4478  0.4604
  152MOL    H2848650   3.766   4.779   4.486 -1.8312 -1.0396 -1.0075
  152MOL    H2948651   3.562   5.101   4.490 -1.5341 -0.6248  0.9189
  152MOL    H3048652   3.714   5.163   4.573  0.4423  1.3209 -0.2506
  152MOL    H3148653   3.588   5.127   4.671 -1.1611  1.0017 -0.8188
  152MOL    H3248654   3.743   4.787   4.709 -1.1283 -0.3423  0.8889
  152MOL    H3348655   3.679   4.933   4.798 -4.3722 -0.5919 -0.5368
  152MOL    C3448656   3.832   4.967   4.390 -0.3883  0.2880  0.4571
  152MOL    C3548657   3.775   5.063   4.285  0.2747 -0.0944  0.1495
  152MOL    C3648658   3.967   4.904   4.338 -0.0739  0.1011 -0.3425
  152MOL    C3748659   4.025   4.793   4.429 -0.3113 -0.6317 -0.2275
  152MOL    C3848660   4.078   4.675   4.350 -0.1977  0.1060 -0.5964
  152MOL    C3948661   4.004   4.783   4.561 -0.1010  0.1421  0.2203
  152MOL    H4048662   3.877   5.025   4.471  0.7980 -0.3170  0.2373
  152MOL    H4148663   3.825   5.160   4.287 -1.9434  1.1777 -2.0197
  152MOL    H4248664   3.666   5.076   4.284  0.5633  2.6284  0.0034
  152MOL    H4348665   3.799   5.028   4.185  0.7547  2.3266 -0.6118
  152MOL    H4448666   3.932   4.833   4.262 -2.5289 -1.3409  2.0387
  152MOL    H4548667   4.098   4.587   4.411  1.6438 -0.0723 -1.4362
  152MOL    H4648668   4.177   4.704   4.315 -0.2603 -0.4830 -1.2721
  152MOL    H4748669   4.019   4.647   4.263 -1.2877  0.1070  0.1285
  152MOL    H4848670   3.955   4.855   4.623  0.3040  0.4713  0.1589
  152MOL    H4948671   4.039   4.698   4.617 -1.0399 -0.5850 -0.2820
  152MOL    C5048672   4.080   5.008   4.294 -0.5886 -0.0546  0.9239
  152MOL    C5148673   4.148   4.956   4.168 -0.4732  0.2385 -0.3959
  152MOL    C5248674   4.188   5.054   4.413 -0.6887  0.5832 -0.4457
  152MOL    C5348675   4.129   5.113   4.542 -0.1897  0.0459 -0.1751
  152MOL    C5448676   4.035   5.230   4.537 -0.4923  0.9073  0.1704
  152MOL    C5548677   4.162   5.059   4.659  0.0897 -0.3576 -0.1065
  152MOL    H5648678   4.026   5.099   4.265  1.3938  0.0863 -2.5688
  152MOL    H5748679   4.213   4.872   4.190 -1.6341 -0.2290  1.3930
  152MOL    H5848680   4.203   5.032   4.112  0.4915  1.7797  2.4919
  152MOL    H5948681   4.071   4.902   4.113 -1.1407  1.2915 -0.5266
  152MOL    H6048682   4.237   4.959   4.434  1.0954  1.0007 -2.5149
  152MOL    H6148683   3.965   5.227   4.454  0.9904  1.7883 -1.1591
  152MOL    H6248684   4.083   5.328   4.530  0.2070  0.4474 -1.6166
  152MOL    H6348685   3.977   5.229   4.629  0.6443 -0.3707  0.8917
  152MOL    H6448686   4.219   4.970   4.676 -1.7911 -1.0905  2.5367
  152MOL    H6548687   4.119   5.097   4.750 -3.0162  0.2696 -1.7619
  152MOL    C6648688   4.313   5.145   4.366 -0.1514  0.2924  0.2514
  152MOL    C6748689   4.264   5.262   4.283 -0.4563  0.1931  0.0785
  152MOL    C6848690   4.437   5.069   4.307 -0.5663  0.1524  0.3460
  152MOL    C6948691   4.485   4.950   4.395 -0.0042  0.4781  0.5833
  152MOL    C7048692   4.532   4.826   4.320 -0.4783 -0.7920  0.2533
  152MOL    C7148693   4.487   4.952   4.535  0.0296 -0.1737 -0.0460
  152MOL    H7248694   4.352   5.200   4.452  1.4363 -1.4053  0.6418
  152MOL    H7348695   4.270   5.227   4.180 -0.8535  0.2410  0.0389
  152MOL    H7448696   4.325   5.353   4.286  0.3220 -0.3408  0.8280
  152MOL    H7548697   4.162   5.291   4.308 -0.6450  1.0579 -1.6238
  152MOL    H7648698   4.397   5.023   4.217  1.0077  1.4097 -1.0288
  152MOL    H7748699   4.583   4.753   4.384  0.0644 -0.5572  0.0915
  152MOL    H7848700   4.600   4.862   4.243 -0.0527 -1.7303  0.1843
  152MOL    H7948701   4.449   4.768   4.282  1.1039 -3.3271  0.5691
  152MOL    H8048702   4.448   5.037   4.590 -1.4663 -0.1272 -1.1372
  152MOL    H8148703   4.521   4.871   4.598  0.0667 -0.9217 -1.0153
  152MOL    C8248704   4.557   5.161   4.258 -0.4355 -0.3880 -0.2758
  152MOL    C8348705   4.574   5.141   4.107  0.2745 -0.1107  1.4439
  152MOL    C8448706   4.696   5.149   4.331 -0.2442  0.0641  0.3086
  152MOL    C8548707   4.683   5.178   4.480  0.3545 -0.9432  0.3133
  152MOL    C8648708   4.777   5.108   4.583 -0.7707 -0.2457  0.1754
  152MOL    C8748709   4.582   5.254   4.526 -0.6693 -0.4758  0.3777
  152MOL    H8848710   4.525   5.265   4.265 -1.3287 -0.6780  0.1424
  152MOL    H8948711   4.472   5.137   4.069 -0.0189  0.9007  2.0799
  152MOL    H9048712   4.609   5.041   4.080  1.3243  0.1200  1.9442
  152MOL    H9148713   4.631   5.215   4.052 -2.4245  1.8690  1.2206
  152MOL    H9248714   4.733   5.047   4.332  2.7495  1.0899  0.6547
  152MOL    H9348715   4.761   5.000   4.586 -0.2008 -0.3409 -0.1490
  152MOL    H9448716   4.762   5.148   4.683  3.1881 -1.5594  1.4031
  152MOL    H9548717   4.881   5.129   4.559 -0.1746  0.0691  2.8880
  152MOL    H9648718   4.518   5.312   4.461 -1.3090 -0.4170  1.0476
  152MOL    H9748719   4.576   5.269   4.633 -0.6675 -0.1063  0.3259
  152MOL    C9848720   4.813   5.246   4.278 -1.5464  0.2591 -0.2429
  152MOL    C9948721   4.757   5.384   4.252  0.4443  0.2981  0.4731
  152MOL   C10048722   4.899   5.177   4.171 -0.0932  0.7294  0.5652
  152MOL   C10148723   4.957   5.047   4.214 -0.9361  0.5423 -0.5795
  152MOL   C10248724   4.922   4.928   4.123 -0.6213  0.4810  0.2617
  152MOL   C10348725   5.013   5.017   4.334  0.1858  0.4422  0.0187
  152MOL   H10448726   4.885   5.250   4.360  0.3516  1.9130 -1.9366
  152MOL   H10548727   4.672   5.412   4.313 -0.4909 -0.3421 -0.5333
  152MOL   H10648728   4.721   5.401   4.150  1.0645 -0.3876  0.1278
  152MOL   H10748729   4.836   5.459   4.262  0.4907  0.6291 -1.9914
  152MOL   H10848730   4.824   5.142   4.101 -0.0027  1.7956 -0.0688
  152MOL   H10948731   4.963   4.944   4.024 -1.6168 -3.2975 -0.8291
  152MOL   H11048732   4.815   4.908   4.117 -0.1435 -1.7067 -1.2694
  152MOL   H11148733   4.973   4.836   4.152 -0.1340  1.1616  1.6317
  152MOL   H11248734   5.039   5.095   4.404 -1.9265  2.1301 -1.0154
  152MOL   H11348735   5.033   4.915   4.363 -1.7692 -0.0892 -0.4239
  152MOL   C11448736   5.012   5.266   4.102  0.6561 -0.2154 -0.0441
  152MOL   C11548737   5.104   5.332   4.210  0.0482 -0.1765  0.5403
  152MOL   C11648738   4.953   5.370   3.992  0.0680  0.6650  0.9780
  152MOL   C11748739   4.866   5.297   3.889  0.2794  0.5390  0.5259
  152MOL   C11848740   4.754   5.382   3.836  0.0394 -0.7739 -0.3237
  152MOL   C11948741   4.868   5.171   3.844  0.5735 -0.2231  0.5069
  152MOL   H12048742   5.086   5.200   4.056 -0.7012 -1.6578 -0.2091
  152MOL   H12148743   5.100   5.269   4.299  1.3536 -0.7191  0.2223
  152MOL   H12248744   5.060   5.423   4.250 -0.0793 -0.9127  2.1033
  152MOL   H12348745   5.204   5.355   4.173 -0.8594  0.1607 -1.7898
  152MOL   H12448746   4.890   5.439   4.047 -2.9804 -0.6100 -0.7591
  152MOL   H12548747   4.798   5.475   3.799  0.5570 -0.2270  1.6054
  152MOL   H12648748   4.699   5.402   3.928 -0.6432 -0.6863 -0.7539
  152MOL   H12748749   4.682   5.333   3.771 -2.8144  2.0814  0.5226
  152MOL   H12848750   4.937   5.093   3.872  0.1326 -1.3119 -1.3579
  152MOL   H12948751   4.782   5.146   3.783  0.6006 -0.6184  0.6288
  152MOL   C13048752   5.050   5.471   3.922  0.0663 -0.7143 -0.4155
  152MOL   C13148753   5.149   5.394   3.841  0.5834  0.3283 -0.4322
  152MOL   C13248754   5.122   5.584   3.999 -0.3932  0.4736  0.2258
  152MOL   C13348755   5.030   5.669   4.081  0.1187  0.0432 -0.0474
  152MOL   C13448756   5.086   5.722   4.207 -0.5755  0.4777  0.0765
  152MOL   C13548757   4.914   5.718   4.027  0.2562  0.6236 -0.4945
  152MOL   H13648758   4.992   5.531   3.851 -0.0808 -0.1868  0.1452
  152MOL   H13748759   5.241   5.360   3.888 -0.3115 -1.7890 -0.1617
  152MOL   H13848760   5.176   5.439   3.745 -0.2751 -1.6269 -1.6226
  152MOL   H13948761   5.116   5.294   3.812  1.5633  0.7341 -3.1080
  152MOL   H14048762   5.183   5.538   4.076  0.2784  1.5704  0.3623
  152MOL   H14148763   5.085   5.639   4.278  1.3161  0.5137  0.1668
  152MOL   H14248764   5.019   5.795   4.252  1.0370  1.1251  1.4956
  152MOL   H14348765   5.188   5.758   4.193 -0.0550 -1.6695 -1.9586
  152MOL   H14448766   4.870   5.670   3.940 -0.1505 -0.4697  0.3004
  152MOL   H14548767   4.860   5.795   4.080  1.7188 -1.0042  3.5741
  152MOL   C14648768   5.220   5.672   3.907 -0.3047  0.1512 -0.1106
  152MOL   C14748769   5.141   5.754   3.810  0.5210  0.5814 -0.0374
  152MOL   C14848770   5.364   5.621   3.880  0.0149 -0.3567  0.0366
  152MOL   C14948771   5.429   5.542   3.999 -0.6632 -1.1068  0.1774
  152MOL   C15048772   5.460   5.616   4.124  0.6497  0.9881  0.6816
  152MOL   C15148773   5.470   5.416   3.992  0.0731 -0.5108  0.1472
  152MOL   H15248774   5.242   5.753   3.977  1.4431  0.8929 -1.4766
  152MOL   H15348775   5.036   5.769   3.832  0.5689 -2.2899  2.3028
  152MOL   H15448776   5.145   5.718   3.707  2.0251  0.8257 -0.0785
  152MOL   H15548777   5.179   5.856   3.806 -1.5022  1.3732  0.4828
  152MOL   H15648778   5.343   5.541   3.808 -0.2560 -0.1403 -0.1241
  152MOL   H15748779   5.465   5.541   4.203  1.0753  1.0446  0.7094
  152MOL   H15848780   5.381   5.680   4.163  0.2094  1.1884 -0.4950
  152MOL   H15948781   5.551   5.676   4.127  1.6723 -0.5379  1.5149
  152MOL   H16048782   5.446   5.352   3.908  0.8789 -2.0614  1.0688
  152MOL   H16148783   5.517   5.371   4.079 -2.0039 -0.1310  1.5008
  152MOL   C16248784   5.466   5.709   3.804 -0.2154 -0.4066  0.0796
  152MOL   C16348785   5.465   5.851   3.863  0.5677  0.0681 -0.3795
  152MOL   C16448786   5.441   5.708   3.644  0.2709 -0.4167 -0.9199
  152MOL   C16548787   5.421   5.565   3.591  0.4523  0.4549 -0.0081
  152MOL   C16648788   5.313   5.553   3.487 -0.6280 -0.0965  0.1764
  152MOL   C16748789   5.490   5.458   3.628 -0.9423  0.5886  0.5242
  152MOL   H16848790   5.564   5.662   3.812 -0.5960 -1.1742  0.3437
  152MOL   H16948791   5.444   5.858   3.970  0.2889  1.0448 -0.4957
  152MOL   H17048792   5.401   5.912   3.799  1.1223  1.3566  0.2811
  152MOL   H17148793   5.562   5.896   3.841 -0.0538  0.6548 -2.0138
  152MOL   H17248794   5.348   5.763   3.627  0.1759 -0.2664  0.0681
  152MOL   H17348795   5.234   5.625   3.507 -0.5346 -0.5116  2.1494
  152MOL   H17448796   5.253   5.464   3.510  0.5455 -1.5852 -2.3443
  152MOL   H17548797   5.355   5.546   3.387  2.2091  1.4945  1.2178
  152MOL   H17648798   5.576   5.470   3.693  0.7571 -2.8603 -0.9528
  152MOL   H17748799   5.462   5.364   3.583 -0.0861  1.2536 -1.4683
  152MOL   C17848800   5.539   5.800   3.554 -0.0142 -0.5461  0.6431
  152MOL   C17948801   5.454   5.861   3.433  0.0234 -0.3702  0.4950
  152MOL   C18048802   5.681   5.735   3.503 -0.3439  0.0005  0.3090
  152MOL   C18148803   5.799   5.831   3.511 -0.3657  0.1931  0.3723
  152MOL   C18248804   5.926   5.785   3.585  0.3816 -0.3118 -0.2934
  152MOL   C18348805   5.793   5.964   3.466  0.1995  0.0419  0.2928
  152MOL   H18448806   5.570   5.887   3.613  3.0394 -2.0278  1.3183
  152MOL   H18548807   5.412   5.781   3.372  0.3363 -0.6245  0.6120
  152MOL   H18648808   5.523   5.919   3.371  0.4329 -0.6368  0.7015
  152MOL   H18748809   5.369   5.924   3.461 -0.5484 -0.5517 -0.7584
  152MOL   H18848810   5.708   5.668   3.585  1.7357  0.0552 -0.2843
  152MOL   H18948811   6.005   5.860   3.583  0.8033 -0.7296  0.2625
  152MOL   H19048812   5.965   5.691   3.545 -1.7402 -1.4113  0.1374
  152MOL   H19148813   5.907   5.761   3.690  1.6040  1.0622  0.2722
  152MOL   H19248814   5.712   6.011   3.412  3.2535  1.2413 -3.4167
  152MOL   H19348815   5.875   6.029   3.492 -0.5635  0.5143  1.5540
  152MOL   C19448816   5.694   5.637   3.382 -0.4580  0.6465  0.6055
  152MOL   C19548817   5.769   5.507   3.407 -0.1060 -0.0932  0.1239
  152MOL   C19648818   5.716   5.696   3.236 -0.2421 -0.4490 -0.2117
  152MOL   C19748819   5.593   5.656   3.153 -0.4042 -0.4721 -0.6373
  152MOL   C19848820   5.584   5.511   3.109 -0.2561  0.0358 -0.0707
  152MOL   C19948821   5.495   5.741   3.115 -0.8445  0.3501 -0.1415
  152MOL   H20048822   5.596   5.590   3.374  0.5441 -1.5564  0.9080
  152MOL   H20148823   5.740   5.459   3.501  0.8019 -0.7197  0.1028
  152MOL   H20248824   5.877   5.518   3.420 -0.2067 -1.7554  2.6706
  152MOL   H20348825   5.751   5.432   3.329 -1.9699  0.6657 -0.1941
  152MOL   H20448826   5.707   5.804   3.251 -0.5516 -0.5400  0.2967
  152MOL   H20548827   5.685   5.471   3.096 -0.4492 -0.3203 -0.4552
  152MOL   H20648828   5.526   5.496   3.019 -1.9124  1.7164  0.6845
  152MOL   H20748829   5.548   5.444   3.187 -0.6390  1.6009  1.1188
  152MOL   H20848830   5.495   5.847   3.133  0.6177  0.2380  0.6395
  152MOL   H20948831   5.414   5.698   3.059 -0.4989 -1.2028  0.5000
  152MOL   C21048832   5.857   5.673   3.165 -0.4889  0.3546 -0.1949
  152MOL   C21148833   5.972   5.742   3.242  0.0620  0.5958  0.3061
  152MOL   C21248834   5.865   5.681   3.006 -0.0836 -0.2920 -0.7803
  152MOL   C21348835   5.967   5.577   2.952 -0.7026  0.0466  0.2479
  152MOL   C21448836   5.917   5.435   2.921 -0.0840  0.2444 -0.8052
  152MOL   C21548837   6.097   5.608   2.926  0.2373  0.2872  0.3420
  152MOL   H21648838   5.877   5.569   3.188 -2.9785  0.3942  2.4735
  152MOL   H21748839   5.986   5.695   3.339 -0.2813 -0.4440 -0.1399
  152MOL   H21848840   5.960   5.850   3.255 -2.0980  0.2528  1.4461
  152MOL   H21948841   6.068   5.732   3.191 -0.5125  0.4709 -0.7770
  152MOL   H22048842   5.767   5.653   2.968 -1.8207  0.1849  3.0808
  152MOL   H22148843   5.890   5.383   3.013 -1.0421 -1.6747 -2.1577
  152MOL   H22248844   5.993   5.391   2.857  1.7218  0.9550  0.7936
  152MOL   H22348845   5.828   5.447   2.860 -0.8033  0.2735  0.2245
  152MOL   H22448846   6.120   5.709   2.957 -0.0521 -0.4914  3.2806
  152MOL   H22548847   6.171   5.539   2.889  0.1624 -0.3533  1.3504
  152MOL   C22648848   5.892   5.831   2.955  0.1538 -0.2699  0.9011
  152MOL   C22748849   5.792   5.936   3.007  0.1568  0.1389  0.0902
  152MOL   C22848850   5.910   5.846   2.800  0.2670 -0.7222  0.1789
  152MOL   C22948851   6.021   5.944   2.753 -0.4738  0.5605 -0.1713
  152MOL   C23048852   6.168   5.900   2.729  0.3477  0.1283 -0.4014
  152MOL   C23148853   5.989   6.074   2.740 -0.3116  0.6433  0.7530
  152MOL   H23248854   5.992   5.856   2.989  1.7438 -0.6735 -3.1601
  152MOL   H23348855   5.692   5.895   3.025  1.0179 -1.8371  0.4819
  152MOL   H23448856   5.766   6.019   2.942  0.4721  2.1858  2.5108
  152MOL   H23548857   5.820   5.963   3.109  0.7137 -0.4944  0.1068
  152MOL   H23648858   5.963   5.753   2.779 -0.5318 -1.4318  1.2444
  152MOL   H23748859   6.187   5.818   2.660 -2.0716 -0.9334  0.1300
  152MOL   H23848860   6.219   5.869   2.820  2.1380 -0.6555 -1.6553
  152MOL   H23948861   6.220   5.988   2.692  0.5557 -0.1172 -0.6890
  152MOL   H24048862   5.889   6.110   2.757 -0.2659  1.2767 -0.2694
  152MOL   H24148863   6.060   6.148   2.707  1.1628 -0.7589  0.6910
  152MOL   C24248864   5.784   5.850   2.706 -0.7268  0.1476 -0.0480
  152MOL   C24348865   5.661   5.763   2.753 -0.3215  0.6759 -0.3015
  152MOL   C24448866   5.814   5.836   2.552 -0.7274 -0.2706  0.7536
  152MOL   C24548867   5.752   5.959   2.476 -0.0810 -0.1017  0.2665
  152MOL   C24648868   5.602   5.981   2.475 -0.1845  0.1985  0.2972
  152MOL   C24748869   5.830   6.048   2.420 -0.2214 -0.0072  0.1710
  152MOL   H24848870   5.750   5.953   2.710  0.5586  0.4823  4.0818
  152MOL   H24948871   5.628   5.798   2.850  0.2287  1.1778 -0.2935
  152MOL   H25048872   5.691   5.659   2.760 -1.1977  0.3196 -1.5399
  152MOL   H25148873   5.582   5.760   2.678 -3.4146 -1.2222  2.8811
  152MOL   H25248874   5.923   5.843   2.548 -0.7153 -1.4925 -2.1488
  152MOL   H25348875   5.584   6.051   2.556 -1.5606  0.6429 -0.3809
  152MOL   H25448876   5.554   5.885   2.493  0.3611 -0.1701 -0.1652
  152MOL   H25548877   5.554   6.018   2.384 -0.2750 -0.5828  0.0183
  152MOL   H25648878   5.936   6.033   2.428 -0.3595 -0.5599  0.9820
  152MOL   H25748879   5.783   6.130   2.368 -0.0078  1.0362  1.6057
  152MOL   C25848880   5.781   5.698   2.477  0.2231  0.0419 -0.7712
  152MOL   C25948881   5.850   5.576   2.544  0.6013 -0.4621 -0.7081
  152MOL   C26048882   5.801   5.698   2.322 -0.0436 -0.9558 -0.5006
  152MOL   C26148883   5.705   5.597   2.258 -0.3086  0.0296  0.8517
  152MOL   C26248884   5.564   5.648   2.240  0.4306 -0.2566  0.2976
  152MOL   C26348885   5.733   5.462   2.243 -0.1910  0.2238  0.3687
  152MOL   H26448886   5.674   5.685   2.493 -0.1536  3.3163 -0.3582
  152MOL   H26548887   5.806   5.536   2.635  0.3791 -0.0188 -0.6206
  152MOL   H26648888   5.957   5.584   2.561  0.4789 -1.7259  0.7595
  152MOL   H26748889   5.839   5.499   2.467  1.0567  1.5179 -2.7950
  152MOL   H26848890   5.766   5.796   2.289  1.3517 -0.5556 -0.7957
  152MOL   H26948891   5.563   5.757   2.232  0.8089 -0.3685 -1.5023
  152MOL   H27048892   5.512   5.625   2.333  0.6383  1.3059  0.8116
  152MOL   H27148893   5.519   5.597   2.155  1.9344 -1.2378  0.0829
  152MOL   H27248894   5.829   5.416   2.265 -0.0911 -0.4070 -1.3243
  152MOL   H27348895   5.648   5.400   2.218 -1.3748  1.4416  1.2676
  152MOL   C27448896   5.938   5.687   2.256 -0.3873  0.0846 -0.0032
  152MOL   C27548897   6.055   5.765   2.320  0.5588 -0.2950  0.4619
  152MOL   C27648898   5.939   5.700   2.100 -0.6270  0.2578  0.6803
  152MOL   C27748899   6.029   5.590   2.038  0.0552 -0.7470 -0.5448
  152MOL   C27848900   6.168   5.628   2.038 -0.7392  0.0424  0.5774
  152MOL   C27948901   5.984   5.472   1.993 -0.2500 -0.5577  0.3968
  152MOL   H28048902   5.979   5.588   2.275 -2.1559 -0.5535  0.6584
  152MOL   H28148903   6.147   5.712   2.297  1.1971  1.2113 -0.5579
  152MOL   H28248904   6.055   5.757   2.429  1.1081  0.0228  0.4842
  152MOL   H28348905   6.068   5.870   2.292 -0.0933 -0.4418 -0.3929
  152MOL   H28448906   5.847   5.653   2.066 -0.1977 -0.0273 -0.1172
  152MOL   H28548907   6.228   5.563   1.974 -0.5149  0.2678  0.5615
  152MOL   H28648908   6.209   5.634   2.139 -3.1637  2.0273  1.5121
  152MOL   H28748909   6.169   5.716   1.975  3.9179 -0.8491 -0.7681
  152MOL   H28848910   5.881   5.440   1.988 -1.2463  2.4804  0.2500
  152MOL   H28948911   6.052   5.395   1.961 -0.0562 -0.2535  0.0744
  152MOL   C29048912   5.944   5.850   2.034  0.0826 -0.0773  0.2450
  152MOL   C29148913   5.837   5.942   2.106 -0.1190  0.7787 -0.6067
  152MOL   C29248914   5.934   5.856   1.879  0.3089  0.0799 -0.3006
  152MOL   C29348915   5.960   5.997   1.826 -0.7412  0.4864 -0.3514
  152MOL   C29448916   6.108   6.024   1.791 -0.0458  0.0586 -0.2530
  152MOL   C29548917   5.867   6.085   1.790 -0.2686 -0.7759 -0.8634
  152MOL   H29648918   6.039   5.900   2.053  0.2805 -0.1622 -0.4792
  152MOL   H29748919   5.834   6.044   2.069 -0.3686  1.1382  0.3788
  152MOL   H29848920   5.874   5.959   2.208  0.5599  1.0596 -0.8944
  152MOL   H29948921   5.733   5.910   2.107  0.4501 -1.0995 -0.2794
  152MOL   H30048922   6.021   5.795   1.857  0.4858  0.8086 -1.6539
  152MOL   H30148923   6.133   6.125   1.758 -0.7770  0.1478 -0.5361
  152MOL   H30248924   6.139   5.966   1.704 -1.0708 -0.8083 -0.0494
  152MOL   H30348925   6.173   6.000   1.875 -1.1762  0.8035  0.8444
  152MOL   H30448926   5.760   6.072   1.795 -0.6793  2.3510 -0.3235
  152MOL   H30548927   5.903   6.173   1.738  1.0495 -0.6041  0.2980
  152MOL   C30648928   5.819   5.768   1.810 -0.8734 -0.3057 -0.3005
  152MOL   C30748929   5.809   5.795   1.656  0.3466  0.3984 -1.1966
  152MOL   C30848930   5.681   5.777   1.878  0.9083 -0.7848  0.3809
  152MOL   C30948931   5.573   5.700   1.798 -0.2171 -0.4608  0.2875
  152MOL   C31048932   5.575   5.549   1.783  0.4341  0.0034  0.1018
  152MOL   C31148933   5.484   5.762   1.717  0.1503 -0.6214 -0.3224
  152MOL   H31248934   5.861   5.668   1.818  2.5343  0.9626 -1.4872
  152MOL   H31348935   5.768   5.893   1.631 -0.4006 -0.0559 -1.7373
  152MOL   H31448936   5.763   5.710   1.608  2.0248  0.5828 -3.2118
  152MOL   H31548937   5.911   5.783   1.619  1.6650  1.3053  1.9131
  152MOL   H31648938   5.683   5.750   1.984  1.7451 -0.9420  0.3251
  152MOL   H31748939   5.647   5.523   1.706  0.5058  1.2823 -0.2799
  152MOL   H31848940   5.482   5.501   1.751  0.3418 -0.4096  0.9749
  152MOL   H31948941   5.603   5.515   1.882 -0.1877 -1.3351 -0.1753
  152MOL   H32048942   5.482   5.869   1.708  1.0598 -0.4119  1.7651
  152MOL   H32148943   5.416   5.713   1.648 -1.0346  2.8073 -1.6930
  152MOL   H32248944   5.656   5.884   1.881  0.1036 -0.9691  0.3416
  153MOL     C148945   3.160   5.615   1.362  0.2840  0.2930  0.0535
  153MOL     C248946   3.024   5.673   1.332 -0.1519  0.2271  0.0105
  153MOL     C348947   3.158   5.461   1.347 -0.7794 -0.2117 -0.4305
  153MOL     C448948   3.068   5.394   1.454  0.0050 -0.4874  0.3323
  153MOL     C548949   2.929   5.345   1.426 -0.0075 -0.2518 -0.5651
  153MOL     C648950   3.117   5.376   1.578 -0.5149  0.2240 -0.2821
  153MOL     H748951   3.235   5.653   1.292 -0.6106 -2.0265 -2.2448
  153MOL     H848952   2.948   5.653   1.407 -0.8514 -0.3805 -0.8600
  153MOL     H948953   2.980   5.650   1.235  0.0757  3.2612 -0.8867
  153MOL    H1048954   3.034   5.782   1.328  1.5113  0.0424 -1.9753
  153MOL    H1148955   3.099   5.440   1.258 -1.0483  1.1804 -0.5992
  153MOL    H1248956   2.934   5.265   1.352 -1.8879 -1.7356  0.8701
  153MOL    H1348957   2.874   5.430   1.385 -1.3897 -0.9087 -0.0805
  153MOL    H1448958   2.872   5.293   1.503 -0.6465  1.4606  0.1493
  153MOL    H1548959   3.218   5.403   1.603 -0.4429  1.6957 -2.0454
  153MOL    H1648960   3.064   5.337   1.664 -0.5684 -1.6794 -1.1679
  153MOL    H1748961   3.192   5.632   1.465 -2.2739  0.7309  0.8179
  153MOL    C1848962   3.297   5.388   1.334 -0.0701  0.9452  0.0459
  153MOL    C1948963   3.410   5.463   1.407  0.2525 -0.0430  0.4165
  153MOL    C2048964   3.332   5.353   1.185 -0.1059  0.3327  1.0895
  153MOL    C2148965   3.357   5.476   1.094  0.2517  0.2678  0.2398
  153MOL    C2248966   3.499   5.519   1.067 -0.3551 -0.5055  0.6000
  153MOL    C2348967   3.258   5.555   1.041  0.3316  0.7240 -0.3121
  153MOL    H2448968   3.293   5.292   1.385  0.3316  0.5478 -0.6701
  153MOL    H2548969   3.503   5.409   1.425  0.7808  1.0301  0.9438
  153MOL    H2648970   3.386   5.503   1.505 -0.5641 -0.4803  0.4024
  153MOL    H2748971   3.437   5.550   1.347 -0.5326  0.0114  0.1342
  153MOL    H2848972   3.432   5.311   1.189  0.5011  1.8699  2.7123
  153MOL    H2948973   3.495   5.618   1.023  0.4218 -1.3108 -1.3735
  153MOL    H3048974   3.541   5.437   1.009  0.2256 -0.8661  1.5212
  153MOL    H3148975   3.557   5.524   1.159 -1.2431 -0.1457  1.1406
  153MOL    H3248976   3.153   5.546   1.067  0.9232  0.3399  2.0933
  153MOL    H3348977   3.281   5.637   0.975 -0.2328 -1.4724 -3.3153
  153MOL    C3448978   3.235   5.253   1.111 -0.8027 -0.2310 -1.0014
  153MOL    C3548979   3.186   5.136   1.201 -0.2497 -0.2024  0.4608
  153MOL    C3648980   3.273   5.210   0.962  0.7766 -0.2559  0.1350
  153MOL    C3748981   3.164   5.235   0.855 -0.0795 -0.2844  0.2798
  153MOL    C3848982   3.054   5.133   0.847  0.3830 -0.6537  0.0577
  153MOL    C3948983   3.159   5.342   0.775  0.3545 -0.5042 -0.1516
  153MOL    H4048984   3.136   5.298   1.106  0.0782  2.1041  1.2000
  153MOL    H4148985   3.272   5.080   1.237  0.8179  0.8348 -0.4007
  153MOL    H4248986   3.123   5.064   1.150  0.6770  0.8820 -2.3091
  153MOL    H4348987   3.142   5.169   1.295  1.8871 -2.7616  2.4248
  153MOL    H4448988   3.345   5.287   0.934  1.5409 -0.9504  0.1676
  153MOL    H4548989   2.984   5.152   0.766  1.1423 -0.1574 -0.4852
  153MOL    H4648990   3.008   5.130   0.946  1.1409  0.8353  0.4716
  153MOL    H4748991   3.105   5.037   0.840  2.0766  0.2553 -0.2508
  153MOL    H4848992   3.228   5.425   0.780  1.7231 -1.6257 -0.0799
  153MOL    H4948993   3.078   5.350   0.704  1.7958  0.7369 -1.6892
  153MOL    C5048994   3.352   5.076   0.948  0.2050 -1.1987 -0.1875
  153MOL    C5148995   3.478   5.070   1.038 -0.8612  0.0390 -0.2466
  153MOL    C5248996   3.386   5.030   0.799  0.3235  0.2735  0.2863
  153MOL    C5348997   3.391   4.875   0.789  0.0014 -0.7066 -0.1282
  153MOL    C5448998   3.253   4.805   0.775 -0.6473 -0.6346  0.2210
  153MOL    C5548999   3.500   4.799   0.826 -0.0246  0.4025  0.0820
  153MOL    H5649000   3.282   5.008   0.997 -1.3241  0.6385  0.2171
  153MOL    H5749001   3.563   5.119   0.992 -2.3906  3.1167  0.0847
  153MOL    H5849002   3.514   4.969   1.059 -0.9224 -0.3827 -2.1093
  153MOL    H5949003   3.463   5.115   1.136  0.3325  0.8486 -0.4319
  153MOL    H6049004   3.297   5.061   0.744 -0.0126  1.5260  1.5150
  153MOL    H6149005   3.268   4.708   0.729  0.7974  0.1999 -1.1460
  153MOL    H6249006   3.185   4.873   0.723  0.6068 -0.0460 -0.6681
  153MOL    H6349007   3.204   4.792   0.871  0.2555 -2.3367  0.4739
  153MOL    H6449008   3.591   4.845   0.860 -0.3867  1.0755  0.1498
  153MOL    H6549009   3.493   4.691   0.826 -0.7788  0.3594  4.0442
  153MOL    C6649010   3.519   5.099   0.738  0.3284  0.4181 -0.1832
  153MOL    C6749011   3.522   5.255   0.739  0.3326  0.3182  0.1620
  153MOL    C6849012   3.562   5.052   0.601  0.6428  0.8356 -0.0540
  153MOL    C6949013   3.713   5.059   0.604 -0.0529  0.0538  0.8772
  153MOL    C7049014   3.785   4.953   0.677  0.6904  0.1954  0.1871
  153MOL    C7149015   3.778   5.156   0.539 -0.2458 -0.7844 -0.3298
  153MOL    H7249016   3.596   5.048   0.794  0.0340 -0.7716 -0.8354
  153MOL    H7349017   3.614   5.294   0.696  1.1386 -0.7861  0.8577
  153MOL    H7449018   3.528   5.293   0.841  3.3783  1.1975 -0.2973
  153MOL    H7549019   3.430   5.290   0.694 -0.6376 -0.5380  1.4334
  153MOL    H7649020   3.543   4.945   0.604 -1.4637  1.2241  1.3104
  153MOL    H7749021   3.798   4.980   0.782  2.8889  1.2325 -0.3259
  153MOL    H7849022   3.883   4.931   0.635 -0.5233 -0.8616 -2.1819
  153MOL    H7949023   3.725   4.862   0.671 -1.9029  1.9799 -2.0926
  153MOL    H8049024   3.727   5.232   0.482  1.7873  0.1226 -0.9817
  153MOL    H8149025   3.885   5.173   0.534 -0.4644  0.6843 -0.1250
  153MOL    C8249026   3.494   5.102   0.461 -0.4275  0.2823 -0.0082
  153MOL    C8349027   3.335   5.115   0.469  0.9253 -0.4106  0.0420
  153MOL    C8449028   3.539   5.026   0.323 -0.2819  0.1584  0.3832
  153MOL    C8549029   3.575   5.133   0.221  0.4876 -0.8732 -0.7897
  153MOL    C8649030   3.464   5.214   0.159 -0.3339 -0.2945  0.2919
  153MOL    C8749031   3.698   5.147   0.180 -0.6348  0.0683  0.0930
  153MOL    H8849032   3.528   5.205   0.453  2.1070 -0.6477 -1.8411
  153MOL    H8949033   3.290   5.123   0.370  1.1215  0.7625  0.0359
  153MOL    H9049034   3.303   5.201   0.528 -0.1285 -0.2606 -0.7456
  153MOL    H9149035   3.284   5.026   0.504 -0.6945  0.4415 -0.0942
  153MOL    H9249036   3.633   4.974   0.343 -2.3515 -4.6735 -1.5619
  153MOL    H9349037   3.386   5.152   0.114 -0.4635  0.5006 -0.5852
  153MOL    H9449038   3.499   5.290   0.090 -0.2913 -0.9320 -0.3889
  153MOL    H9549039   3.413   5.265   0.241  0.8596  0.9850  0.2586
  153MOL    H9649040   3.786   5.095   0.213 -0.9572  0.1879  1.1558
  153MOL    H9749041   3.725   5.224   0.108 -0.4368  0.5448  0.6717
  153MOL    C9849042   3.451   4.903   0.280  0.9872 -0.3125 -0.4184
  153MOL    C9949043   3.432   4.803   0.391  0.5731 -0.0632  0.5887
  153MOL   C10049044   3.489   4.833   0.146  0.7878 -0.2709 -0.1014
  153MOL   C10149045   3.368   4.829   0.042  0.8597  0.0915  0.4772
  153MOL   C10249046   3.259   4.722   0.063 -0.2026 -0.9061 -0.2064
  153MOL   C10349047   3.359   4.917   7.834  0.5128  0.2603  0.9063
  153MOL   H10449048   3.347   4.935   0.267  0.7919 -1.1757 -1.0832
  153MOL   H10549049   3.412   4.851   0.487  0.4151  1.8688 -0.3921
  153MOL   H10649050   3.527   4.756   0.416 -0.3512 -1.2080  2.0951
  153MOL   H10749051   3.367   4.720   0.364 -0.9324  1.2509  0.0759
  153MOL   H10849052   3.550   4.907   0.094 -0.2305 -0.5866 -1.7683
  153MOL   H10949053   3.303   4.623   0.077  1.2984 -0.5350 -2.1704
  153MOL   H11049054   3.179   4.711   7.882  1.6334 -0.8087 -2.2784
  153MOL   H11149055   3.218   4.740   0.163 -0.6047 -0.2125 -0.4968
  153MOL   H11249056   3.430   4.996   7.814 -1.0004  0.9247 -2.0655
  153MOL   H11349057   3.274   4.914   7.768  0.0489  0.9810  1.4782
  153MOL   C11449058   3.592   4.716   0.143 -0.3598 -0.3713  0.6772
  153MOL   C11549059   3.724   4.770   0.208 -0.4801 -0.7910  0.0495
  153MOL   C11649060   3.607   4.625   0.017 -0.0645  0.0280  0.2206
  153MOL   C11749061   3.602   4.479   0.044  0.4418  0.1356  0.3129
  153MOL   C11849062   3.473   4.401   0.046 -0.0784 -0.2854  0.4364
  153MOL   C11949063   3.712   4.401   0.068  0.3891  0.0288  0.0724
  153MOL   H12049064   3.552   4.649   0.219  1.3739  1.0105  2.8624
  153MOL   H12149065   3.753   4.859   0.151 -1.6121 -0.6122 -0.2450
  153MOL   H12249066   3.807   4.700   0.193 -1.2474 -1.7199  0.1143
  153MOL   H12349067   3.725   4.804   0.311  1.7730 -0.3820 -0.0800
  153MOL   H12449068   3.512   4.631   7.856  0.2640  0.5588 -0.3166
  153MOL   H12549069   3.490   4.293   0.048  0.3720 -0.2659 -1.4925
  153MOL   H12649070   3.417   4.414   7.846 -0.1606  0.5481  0.6054
  153MOL   H12749071   3.418   4.438   0.132 -0.7144 -3.5015  1.4740
  153MOL   H12849072   3.808   4.449   0.059  0.5718 -0.2399  0.5917
  153MOL   H12949073   3.712   4.296   0.094  2.6384 -0.1253 -0.4385
  153MOL   C13049074   3.720   4.670   7.814 -0.3506 -0.4208 -0.0487
  153MOL   C13149075   3.707   4.819   7.772  0.1670  0.0986  0.0449
  153MOL   C13249076   3.752   4.581   7.686 -0.1741 -0.0560 -0.3765
  153MOL   C13349077   3.904   4.607   7.656 -0.1266  0.8715 -0.6173
  153MOL   C13449078   4.000   4.519   7.742  0.4896  0.6675 -0.9080
  153MOL   C13549079   3.953   4.694   7.565  0.3710  0.3894 -0.3013
  153MOL   H13649080   3.810   4.673   7.875 -0.4531 -1.3641  0.1587
  153MOL   H13749081   3.727   4.893   7.849  0.6640 -0.4642  0.4603
  153MOL   H13849082   3.604   4.838   7.740 -0.0327 -0.2231  0.4845
  153MOL   H13949083   3.779   4.839   7.693  1.1335 -1.1202  0.5964
  153MOL   H14049084   3.749   4.477   7.719  4.5115 -0.3020 -0.3871
  153MOL   H14149085   3.967   4.415   7.745  0.8966  0.4836 -2.4278
  153MOL   H14249086   4.018   4.557   7.843  1.5940  1.1358 -1.2794
  153MOL   H14349087   4.098   4.505   7.696  1.2276 -0.4949  0.9356
  153MOL   H14449088   3.889   4.764   7.514 -0.0994 -0.3335 -0.7157
  153MOL   H14549089   4.058   4.701   7.543  0.0444  0.8512 -1.7746
  153MOL   C14649090   3.655   4.591   7.566  0.0106 -0.8936  0.3093
  153MOL   C14749091   3.504   4.580   7.600 -1.0555 -0.7242 -0.3727
  153MOL   C14849092   3.700   4.500   7.443  0.1078 -0.6437 -0.0210
  153MOL   C14949093   3.682   4.575   7.310 -0.3572 -0.8293 -0.2998
  153MOL   C15049094   3.545   4.620   7.267 -0.3862 -0.2747  0.5023
  153MOL   C15149095   3.795   4.611   7.242 -0.0917 -0.4601 -0.2863
  153MOL   H15249096   3.669   4.692   7.528 -2.3840 -0.8608 -0.5846
  153MOL   H15349097   3.487   4.673   7.654  0.4161 -0.3085 -0.6001
  153MOL   H15449098   3.487   4.492   7.661 -2.6342 -0.7428 -0.8105
  153MOL   H15549099   3.439   4.584   7.512 -1.2853 -1.5287 -0.2434
  153MOL   H15649100   3.807   4.488   7.460  0.2044  1.3088  0.8199
  153MOL   H15749101   3.514   4.697   7.338 -1.6026 -0.3084  0.0085
  153MOL   H15849102   3.474   4.539   7.278 -1.4883  0.4245 -1.4202
  153MOL   H15949103   3.536   4.658   7.165  0.4709  0.1551  0.5776
  153MOL   H16049104   3.896   4.583   7.270 -0.3433  0.7569  1.9796
  153MOL   H16149105   3.774   4.668   7.152  0.7663 -0.5800 -0.5778
  153MOL   C16249106   3.642   4.354   7.428  0.3258 -0.4039 -0.2900
  153MOL   C16349107   3.659   4.264   7.559  0.3606  0.1115  0.7968
  153MOL   C16449108   3.670   4.279   7.288  0.5207  0.0010 -0.2636
  153MOL   C16549109   3.532   4.227   7.232 -0.3121  0.4560  0.2282
  153MOL   C16649110   3.459   4.116   7.312  0.3876  0.2547 -0.3004
  153MOL   C16749111   3.485   4.257   7.109  0.2496  0.5380 -0.6376
  153MOL   H16849112   3.535   4.375   7.434 -0.2891 -3.5019  0.5224
  153MOL   H16949113   3.609   4.317   7.640  0.0509  3.6471 -1.6351
  153MOL   H17049114   3.763   4.256   7.591  0.1219  0.0367  1.5601
  153MOL   H17149115   3.608   4.167   7.559  0.1013  0.2450  0.2419
  153MOL   H17249116   3.701   4.350   7.211  2.7302 -0.9303 -0.2627
  153MOL   H17349117   3.547   4.061   7.347  1.3694  2.5092  0.8890
  153MOL   H17449118   3.377   4.065   7.261  1.4328 -1.3472 -0.4083
  153MOL   H17549119   3.412   4.166   7.396  0.9439 -1.1624  0.8771
  153MOL   H17649120   3.547   4.326   7.054  0.3177  1.1703  0.2225
  153MOL   H17749121   3.394   4.213   7.069  0.6661  0.6226 -1.6819
  153MOL   C17849122   3.783   4.174   7.292  0.5638 -0.3399  0.4302
  153MOL   C17949123   3.919   4.243   7.337  0.5650 -0.3492 -0.1602
  153MOL   C18049124   3.811   4.085   7.166  0.2845 -0.0301 -0.3769
  153MOL   C18149125   3.889   3.957   7.194 -0.7762 -1.0353  0.2411
  153MOL   C18249126   3.891   3.847   7.083 -0.4180  0.3293 -0.2115
  153MOL   C18349127   3.938   3.926   7.310  0.2569 -0.2649  0.0291
  153MOL   H18449128   3.760   4.105   7.373 -0.4297  0.5470  0.9165
  153MOL   H18549129   3.926   4.328   7.268  1.5564  0.8895  1.4256
  153MOL   H18649130   4.006   4.178   7.330  1.8717  1.2600  0.8194
  153MOL   H18749131   3.917   4.289   7.436  0.3824 -2.2785  0.7618
  153MOL   H18849132   3.714   4.042   7.140  1.8407 -3.2756 -1.1035
  153MOL   H18949133   3.798   3.851   7.027 -1.1401 -0.7417  0.8597
  153MOL   H19049134   3.892   3.750   7.134 -2.6819  0.3448 -0.1088
  153MOL   H19149135   3.972   3.847   7.010 -0.2583 -0.4712 -0.0425
  153MOL   H19249136   3.926   3.991   7.396  1.7755  0.2195 -0.1221
  153MOL   H19349137   3.997   3.838   7.329  2.0828  0.9548  0.1124
  153MOL   C19449138   3.861   4.162   7.041 -0.6844 -0.0979  0.0921
  153MOL   C19549139   3.784   4.135   6.905 -0.9655 -0.2369  0.5344
  153MOL   C19649140   4.022   4.189   7.024  0.2721 -0.2382  0.2525
  153MOL   C19749141   4.056   4.338   7.015 -0.5189 -0.2815 -0.1109
  153MOL   C19849142   4.169   4.388   7.103 -0.0422 -0.8340 -0.0575
  153MOL   C19949143   3.993   4.412   6.930 -0.4654 -0.2214  0.0807
  153MOL   H20049144   3.824   4.263   7.062 -1.2357 -0.7068  2.1244
  153MOL   H20149145   3.805   4.033   6.873 -0.9273 -0.2247  0.5232
  153MOL   H20249146   3.794   4.209   6.826  0.3364 -1.4654 -0.4689
  153MOL   H20349147   3.679   4.143   6.930 -0.2887  0.1820  3.4616
  153MOL   H20449148   4.060   4.150   7.118 -0.7449 -1.9609 -0.0166
  153MOL   H20549149   4.207   4.482   7.063 -1.9055 -0.0681 -0.1034
  153MOL   H20649150   4.252   4.318   7.095  0.7226 -0.4790  3.6237
  153MOL   H20749151   4.136   4.384   7.207  1.2093 -0.5780  0.3630
  153MOL   H20849152   3.911   4.382   6.867 -2.4828  1.9616  1.5664
  153MOL   H20949153   4.027   4.514   6.926 -0.7899 -0.0133  2.0249
  153MOL   C21049154   4.097   4.098   6.921 -0.7497  0.5521 -0.2210
  153MOL   C21149155   4.211   4.011   6.984  0.6020  0.8060  0.2404
  153MOL   C21249156   4.122   4.149   6.767 -0.3741 -0.6364 -0.3948
  153MOL   C21349157   4.049   4.053   6.678  0.2294  0.1912  0.1223
  153MOL   C21449158   4.108   3.913   6.675 -0.4642  0.4605  0.0487
  153MOL   C21549159   3.936   4.087   6.615 -0.3049  0.0842  0.2520
  153MOL   H21649160   4.023   4.021   6.901 -1.3602  1.0317  0.1799
  153MOL   H21749161   4.184   3.942   7.064  1.2229  1.0634  0.6787
  153MOL   H21849162   4.271   4.082   7.040  0.1395 -0.3307  2.2100
  153MOL   H21949163   4.263   3.953   6.907 -3.7010 -1.3057 -1.2055
  153MOL   H22049164   4.085   4.251   6.759 -0.0034 -0.4498  0.2633
  153MOL   H22149165   4.108   3.864   6.772  1.7262  0.6995  0.1903
  153MOL   H22249166   4.211   3.915   6.639 -0.0920  2.7641  1.0798
  153MOL   H22349167   4.058   3.853   6.599  2.6578 -0.7759 -1.1282
  153MOL   H22449168   3.882   4.180   6.624 -0.7240 -0.1530  0.2256
  153MOL   H22549169   3.898   4.013   6.546  1.6738 -1.8060  1.1361
  153MOL   C22649170   4.272   4.172   6.711  0.3979 -0.4985  0.2591
  153MOL   C22749171   4.345   4.256   6.803 -0.3027 -0.8297  0.1166
  153MOL   C22849172   4.283   4.234   6.566 -0.0454  0.4156 -0.4735
  153MOL   C22949173   4.426   4.204   6.518  0.5032 -0.0081  0.1061
  153MOL   C23049174   4.453   4.061   6.465  0.3383  0.0409  0.2207
  153MOL   C23149175   4.522   4.301   6.508 -0.1234  0.0910 -0.6469
  153MOL   H23249176   4.325   4.077   6.706  0.4491 -0.4801  0.4716
  153MOL   H23349177   4.428   4.311   6.758 -0.4307 -1.9855 -1.5907
  153MOL   H23449178   4.397   4.201   6.881  1.6070 -1.4949 -1.5696
  153MOL   H23549179   4.278   4.323   6.856  0.2593  1.2643 -1.7637
  153MOL   H23649180   4.235   4.153   6.509  1.6051 -0.0660 -1.2039
  153MOL   H23749181   4.403   4.043   6.370 -2.0881 -0.4785  1.5471
  153MOL   H23849182   4.426   3.981   6.534  1.6650  1.4050  2.4031
  153MOL   H23949183   4.559   4.058   6.437  0.5427  0.3005  0.9394
  153MOL   H24049184   4.502   4.401   6.545  0.8309  0.5043 -1.2193
  153MOL   H24149185   4.624   4.285   6.477 -0.2339  0.4709 -1.2317
  153MOL   C24249186   4.216   4.369   6.524 -0.9636 -0.0971 -0.2160
  153MOL   C24349187   4.217   4.474   6.630 -0.2530 -0.7337 -0.0241
  153MOL   C24449188   4.094   4.367   6.433 -0.0568  0.2252  0.8672
  153MOL   C24549189   4.116   4.269   6.310  0.4736  0.7736 -0.1658
  153MOL   C24649190   3.994   4.194   6.266  0.0555 -0.3997  0.3940
  153MOL   C24749191   4.233   4.243   6.255 -0.6646 -0.3875  0.3106
  153MOL   H24849192   4.283   4.411   6.449  0.8556  2.1445  2.5494
  153MOL   H24949193   4.314   4.486   6.680 -0.7860  0.7763  0.6736
  153MOL   H25049194   4.149   4.440   6.709 -1.9201  1.0921 -0.6433
  153MOL   H25149195   4.180   4.574   6.608  2.8348  0.4645 -0.0427
  153MOL   H25249196   4.019   4.329   6.502 -1.4906  2.3436  0.5453
  153MOL   H25349197   3.942   4.153   6.352  2.5722 -0.0105  2.1629
  153MOL   H25449198   4.011   4.109   6.199 -0.2063  0.0357 -0.2390
  153MOL   H25549199   3.933   4.262   6.206  2.1654  1.7715  0.6485
  153MOL   H25649200   4.315   4.297   6.300 -1.3586  0.8784  0.0878
  153MOL   H25749201   4.247   4.184   6.166 -1.4469  1.1161 -0.8298
  153MOL   C25849202   4.056   4.507   6.362  1.2182 -0.3769  0.5827
  153MOL   C25949203   4.172   4.591   6.299  0.0366  1.0063 -0.2464
  153MOL   C26049204   3.947   4.593   6.438  0.6358  0.0632  0.8845
  153MOL   C26149205   3.836   4.510   6.507  0.8688 -0.4789 -0.7208
  153MOL   C26249206   3.744   4.427   6.426  0.1427 -0.2235  0.5180
  153MOL   C26349207   3.831   4.505   6.640  0.2216 -0.4444  0.0811
  153MOL   H26449208   4.004   4.473   6.273  1.0149  0.3695  0.4142
  153MOL   H26549209   4.219   4.641   6.383 -0.8645  1.6557 -0.1190
  153MOL   H26649210   4.115   4.661   6.238  1.6924  1.6292 -1.1222
  153MOL   H26749211   4.247   4.534   6.245  0.3630  0.9719  0.2401
  153MOL   H26849212   3.999   4.634   6.525  2.6347 -0.9034  0.1813
  153MOL   H26949213   3.699   4.493   6.352 -0.1518  0.5501  1.3737
  153MOL   H27049214   3.670   4.367   6.479  0.8232 -1.5434 -0.0043
  153MOL   H27149215   3.804   4.351   6.375  0.5307  0.8904 -0.7224
  153MOL   H27249216   3.894   4.569   6.701 -1.2086  3.3864 -2.3042
  153MOL   H27349217   3.756   4.444   6.689 -2.0565  0.6732 -1.9371
  153MOL   C27449218   3.875   4.712   6.353 -0.9118 -0.2025  0.0891
  153MOL   C27549219   3.822   4.668   6.211  0.3584 -0.7130 -0.1620
  153MOL   C27649220   3.938   4.857   6.351  0.5353 -0.3418  0.3315
  153MOL   C27749221   4.025   4.879   6.471 -0.1273  0.5050  0.0586
  153MOL   C27849222   3.953   4.902   6.606 -0.4120 -0.4319 -0.4358
  153MOL   C27949223   4.160   4.899   6.464 -0.1040 -0.5057  0.0977
  153MOL   H28049224   3.785   4.728   6.412 -0.6632 -2.2987  1.0769
  153MOL   H28149225   3.715   4.689   6.215  0.4549  0.4726 -2.6102
  153MOL   H28249226   3.854   4.567   6.185 -1.5142 -1.2234 -0.6217
  153MOL   H28349227   3.859   4.723   6.125  2.1174  0.7568  1.4876
  153MOL   H28449228   4.007   4.846   6.267 -2.3322  0.7553 -2.2602
  153MOL   H28549229   4.027   4.915   6.685 -2.0967 -1.5332  1.3451
  153MOL   H28649230   3.887   4.817   6.623 -1.9840  0.8932  0.1777
  153MOL   H28749231   3.894   4.993   6.604 -1.1839 -0.8128  2.5416
  153MOL   H28849232   4.216   4.903   6.372  2.9677 -2.5879  1.8002
  153MOL   H28949233   4.218   4.912   6.554 -2.5285  0.7447  1.5457
  153MOL   C29049234   3.844   4.982   6.324 -0.2447 -0.6992  0.0512
  153MOL   C29149235   3.747   4.987   6.208 -0.1324  0.8965 -0.0193
  153MOL   C29249236   3.913   5.122   6.339 -0.3772 -0.3049  0.6394
  153MOL   C29349237   3.824   5.222   6.419  0.2841  0.4906  0.0870
  153MOL   C29449238   3.711   5.301   6.351  0.4277 -0.5689 -0.3407
  153MOL   C29549239   3.849   5.240   6.551 -0.1997 -0.3944 -0.4899
  153MOL   H29649240   3.767   4.976   6.401  0.8490  0.0946  1.2228
  153MOL   H29749241   3.667   4.914   6.225  0.3955  0.2207 -0.3727
  153MOL   H29849242   3.803   4.968   6.116 -0.4740  1.2544 -0.2983
  153MOL   H29949243   3.697   5.082   6.191 -0.0512  0.6697 -1.6354
  153MOL   H30049244   3.997   5.118   6.409 -0.6504 -0.1410  0.9840
  153MOL   H30149245   3.747   5.348   6.260 -1.6948  0.5108 -0.6486
  153MOL   H30249246   3.680   5.390   6.406 -0.5227 -1.3162  0.3525
  153MOL   H30349247   3.626   5.239   6.323 -0.0425  0.4470 -1.1934
  153MOL   H30449248   3.933   5.197   6.604  0.7630  0.8547 -0.9763
  153MOL   H30549249   3.784   5.299   6.614 -0.9467 -0.7836 -0.8907
  153MOL   C30649250   3.975   5.185   6.206  0.0239  0.0195  0.0240
  153MOL   C30749251   4.075   5.096   6.133  0.1438  0.2806  0.2986
  153MOL   C30849252   4.048   5.320   6.234 -0.1057  0.8342 -0.2711
  153MOL   C30949253   4.065   5.408   6.110 -0.0975 -0.4243  0.0304
  153MOL   C31049254   3.951   5.489   6.069 -0.1960  0.6834  0.2443
  153MOL   C31149255   4.186   5.429   6.051  0.0253 -0.3454 -1.0195
  153MOL   H31249256   3.894   5.216   6.140  1.2978  1.5382 -0.8618
  153MOL   H31349257   4.165   5.072   6.189  0.4580  3.0449  1.0417
  153MOL   H31449258   4.109   5.151   6.045 -1.8798 -1.4022 -1.5916
  153MOL   H31549259   4.032   4.998   6.110 -2.9694  1.9502 -1.2407
  153MOL   H31649260   3.994   5.374   6.312 -1.4480 -0.7037 -0.1170
  153MOL   H31749261   3.955   5.516   5.963  0.9347  1.7948  0.5534
  153MOL   H31849262   3.957   5.580   6.128  1.3137 -0.3615  1.7532
  153MOL   H31949263   3.858   5.436   6.090 -0.1572  1.2344  1.8399
  153MOL   H32049264   4.275   5.378   6.085 -0.0274  0.2051 -0.0454
  153MOL   H32149265   4.197   5.497   5.968  2.1315  0.7391  0.1291
  153MOL   H32249266   4.141   5.301   6.287 -1.3707 -1.9169  1.0747
  154MOL     C149267   3.468   0.656   1.787 -0.4161 -0.0040  0.0413
  154MOL     C249268   3.505   0.505   1.774  0.1418  0.1517  0.1552
  154MOL     C349269   3.410   0.701   1.930  0.5997 -0.9083 -0.1665
  154MOL     C449270   3.331   0.834   1.923  0.0189 -0.5178 -0.4947
  154MOL     C549271   3.410   0.953   1.869  0.6916 -0.3511  0.5449
  154MOL     C649272   3.209   0.849   1.970 -0.4590 -0.0940 -0.4945
  154MOL     H749273   3.559   0.708   1.758  0.8773 -1.4801  1.4098
  154MOL     H849274   3.419   0.439   1.776  1.6064 -1.8537 -0.7625
  154MOL     H949275   3.573   0.479   1.856  0.2838  0.8967  0.2762
  154MOL    H1049276   3.551   0.490   1.677  0.1897 -1.3913  0.3996
  154MOL    H1149277   3.335   0.627   1.959 -0.1367 -0.4232 -0.7948
  154MOL    H1249278   3.474   1.000   1.944 -0.3695  1.0589  0.5894
  154MOL    H1349279   3.344   1.025   1.821  0.0700 -1.6391 -0.5764
  154MOL    H1449280   3.479   0.911   1.796  0.1229 -1.5682  0.6761
  154MOL    H1549281   3.153   0.765   2.006 -1.2118  0.5705 -0.1122
  154MOL    H1649282   3.164   0.946   1.953  1.0514  0.9025  1.0120
  154MOL    H1749283   3.391   0.682   1.714  1.7565  0.7020 -2.0785
  154MOL    C1849284   3.501   0.697   2.052  0.0433  0.6901 -0.4927
  154MOL    C1949285   3.644   0.743   2.005  0.0934  1.5565 -0.3233
  154MOL    C2049286   3.493   0.554   2.135 -0.0184  0.1568 -0.4526
  154MOL    C2149287   3.354   0.530   2.193 -0.1647  0.2362 -0.7920
  154MOL    C2249288   3.316   0.387   2.187  0.1337 -0.3962  0.1766
  154MOL    C2349289   3.269   0.628   2.242  0.3935 -0.5787 -0.3166
  154MOL    H2449290   3.464   0.775   2.119 -1.2505 -1.3409  1.2497
  154MOL    H2549291   3.635   0.826   1.936 -0.8287  0.9650 -0.9308
  154MOL    H2649292   3.690   0.659   1.952 -0.9755 -0.0023  1.1403
  154MOL    H2749293   3.703   0.777   2.090  1.1642 -1.0079  0.0154
  154MOL    H2849294   3.506   0.473   2.063  2.6901  2.2847 -2.4280
  154MOL    H2949295   3.212   0.359   2.207  0.0396  0.2451  0.5924
  154MOL    H3049296   3.363   0.346   2.276 -1.9672 -2.5725  0.3528
  154MOL    H3149297   3.353   0.342   2.095 -0.7569 -0.6121 -0.0800
  154MOL    H3249298   3.301   0.730   2.254 -1.2028 -0.4359  3.2807
  154MOL    H3349299   3.170   0.596   2.272  0.3240 -0.3519 -0.3067
  154MOL    C3449300   3.598   0.549   2.259 -0.0180  0.5474 -0.5182
  154MOL    C3549301   3.605   0.674   2.355  0.7483  0.4158 -1.0249
  154MOL    C3649302   3.741   0.492   2.216  0.2281 -0.0716 -0.6180
  154MOL    C3749303   3.725   0.359   2.142  0.1043  0.2211 -0.9311
  154MOL    C3849304   3.791   0.350   2.009 -0.0219 -0.1050  1.0015
  154MOL    C3949305   3.661   0.249   2.186 -0.5508 -0.3264  0.1409
  154MOL    H4049306   3.556   0.469   2.319  1.4206  1.1504  1.3386
  154MOL    H4149307   3.505   0.706   2.382 -0.4367 -3.0537 -1.1502
  154MOL    H4249308   3.654   0.759   2.307 -0.3448  1.7504  0.1821
  154MOL    H4349309   3.663   0.646   2.443 -0.9641 -0.0381 -0.0306
  154MOL    H4449310   3.789   0.553   2.139 -0.7523 -0.7344 -1.7753
  154MOL    H4549311   3.788   0.441   1.949  0.3485  0.2825  1.5645
  154MOL    H4649312   3.738   0.281   1.943  1.6683 -0.0346 -0.4487
  154MOL    H4749313   3.891   0.306   2.005  1.1368  2.4833  0.7515
  154MOL    H4849314   3.625   0.250   2.288 -1.5076  2.2990 -0.1888
  154MOL    H4949315   3.645   0.162   2.124 -0.7140  0.1207 -0.4476
  154MOL    C5049316   3.843   0.468   2.341 -0.6652 -0.5589  0.3490
  154MOL    C5149317   3.784   0.418   2.474  0.1189  0.1011  0.6702
  154MOL    C5249318   3.950   0.574   2.368 -0.4195  0.2298 -0.3415
  154MOL    C5349319   3.978   0.657   2.245  0.3008  0.1667 -0.1292
  154MOL    C5449320   4.061   0.596   2.138  0.1482 -0.1893 -0.1214
  154MOL    C5549321   3.948   0.784   2.243  0.6818 -0.0996 -0.0752
  154MOL    H5649322   3.898   0.383   2.301  0.8802  0.2446  0.7589
  154MOL    H5749323   3.701   0.350   2.453  0.3265 -0.2583  1.0147
  154MOL    H5849324   3.746   0.491   2.546 -0.5389  1.0838 -0.6613
  154MOL    H5949325   3.857   0.358   2.528 -0.0787  0.6819  1.5913
  154MOL    H6049326   3.901   0.642   2.437  1.5988  1.5994 -0.2078
  154MOL    H6149327   4.167   0.590   2.164 -0.3930  0.5371  2.4689
  154MOL    H6249328   4.076   0.666   2.057 -0.2569  0.0057 -0.0279
  154MOL    H6349329   4.028   0.503   2.091 -1.9114  0.7109 -0.5250
  154MOL    H6449330   3.890   0.830   2.322  0.7494 -0.9571  0.4760
  154MOL    H6549331   3.964   0.851   2.159 -0.7228  1.0749  0.5713
  154MOL    C6649332   4.093   0.526   2.437  0.2529  0.3176  0.0008
  154MOL    C6749333   4.134   0.389   2.382 -0.3261 -0.4007  0.6384
  154MOL    C6849334   4.098   0.536   2.592 -0.1535 -0.1863  0.6593
  154MOL    C6949335   4.045   0.668   2.656 -0.5748 -0.6416 -0.5232
  154MOL    C7049336   4.108   0.797   2.603 -0.0800 -0.4958 -0.5521
  154MOL    C7149337   3.945   0.681   2.748 -0.1228 -1.1712 -0.1276
  154MOL    H7249338   4.162   0.600   2.396 -0.1699 -0.2536 -1.8317
  154MOL    H7349339   4.242   0.380   2.381 -0.3155 -0.2339  0.3001
  154MOL    H7449340   4.102   0.380   2.278 -0.5161  1.4654  0.5115
  154MOL    H7549341   4.088   0.312   2.444 -0.3783  0.3370  1.5206
  154MOL    H7649342   4.027   0.462   2.628  1.6595 -2.6360 -0.6598
  154MOL    H7749343   4.072   0.811   2.501  1.5791  0.8979 -0.9678
  154MOL    H7849344   4.217   0.801   2.606  0.1604 -1.9058 -4.5732
  154MOL    H7949345   4.058   0.880   2.654  0.2580 -0.0338 -0.9760
  154MOL    H8049346   3.898   0.595   2.794 -0.7479 -1.0179 -0.4841
  154MOL    H8149347   3.904   0.775   2.783  1.1254 -0.8148  0.4291
  154MOL    C8249348   4.237   0.502   2.654  0.5633 -0.2563  0.1928
  154MOL    C8349349   4.358   0.540   2.563  0.3840  0.0224 -0.1090
  154MOL    C8449350   4.251   0.351   2.707  0.4849  0.9390 -0.8981
  154MOL    C8549351   4.137   0.304   2.793  0.2586  0.1981  0.4479
  154MOL    C8649352   4.106   0.381   2.925 -0.3388 -0.1657 -0.0777
  154MOL    C8749353   4.063   0.201   2.754  0.3511  0.2722 -0.2658
  154MOL    H8849354   4.260   0.564   2.741  0.1567  2.4446 -1.5868
  154MOL    H8949355   4.383   0.476   2.479 -1.7607  0.3577 -1.0398
  154MOL    H9049356   4.439   0.550   2.635  0.2717 -1.2026  0.1886
  154MOL    H9149357   4.348   0.635   2.510 -0.4085 -0.3316 -0.5890
  154MOL    H9249358   4.240   0.302   2.610 -1.5055 -2.1074  0.7863
  154MOL    H9349359   4.016   0.346   2.976 -1.0480 -1.5340 -2.1893
  154MOL    H9449360   4.111   0.489   2.914  1.8824 -0.3092 -0.7001
  154MOL    H9549361   4.188   0.360   2.993 -1.9427 -0.1543  1.9145
  154MOL    H9649362   4.080   0.139   2.667  0.8390  0.3395 -0.2206
  154MOL    H9749363   3.980   0.173   2.819  0.5452 -0.3177 -0.2683
  154MOL    C9849364   4.391   0.302   2.767 -0.3139 -0.3536  0.5855
  154MOL    C9949365   4.451   0.410   2.867  0.6146  0.2755 -0.1187
  154MOL   C10049366   4.497   0.259   2.653 -0.8537  0.0344  0.6928
  154MOL   C10149367   4.439   0.155   2.550 -0.4226  0.1438 -0.3485
  154MOL   C10249368   4.500   0.148   2.411 -0.1772 -0.3000  0.4501
  154MOL   C10349369   4.355   0.059   2.582 -0.0570  0.2048 -0.3963
  154MOL   H10449370   4.372   0.209   2.820  0.1733  0.1233  1.6271
  154MOL   H10549371   4.499   0.490   2.809 -0.6346  0.6712 -0.6282
  154MOL   H10649372   4.526   0.370   2.934  0.1653  2.2577  1.6333
  154MOL   H10749373   4.385   0.476   2.924 -0.1525 -1.4578  1.0237
  154MOL   H10849374   4.515   0.351   2.597  0.4731 -0.5252  0.2040
  154MOL   H10949375   4.517   0.250   2.375  0.3127  0.1022  1.7912
  154MOL   H11049376   4.433   0.089   2.348  2.6508 -2.3210 -0.7214
  154MOL   H11149377   4.590   0.088   2.410 -0.0192 -0.0561  0.2213
  154MOL   H11249378   4.314   0.059   2.682 -0.7480 -1.2813 -0.6672
  154MOL   H11349379   4.315   7.866   2.531  0.1848 -1.8683  2.7470
  154MOL   C11449380   4.647   0.223   2.693  0.4785 -0.3228  0.0484
  154MOL   C11549381   4.644   0.115   2.800  0.3966 -0.7238  0.4664
  154MOL   C11649382   4.742   0.344   2.731  0.8535  0.6511  0.1324
  154MOL   C11749383   4.753   0.442   2.618 -0.1001  0.3186  0.2383
  154MOL   C11849384   4.728   0.588   2.651 -0.0964  0.1694 -0.5304
  154MOL   C11949385   4.789   0.408   2.494 -0.5117 -1.1364 -0.4388
  154MOL   H12049386   4.687   0.170   2.606  1.1763  0.3525 -0.0529
  154MOL   H12149387   4.584   0.028   2.772 -0.8668 -0.0312  0.9808
  154MOL   H12249388   4.626   0.152   2.901 -1.4134  0.6818 -0.3419
  154MOL   H12349389   4.740   0.065   2.810  0.0514 -2.0293 -2.1512
  154MOL   H12449390   4.683   0.406   2.799 -0.6156  0.3274 -0.8385
  154MOL   H12549391   4.806   0.629   2.715  0.0003  0.2124 -0.6753
  154MOL   H12649392   4.640   0.620   2.706  0.0419 -1.8372  0.9156
  154MOL   H12749393   4.739   0.646   2.559  0.9329  0.2629 -0.3524
  154MOL   H12849394   4.818   0.307   2.472 -0.1585 -0.3399 -4.0587
  154MOL   H12949395   4.804   0.480   2.414 -2.1023  0.2368  0.4539
  154MOL   C13049396   4.883   0.323   2.801  0.1700 -0.1417  0.1466
  154MOL   C13149397   4.977   0.231   2.719  0.2011  0.2758  0.6424
  154MOL   C13249398   4.881   0.295   2.948  0.9723 -0.7018 -0.3664
  154MOL   C13349399   4.812   0.407   3.032 -0.5027  0.8295  0.0180
  154MOL   C13449400   4.741   0.360   3.157  0.1663 -0.0216  0.1280
  154MOL   C13549401   4.811   0.537   3.007 -0.1383 -0.0662 -1.1519
  154MOL   H13649402   4.935   0.417   2.783 -1.4611  0.7801  0.1591
  154MOL   H13749403   5.077   0.266   2.746  0.2580  0.0187  0.7675
  154MOL   H13849404   4.958   0.251   2.614 -0.4023 -1.2252  0.4550
  154MOL   H13949405   4.971   0.123   2.724 -0.9314  0.2293 -1.1035
  154MOL   H14049406   4.830   0.199   2.958 -0.5344  0.1132 -0.2096
  154MOL   H14149407   4.798   0.392   3.245  1.2243 -0.1506 -0.5045
  154MOL   H14249408   4.728   0.252   3.160  0.9673 -0.0867  1.5823
  154MOL   H14349409   4.649   0.417   3.170  0.3201 -0.0889  1.5848
  154MOL   H14449410   4.866   0.566   2.919  2.8376 -0.4475  0.5352
  154MOL   H14549411   4.768   0.612   3.072 -1.2783  0.0704 -2.0389
  154MOL   C14649412   5.025   0.281   3.019 -0.2089  0.6371  0.1997
  154MOL   C14749413   5.127   0.396   2.974 -0.5102  0.7088  0.0566
  154MOL   C14849414   5.097   0.140   3.015  0.6936 -0.1570 -0.1559
  154MOL   C14949415   5.002   0.022   3.064 -0.1248  0.2658 -0.4738
  154MOL   C15049416   5.017   7.786   2.987  0.9581 -0.7292  0.1443
  154MOL   C15149417   4.918   0.033   3.164  0.3541 -0.3092  0.2264
  154MOL   H15249418   5.008   0.295   3.126  1.5304 -1.0699  0.7278
  154MOL   H15349419   5.213   0.401   3.040 -0.4435 -0.9900  0.1259
  154MOL   H15449420   5.079   0.492   2.952 -0.5568  0.7779  0.4648
  154MOL   H15549421   5.176   0.373   2.879 -0.7247  0.4031  0.0176
  154MOL   H15649422   5.117   0.113   2.912  2.6923 -4.1052  1.1397
  154MOL   H15749423   4.958   7.707   3.033  0.8122 -1.1008 -0.6538
  154MOL   H15849424   5.121   7.754   2.976  0.8088 -1.2961  0.3605
  154MOL   H15949425   4.982   7.800   2.885 -1.0791 -2.2212  0.6064
  154MOL   H16049426   4.899   0.121   3.224 -1.6454 -1.0053  0.6503
  154MOL   H16149427   4.853   7.845   3.195 -1.2253  0.6471 -0.5489
  154MOL   C16249428   5.230   0.125   3.098  0.1695  0.1813 -0.1041
  154MOL   C16349429   5.233   0.199   3.237 -0.6413  0.1522  0.2679
  154MOL   C16449430   5.362   0.142   3.009  0.1598 -0.1309  0.0194
  154MOL   C16549431   5.371   0.026   2.912 -0.5726  0.0246  0.1539
  154MOL   C16649432   5.410   7.783   2.967 -0.0421  0.6428 -0.0345
  154MOL   C16749433   5.360   0.042   2.782 -1.2125 -0.2379 -0.2712
  154MOL   H16849434   5.231   0.024   3.139  4.0427  0.3874  0.4708
  154MOL   H16949435   5.265   0.303   3.228  2.1423 -0.6455  0.3394
  154MOL   H17049436   5.304   0.146   3.301 -3.3187 -2.3881  1.2199
  154MOL   H17149437   5.134   0.191   3.282 -1.4617  0.3023 -1.5087
  154MOL   H17249438   5.335   0.229   2.950 -0.5504  0.7947  1.6630
  154MOL   H17349439   5.388   7.704   2.895  2.7916 -0.6886  0.5192
  154MOL   H17449440   5.354   7.767   3.059 -1.8564 -1.1686 -1.3985
  154MOL   H17549441   5.511   7.760   2.999 -0.4214 -1.8107 -0.4906
  154MOL   H17649442   5.333   0.140   2.744 -5.2570 -1.0107  0.3326
  154MOL   H17749443   5.377   7.852   2.714 -0.5812  1.5434 -2.3584
  154MOL   C17849444   5.501   0.169   3.081 -0.1163  0.3028  0.2856
  154MOL   C17949445   5.536   0.082   3.200  0.3665  0.0345  0.2323
  154MOL   C18049446   5.545   0.321   3.096 -0.9306  0.2473  0.2046
  154MOL   C18149447   5.538   0.399   2.966 -0.2529 -0.4871 -0.0560
  154MOL   C18249448   5.470   0.535   2.973  0.7198  0.1881  0.5911
  154MOL   C18349449   5.605   0.357   2.850  0.0101 -0.1133 -0.2792
  154MOL   H18449450   5.577   0.138   3.009 -0.3483  0.7944 -0.1780
  154MOL   H18549451   5.633   0.033   3.195  1.1913  1.6621 -0.4612
  154MOL   H18649452   5.471   7.888   3.209  0.2747  0.2183  1.3408
  154MOL   H18749453   5.514   0.132   3.294  0.7590  3.2556 -1.3065
  154MOL   H18849454   5.474   0.362   3.168 -0.5610 -0.6733  1.1149
  154MOL   H18949455   5.380   0.522   3.034 -0.6490 -1.0950 -1.6296
  154MOL   H19049456   5.443   0.563   2.872  0.2395  0.2954  0.7454
  154MOL   H19149457   5.529   0.615   3.017  1.5011  0.7773 -1.4814
  154MOL   H19249458   5.652   0.261   2.856 -2.1184 -1.1407  0.5762
  154MOL   H19349459   5.601   0.405   2.753 -0.5470 -0.4282 -0.4173
  154MOL   C19449460   5.686   0.355   3.167 -0.1940 -0.1403  0.1507
  154MOL   C19549461   5.800   0.279   3.107  0.0561  0.6832  1.2956
  154MOL   C19649462   5.693   0.365   3.321  0.2823  0.4507 -0.2374
  154MOL   C19749463   5.565   0.423   3.386 -0.5680  0.6580  0.0245
  154MOL   C19849464   5.529   0.564   3.361  0.2283  0.2606  0.4470
  154MOL   C19949465   5.488   0.343   3.451 -0.5101 -0.0843 -0.1381
  154MOL   H20049466   5.702   0.459   3.136  0.1377 -0.3386 -0.3545
  154MOL   H20149467   5.797   0.173   3.131  1.3084  0.2583 -0.3783
  154MOL   H20249468   5.901   0.306   3.138 -0.5112  1.8029  2.2280
  154MOL   H20349469   5.797   0.283   2.999  0.4895 -1.5285  1.1795
  154MOL   H20449470   5.688   0.261   3.355 -0.5027  0.0707 -1.4611
  154MOL   H20549471   5.569   0.639   3.428 -0.3103 -0.8858  2.0850
  154MOL   H20649472   5.421   0.579   3.369  0.2622 -0.0298  1.4700
  154MOL   H20749473   5.560   0.596   3.261  0.6463  0.3797  0.6139
  154MOL   H20849474   5.504   0.238   3.468 -0.9701 -0.2223 -0.5244
  154MOL   H20949475   5.399   0.389   3.492 -1.1439 -0.7679 -0.7181
  154MOL   C21049476   5.822   0.432   3.386  0.2361 -0.0229 -0.4704
  154MOL   C21149477   5.869   0.554   3.292 -0.5065 -0.1065  0.7684
  154MOL   C21249478   5.933   0.325   3.436  0.5291 -0.2928 -0.4990
  154MOL   C21349479   5.868   0.232   3.530  0.3471  0.2219  0.8414
  154MOL   C21449480   5.879   0.086   3.503 -0.6384  0.1490  0.3924
  154MOL   C21549481   5.800   0.266   3.645  0.3645  0.1031  0.6529
  154MOL   H21649482   5.783   0.484   3.473 -0.0965 -1.4734  0.2478
  154MOL   H21749483   5.796   0.634   3.280 -0.6620 -0.2609  0.6865
  154MOL   H21849484   5.907   0.513   3.199 -1.1641 -1.0568  0.9047
  154MOL   H21949485   5.964   0.589   3.333 -1.3249  1.2141  1.5778
  154MOL   H22049486   5.955   0.266   3.347  2.1800 -0.0262 -0.2864
  154MOL   H22149487   5.848   0.050   3.405 -0.1840  0.5875  0.0853
  154MOL   H22249488   5.819   0.035   3.578 -0.4251  1.2410  1.3280
  154MOL   H22349489   5.981   0.049   3.501 -0.6406  0.1963 -1.1842
  154MOL   H22449490   5.778   0.369   3.670  0.4109  0.2463  0.1004
  154MOL   H22549491   5.766   0.193   3.717 -2.0911  1.9506  1.4254
  154MOL   C22649492   6.076   0.364   3.498  0.1636 -0.3233 -0.3581
  154MOL   C22749493   6.060   0.483   3.601 -0.2116  0.5684 -0.0691
  154MOL   C22849494   6.192   0.379   3.387 -1.2114 -0.1334 -0.0418
  154MOL   C22949495   6.181   0.263   3.287 -0.4406 -0.0552 -0.4310
  154MOL   C23049496   6.218   0.120   3.328 -0.1359 -0.1823  0.3272
  154MOL   C23149497   6.152   0.286   3.156 -0.0803  0.3967  0.0530
  154MOL   H23249498   6.109   0.278   3.555  0.3082 -1.0441 -1.5217
  154MOL   H23349499   6.000   0.437   3.680  1.6116 -0.5615  0.7095
  154MOL   H23449500   5.999   0.564   3.563  1.5436  2.4419  1.0193
  154MOL   H23549501   6.154   0.521   3.642  0.5912 -1.6968  0.3225
  154MOL   H23649502   6.156   0.469   3.337 -1.6087  0.0240  0.5273
  154MOL   H23749503   6.179   0.048   3.255  1.2277  0.1309 -0.7313
  154MOL   H23849504   6.165   0.082   3.416 -0.1212  1.0551  0.8778
  154MOL   H23949505   6.325   0.101   3.331 -0.0045  0.3758 -0.6006
  154MOL   H24049506   6.126   0.384   3.119 -1.3471  0.1133  0.1889
  154MOL   H24149507   6.139   0.203   3.088  1.8638 -2.1464  2.6334
  154MOL   C24249508   6.341   0.395   3.426  1.1018 -0.0102  0.2492
  154MOL   C24349509   6.367   0.317   3.562 -0.3510 -0.4206 -0.2233
  154MOL   C24449510   6.384   0.544   3.436  1.1800  0.2131  0.4417
  154MOL   C24549511   6.375   0.611   3.299  0.2338  0.9855 -0.4183
  154MOL   C24649512   6.298   0.742   3.307  0.2374 -0.0253  0.1005
  154MOL   C24749513   6.424   0.563   3.185  0.8170  0.1082  0.1166
  154MOL   H24849514   6.406   0.350   3.351 -1.6205 -1.2970 -1.4210
  154MOL   H24949515   6.328   0.216   3.554 -0.5997 -0.3288 -0.1556
  154MOL   H25049516   6.311   0.361   3.644  0.9113  1.0414 -0.1198
  154MOL   H25149517   6.472   0.320   3.591 -0.1773  1.4980 -0.9496
  154MOL   H25249518   6.304   0.589   3.495 -0.0074  0.1356 -1.0962
  154MOL   H25349519   6.191   0.726   3.308 -0.5122  4.5844  0.5848
  154MOL   H25449520   6.325   0.794   3.215  0.7963 -1.3360 -0.4974
  154MOL   H25549521   6.326   0.807   3.390 -1.3308  1.6688 -0.6670
  154MOL   H25649522   6.479   0.473   3.161 -1.4972 -1.1862 -0.4677
  154MOL   H25749523   6.409   0.617   3.093  1.2652 -2.0015 -1.2349
  154MOL   C25849524   6.524   0.575   3.506 -0.5346 -0.0961  0.6160
  154MOL   C25949525   6.641   0.493   3.443  0.6812 -0.4546 -0.4542
  154MOL   C26049526   6.531   0.591   3.659 -0.1201  0.4888  0.6693
  154MOL   C26149527   6.420   0.685   3.707 -0.9080 -0.1261  0.2528
  154MOL   C26249528   6.338   0.641   3.829  0.0562  0.2145 -0.1221
  154MOL   C26349529   6.390   0.805   3.665  0.1612 -0.1197  0.5558
  154MOL   H26449530   6.553   0.675   3.473  0.3867 -0.3778  0.5719
  154MOL   H26549531   6.735   0.537   3.475  2.3501 -3.1842 -1.4223
  154MOL   H26649532   6.638   0.500   3.335 -2.9402  2.2870 -0.2949
  154MOL   H26749533   6.655   0.388   3.469  2.2220 -0.5887 -1.7625
  154MOL   H26849534   6.494   0.496   3.698  0.5150 -0.1930 -0.3728
  154MOL   H26949535   6.230   0.656   3.819 -0.5024 -1.5118  2.5198
  154MOL   H27049536   6.375   0.702   3.911 -3.7110 -0.6661  2.4054
  154MOL   H27149537   6.345   0.533   3.843  0.1861  0.2121 -0.2063
  154MOL   H27249538   6.442   0.848   3.581 -1.3367 -0.8939 -0.7989
  154MOL   H27349539   6.303   0.857   3.701 -0.9290 -0.9714 -0.7719
  154MOL   C27449540   6.665   0.630   3.731 -0.3766  0.1992 -0.1067
  154MOL   C27549541   6.750   0.729   3.654  0.5163 -0.2870  0.7141
  154MOL   C27649542   6.737   0.495   3.796  0.2952  0.0323 -0.1318
  154MOL   C27749543   6.632   0.421   3.882  0.5008  0.6616  0.5813
  154MOL   C27849544   6.586   0.478   4.017  0.0737  0.1786 -0.3577
  154MOL   C27949545   6.593   0.294   3.850 -0.1615  0.0774  0.2530
  154MOL   H28049546   6.629   0.685   3.818  0.1224 -0.4225  0.4965
  154MOL   H28149547   6.794   0.789   3.733 -0.0959 -0.2795  1.0434
  154MOL   H28249548   6.693   0.802   3.597  0.3694 -1.7848 -1.1176
  154MOL   H28349549   6.833   0.683   3.600 -0.0348 -0.2845 -0.1429
  154MOL   H28449550   6.754   0.447   3.700  0.8854  1.8865 -0.9619
  154MOL   H28549551   6.659   0.465   4.096  0.7364 -0.9231 -1.1417
  154MOL   H28649552   6.496   0.423   4.046 -0.0746  1.0475  0.8827
  154MOL   H28749553   6.549   0.581   4.012  1.2050  0.6946  1.6197
  154MOL   H28849554   6.622   0.253   3.755 -0.5762  1.3546 -0.4407
  154MOL   H28949555   6.523   0.237   3.910  0.4195  1.1635  2.0179
  154MOL   C29049556   6.875   0.507   3.873 -0.4079  0.3025  0.2077
  154MOL   C29149557   6.892   0.635   3.956  0.0445  0.3631  0.6139
  154MOL   C29249558   6.999   0.477   3.787 -1.0074  0.0452 -0.4073
  154MOL   C29349559   6.995   0.335   3.723 -0.1804  0.9085 -0.3867
  154MOL   C29449560   6.982   0.323   3.572 -0.9544 -0.1984  1.0694
  154MOL   C29549561   6.990   0.223   3.801 -0.1873  0.4654 -0.5033
  154MOL   H29649562   6.876   0.426   3.946  0.4719 -0.2822 -0.4401
  154MOL   H29749563   6.960   0.630   4.041 -1.0030  1.1336  1.5108
  154MOL   H29849564   6.792   0.663   3.988 -1.2689 -1.3600 -1.8350
  154MOL   H29949565   6.928   0.717   3.894  0.3708  1.0597  1.7255
  154MOL   H30049566   6.989   0.539   3.698  1.3437  1.6364  0.4129
  154MOL   H30149567   7.072   0.362   3.523 -1.4778 -2.4378 -1.8136
  154MOL   H30249568   6.904   0.389   3.535 -0.8648 -0.6605  0.0202
  154MOL   H30349569   6.960   0.223   3.534 -0.4797  0.0129  0.2222
  154MOL   H30449570   6.989   0.230   3.909  2.7574 -0.7788 -0.3415
  154MOL   H30549571   6.981   0.124   3.757  1.7401  0.0541 -0.0132
  154MOL   C30649572   7.144   0.508   3.847  0.5175  0.4017 -0.1503
  154MOL   C30749573   7.253   0.487   3.744 -0.0446 -0.3877  0.4540
  154MOL   C30849574   7.176   0.430   3.980 -0.2677 -0.0149 -0.0438
  154MOL   C30949575   7.284   0.500   4.065 -0.4180  0.1121  0.5166
  154MOL   C31049576   7.230   0.614   4.151  0.2802  0.7644 -0.4164
  154MOL   C31149577   7.419   0.486   4.036  0.3176  0.4136  0.4662
  154MOL   H31249578   7.148   0.614   3.870  2.8061  1.1444 -3.6163
  154MOL   H31349579   7.291   0.385   3.730  0.8245 -0.1185  0.8347
  154MOL   H31449580   7.343   0.541   3.773  0.4930 -1.6071  1.1328
  154MOL   H31549581   7.219   0.521   3.646 -1.0431  1.0686  1.2989
  154MOL   H31649582   7.085   0.398   4.031  0.2282 -1.9916 -0.3496
  154MOL   H31749583   7.299   0.655   4.225 -0.8151  1.2933  0.3126
  154MOL   H31849584   7.141   0.584   4.207  0.0992 -0.0632 -1.1400
  154MOL   H31949585   7.184   0.696   4.097  1.6433  0.9681 -1.2738
  154MOL   H32049586   7.448   0.419   3.957  1.8933  0.2562  1.1682
  154MOL   H32149587   7.493   0.540   4.093  0.5978 -1.5905  2.0410
  154MOL   H32249588   7.216   0.332   3.952 -1.5675 -0.6267  0.2046
  155MOL     C149589   6.768   5.873   3.949  0.1251 -0.7885  0.0743
  155MOL     C249590   6.623   5.882   3.943  0.0782  0.4516  0.2756
  155MOL     C349591   6.840   5.876   4.092  0.1709 -0.3452 -0.0064
  155MOL     C449592   6.810   6.000   4.177 -0.3942  0.4450  0.2293
  155MOL     C549593   6.783   5.974   4.318  0.8795  0.3830  0.3883
  155MOL     C649594   6.792   6.125   4.124  0.5595 -0.6215  0.1041
  155MOL     H749595   6.790   5.775   3.908 -0.9207 -1.0427  0.1263
  155MOL     H849596   6.587   5.880   3.840  0.0004 -0.0421  0.3130
  155MOL     H949597   6.597   5.984   3.974 -1.1229  0.2028  0.1031
  155MOL    H1049598   6.576   5.812   4.011  1.0940  0.3291  0.8645
  155MOL    H1149599   6.777   5.803   4.144  1.4816 -0.3905  1.5582
  155MOL    H1249600   6.706   5.899   4.333 -0.4868  2.1204  2.2805
  155MOL    H1349601   6.769   6.067   4.373 -2.4634  0.6797 -0.8720
  155MOL    H1449602   6.874   5.939   4.367  1.2348  0.0686 -0.4900
  155MOL    H1549603   6.816   6.144   4.021  2.6639  2.4213  1.0726
  155MOL    H1649604   6.763   6.211   4.184  1.9515 -0.7366  0.9783
  155MOL    H1749605   6.800   5.957   3.885 -0.4104 -0.4463  0.2535
  155MOL    C1849606   6.990   5.840   4.089  0.6355 -0.0068 -0.3260
  155MOL    C1949607   7.075   5.942   4.018  0.3931  0.0305  0.1811
  155MOL    C2049608   7.027   5.692   4.051  0.5792 -0.3603 -0.4205
  155MOL    C2149609   6.925   5.585   4.088 -0.6122  0.4995 -0.0403
  155MOL    C2249610   6.897   5.555   4.240 -0.2322  0.4256  0.3574
  155MOL    C2349611   6.864   5.506   3.993  0.2086 -0.0239 -0.3689
  155MOL    H2449612   7.009   5.856   4.195  1.6332  1.5509 -0.7194
  155MOL    H2549613   7.179   5.927   4.047  0.3280 -1.3071 -0.2687
  155MOL    H2649614   7.055   6.044   4.053  2.0649  0.5150 -0.2086
  155MOL    H2749615   7.067   5.934   3.909  2.5555 -0.9922  0.0662
  155MOL    H2849616   7.017   5.696   3.942  0.5837 -0.3339 -0.4198
  155MOL    H2949617   6.832   5.468   4.253 -1.9742  1.7083  0.4161
  155MOL    H3049618   6.841   5.637   4.287  0.3352 -0.1556  2.0843
  155MOL    H3149619   6.988   5.523   4.290 -0.6656  2.5296  2.5820
  155MOL    H3249620   6.882   5.522   3.887 -1.0641 -0.0286 -0.5951
  155MOL    H3349621   6.798   5.423   4.009  0.0800 -0.7124 -4.1027
  155MOL    C3449622   7.179   5.638   4.083 -0.3082  0.2094  0.8450
  155MOL    C3549623   7.219   5.680   4.230 -0.7015  0.5011  0.7284
  155MOL    C3649624   7.293   5.665   3.979  0.2942 -0.1807 -1.1334
  155MOL    C3749625   7.240   5.619   3.842  0.1021  1.0693  0.4278
  155MOL    C3849626   7.290   5.711   3.726  0.6030 -0.3549 -0.2913
  155MOL    C3949627   7.153   5.513   3.819  0.5317 -0.3331 -0.5945
  155MOL    H4049628   7.172   5.530   4.096 -0.0064  0.2771  1.5717
  155MOL    H4149629   7.131   5.686   4.294  0.5703  2.8192  2.3478
  155MOL    H4249630   7.260   5.781   4.233 -0.3275  0.3441  1.0193
  155MOL    H4349631   7.300   5.614   4.261 -1.3670 -1.4611 -1.5974
  155MOL    H4449632   7.300   5.773   3.976  0.8934 -0.0129  2.7590
  155MOL    H4549633   7.399   5.707   3.720  0.6253  0.5340 -0.6252
  155MOL    H4649634   7.266   5.817   3.737  1.4214 -0.1250 -0.6870
  155MOL    H4749635   7.249   5.674   3.632 -0.2026  0.6886 -0.3547
  155MOL    H4849636   7.123   5.448   3.900 -2.4055  1.0047 -0.5262
  155MOL    H4949637   7.119   5.494   3.718 -1.0375  4.4208 -1.1234
  155MOL    C5049638   7.440   5.606   3.998  0.5593 -0.5495  0.6232
  155MOL    C5149639   7.429   5.454   4.028 -0.2267 -0.3956  1.0519
  155MOL    C5249640   7.540   5.690   4.080 -0.4814  0.2544 -0.4019
  155MOL    C5349641   7.517   5.846   4.054 -0.5565 -0.3762  0.5061
  155MOL    C5449642   7.519   5.936   4.179 -0.2947 -0.0196 -0.1649
  155MOL    C5549643   7.514   5.909   3.937  0.5353  0.2206  0.2512
  155MOL    H5649644   7.470   5.616   3.894  1.8656 -1.2866  0.9041
  155MOL    H5749645   7.400   5.441   4.133  0.1915 -1.3276  1.0627
  155MOL    H5849646   7.516   5.390   4.014 -0.8331 -1.0695  0.2702
  155MOL    H5949647   7.342   5.403   3.985 -0.6588  1.3893 -0.2389
  155MOL    H6049648   7.488   5.685   4.176  2.2477 -1.8089  1.0223
  155MOL    H6149649   7.477   5.878   4.260  0.2014 -1.2288 -0.7622
  155MOL    H6249650   7.452   6.021   4.172  1.6227  1.5089 -0.5400
  155MOL    H6349651   7.620   5.973   4.200 -0.1829 -0.5189  0.1731
  155MOL    H6449652   7.514   5.852   3.845 -1.2472  0.1829  0.2494
  155MOL    H6549653   7.503   6.016   3.928  0.8900  0.3614  1.4125
  155MOL    C6649654   7.689   5.650   4.069  1.3751  0.6477 -0.2188
  155MOL    C6749655   7.740   5.662   3.922 -0.3464 -0.2442  0.1372
  155MOL    C6849656   7.739   5.518   4.138 -0.4506 -0.1328 -0.2995
  155MOL    C6949657   7.670   5.479   4.270  0.0055  0.0125  0.3001
  155MOL    C7049658   7.680   5.581   4.378  0.3427 -0.7326  0.9585
  155MOL    C7149659   7.622   5.356   4.292 -0.2768  0.8824 -0.5267
  155MOL    H7249660   7.733   5.731   4.127 -0.5822  0.9991  0.7961
  155MOL    H7349661   7.847   5.674   3.933 -0.7524  0.9472  3.2821
  155MOL    H7449662   7.707   5.753   3.872 -2.5643 -2.0773 -1.9017
  155MOL    H7549663   7.708   5.583   3.854 -0.8512  0.8565 -0.9237
  155MOL    H7649664   7.710   5.439   4.069 -0.7370 -0.9098  0.6897
  155MOL    H7749665   7.660   5.680   4.337 -0.9279 -0.5035  2.0968
  155MOL    H7849666   7.777   5.585   4.427  0.1448 -2.2901  1.5019
  155MOL    H7949667   7.597   5.563   4.446 -0.2881 -1.4943 -0.0018
  155MOL    H8049668   7.641   5.282   4.216  1.4249 -0.0588  0.7822
  155MOL    H8149669   7.566   5.335   4.382  1.5078 -0.6717  0.2647
  155MOL    C8249670   0.000   5.493   4.149 -0.1892 -0.5729 -0.2561
  155MOL    C8349671   0.080   5.619   4.181 -0.8564  0.5166  0.1515
  155MOL    C8449672   0.056   5.412   4.028  0.2551  0.2789  0.2503
  155MOL    C8549673   0.001   5.269   4.021  0.1551 -0.7171  0.2128
  155MOL    C8649674   7.822   5.225   3.896 -0.4743  0.2079 -0.5447
  155MOL    C8749675   0.015   5.185   4.128  0.1492 -0.3242 -0.3381
  155MOL    H8849676   0.023   5.429   4.234  1.1914 -0.5866 -0.6283
  155MOL    H8949677   0.186   5.593   4.177 -1.2483 -0.8738 -1.7348
  155MOL    H9049678   0.054   5.648   4.283 -2.1199  1.6609 -0.4783
  155MOL    H9149679   0.054   5.696   4.108 -1.2676 -1.1862 -1.5343
  155MOL    H9249680   0.006   5.456   3.942 -0.0030  0.5218  0.5255
  155MOL    H9349681   7.868   5.241   3.798  0.7359  1.5435  0.2107
  155MOL    H9449682   7.735   5.289   3.891  0.3266  1.4933  1.3882
  155MOL    H9549683   7.789   5.123   3.916 -0.6807  0.1824 -1.0005
  155MOL    H9649684   0.063   5.216   4.221  0.9276 -1.8552 -0.2142
  155MOL    H9749685   7.860   5.089   4.121 -1.5110  0.4664 -0.1553
  155MOL    C9849686   0.209   5.418   3.984 -0.0042  0.1778 -0.4617
  155MOL    C9949687   0.302   5.365   4.097 -0.1819 -0.1031  0.3673
  155MOL   C10049688   0.262   5.549   3.904  0.0781  0.1669  0.6609
  155MOL   C10149689   0.170   5.573   3.775 -0.5192  0.5081 -0.6552
  155MOL   C10249690   0.150   5.724   3.744 -0.0821  0.5519  0.3947
  155MOL   C10349691   0.114   5.482   3.699  0.4410  0.6235 -0.1007
  155MOL   H10449692   0.211   5.336   3.911  2.0135  0.7647 -1.0802
  155MOL   H10549693   0.325   5.445   4.167  0.0705  0.9671 -0.9209
  155MOL   H10649694   0.390   5.314   4.059  1.1333  0.0735  3.0075
  155MOL   H10749695   0.254   5.285   4.154 -0.9742 -0.6429 -1.0240
  155MOL   H10849696   0.238   5.630   3.973 -0.6221 -1.1913  2.0699
  155MOL   H10949697   0.103   5.749   3.649  0.0636  2.7103  0.8481
  155MOL   H11049698   0.248   5.766   3.722  0.0371 -0.0037 -0.1491
  155MOL   H11149699   0.091   5.781   3.816 -2.5938 -1.8633  0.2984
  155MOL   H11249700   0.126   5.377   3.720 -2.1082  0.0424 -1.3601
  155MOL   H11349701   0.060   5.510   3.610  1.0883  1.1230 -0.3469
  155MOL   C11449702   0.412   5.553   3.859 -0.6903 -0.1436  0.7051
  155MOL   C11549703   0.449   5.426   3.783 -0.3851  0.2460 -0.3471
  155MOL   C11649704   0.530   5.603   3.968  0.7516  0.3567 -0.3231
  155MOL   C11749705   0.478   5.712   4.063  0.0099 -0.2322  0.5912
  155MOL   C11849706   0.533   5.699   4.208  0.4729 -0.7859 -0.1629
  155MOL   C11949707   0.407   5.818   4.022 -0.3508 -0.0283  0.4828
  155MOL   H12049708   0.416   5.635   3.787 -1.3470  0.6828  1.5932
  155MOL   H12149709   0.365   5.385   3.728  1.6362 -3.5786 -0.7398
  155MOL   H12249710   0.483   5.351   3.853 -1.1789 -0.8993 -1.1727
  155MOL   H12349711   0.526   5.436   3.707 -0.1139 -4.3991 -0.8268
  155MOL   H12449712   0.538   5.515   4.033  2.0619 -1.4729 -2.8767
  155MOL   H12549713   0.471   5.764   4.270  1.5026  1.7563 -1.7203
  155MOL   H12649714   0.636   5.734   4.215  0.2309 -0.1131  0.0291
  155MOL   H12749715   0.525   5.593   4.234 -0.1839 -0.6269  0.3022
  155MOL   H12849716   0.386   5.814   3.916  1.3341 -1.7522  0.1940
  155MOL   H12949717   0.370   5.897   4.085 -0.1887  0.1814  0.3156
  155MOL   C13049718   0.679   5.641   3.933 -0.4613 -0.1942  0.1002
  155MOL   C13149719   0.676   5.754   3.827 -0.0862  0.2124 -0.2529
  155MOL   C13249720   0.774   5.524   3.899  0.0801  0.0124  1.1040
  155MOL   C13349721   0.786   5.432   4.021  0.6131  0.5714 -0.1859
  155MOL   C13449722   0.802   5.283   3.983  0.9543 -0.2391 -0.2797
  155MOL   C13549723   0.797   5.468   4.148  0.1596  0.6259 -0.4341
  155MOL   H13649724   0.725   5.686   4.021  1.4432  1.0108 -1.4723
  155MOL   H13749725   0.643   5.722   3.728 -0.3407  1.5414 -0.6090
  155MOL   H13849726   0.767   5.814   3.824  2.0322 -2.7269  1.7898
  155MOL   H13949727   0.608   5.835   3.852  0.4723  0.9874 -1.1913
  155MOL   H14049728   0.723   5.473   3.817 -0.2661  0.8487  0.7971
  155MOL   H14149729   0.900   5.258   3.942  0.9076 -2.4004  0.8386
  155MOL   H14249730   0.723   5.254   3.914  0.6930 -1.3733  0.4944
  155MOL   H14349731   0.790   5.220   4.071 -3.3527  0.4432 -0.3054
  155MOL   H14449732   0.801   5.571   4.178  0.0868  0.4008  0.3524
  155MOL   H14549733   0.804   5.387   4.219  3.0554 -0.1539 -1.5438
  155MOL   C14649734   0.914   5.550   3.831 -0.1946 -0.2131  0.3084
  155MOL   C14749735   1.001   5.638   3.922 -0.3631 -0.0954 -1.0589
  155MOL   C14849736   0.916   5.580   3.676 -0.6822 -0.4199  0.2240
  155MOL   C14949737   0.829   5.477   3.597  0.3527  0.1704  0.6166
  155MOL   C15049738   0.757   5.534   3.479 -0.5202  0.2073 -0.7469
  155MOL   C15149739   0.823   5.345   3.629  0.1475 -0.3606  0.3006
  155MOL   H15249740   0.969   5.456   3.841  0.0248  0.1250  2.6524
  155MOL   H15349741   0.990   5.742   3.890 -0.4136 -0.0963 -1.0430
  155MOL   H15449742   1.109   5.640   3.901 -0.6011 -1.1494 -2.4912
  155MOL   H15549743   0.970   5.625   4.025  1.0305  0.1774 -0.5864
  155MOL   H15649744   0.878   5.680   3.656  1.4376  0.4624  0.4501
  155MOL   H15749745   0.813   5.547   3.387  0.5712  3.0041  0.2511
  155MOL   H15849746   0.722   5.632   3.512 -1.0680 -0.6183  1.1836
  155MOL   H15949747   0.675   5.468   3.450  0.8182 -0.8869 -2.0764
  155MOL   H16049748   0.868   5.305   3.718  0.9171 -1.0964 -0.4009
  155MOL   H16149749   0.774   5.267   3.571 -0.8733 -0.5927  1.4605
  155MOL   C16249750   1.059   5.598   3.610  0.2829  0.7533 -0.9237
  155MOL   C16349751   1.155   5.485   3.661 -0.9637 -0.8205  0.3957
  155MOL   C16449752   1.126   5.743   3.610 -0.4096 -0.7028  0.5282
  155MOL   C16549753   1.030   5.867   3.589 -0.3323  0.2905 -0.2358
  155MOL   C16649754   1.030   5.979   3.697 -0.4202  0.6259  0.0391
  155MOL   C16749755   0.953   5.870   3.487  0.5365  0.2485  0.5175
  155MOL   H16849756   1.047   5.580   3.504  2.7082 -1.0360 -0.9467
  155MOL   H16949757   1.125   5.393   3.610 -2.2117  0.7635 -1.8468
  155MOL   H17049758   1.167   5.472   3.768  0.2736 -0.3007  0.3255
  155MOL   H17149759   1.256   5.498   3.622 -2.2269  0.7846 -2.5875
  155MOL   H17249760   1.161   5.757   3.713  1.6263  0.6009 -0.3092
  155MOL   H17349761   1.130   6.007   3.730  0.6132 -1.3189 -1.3174
  155MOL   H17449762   0.966   5.958   3.783 -1.7260 -1.0005 -1.2855
  155MOL   H17549763   0.981   6.058   3.641 -1.8481 -1.3548 -1.5792
  155MOL   H17649764   0.962   5.785   3.420 -1.6206 -0.6938  1.3913
  155MOL   H17749765   0.878   5.941   3.456  1.3797  1.2368  0.7181
  155MOL   C17849766   1.271   5.752   3.534  0.5223 -0.2103  0.2735
  155MOL   C17949767   1.340   5.888   3.559  0.0877 -0.4400 -0.9633
  155MOL   C18049768   1.279   5.697   3.385 -1.2700 -0.0611  0.1152
  155MOL   C18149769   1.400   5.595   3.380 -0.1408  0.3819 -0.3441
  155MOL   C18249770   1.544   5.649   3.395  0.2681  0.0545 -0.0755
  155MOL   C18349771   1.379   5.463   3.360 -0.8761 -0.1121  0.1878
  155MOL   H18449772   1.340   5.684   3.584  0.2850 -2.0328 -1.8313
  155MOL   H18549773   1.431   5.894   3.499 -1.3207 -0.3378 -3.1450
  155MOL   H18649774   1.385   5.901   3.658  0.4740 -2.4611 -0.8635
  155MOL   H18749775   1.274   5.970   3.532  1.0747  1.0154  0.8907
  155MOL   H18849776   1.196   5.630   3.365 -2.3100  1.2426 -0.0398
  155MOL   H18949777   1.551   5.732   3.464 -1.1671 -0.7654  1.0868
  155MOL   H19049778   1.598   5.675   3.303  1.1277 -2.0739 -0.2251
  155MOL   H19149779   1.602   5.577   3.453  0.1300 -0.2642 -0.3336
  155MOL   H19249780   1.279   5.420   3.353 -1.1186  0.1706  1.6244
  155MOL   H19349781   1.468   5.402   3.363 -1.6038 -1.4238 -3.0435
  155MOL   C19449782   1.287   5.788   3.258  0.1774  0.3203  0.7052
  155MOL   C19549783   1.185   5.901   3.260  0.4263  0.6834 -0.1302
  155MOL   C19649784   1.270   5.715   3.115 -0.2371  0.3362 -0.1968
  155MOL   C19749785   1.374   5.771   3.019  0.1615  0.3285 -0.1091
  155MOL   C19849786   1.505   5.701   2.999 -0.0633 -0.8051 -1.1096
  155MOL   C19949787   1.341   5.866   2.929 -0.2941 -0.3878 -0.1230
  155MOL   H20049788   1.376   5.850   3.259  1.8394 -1.8895 -1.8576
  155MOL   H20149789   1.079   5.873   3.259  0.5921  0.0512 -0.6466
  155MOL   H20249790   1.195   5.960   3.169  1.2398  1.0492  0.1929
  155MOL   H20349791   1.199   5.978   3.335 -0.4123  0.6513  0.0687
  155MOL   H20449792   1.304   5.612   3.123 -2.9976 -0.8421 -2.8205
  155MOL   H20549793   1.515   5.636   3.085 -0.4877 -0.2562 -0.6386
  155MOL   H20649794   1.587   5.773   3.003 -1.4408  0.6849  2.0707
  155MOL   H20749795   1.499   5.640   2.909  2.7434 -3.3127  0.3431
  155MOL   H20849796   1.241   5.907   2.921  0.2924  1.4962  1.6452
  155MOL   H20949797   1.414   5.906   2.860 -0.3935  1.0880  0.6042
  155MOL   C21049798   1.134   5.688   3.051 -0.1420  0.4019  0.5058
  155MOL   C21149799   1.028   5.626   3.149 -0.8007  0.5727  0.5312
  155MOL   C21249800   1.137   5.622   2.903 -0.2683  0.4331  0.0840
  155MOL   C21349801   1.076   5.727   2.798 -0.0516  0.0396  0.2140
  155MOL   C21449802   1.131   5.711   2.652 -0.8950  0.1059  0.2694
  155MOL   C21549803   0.966   5.804   2.825 -0.2157 -0.9108 -0.1339
  155MOL   H21649804   1.091   5.788   3.046  0.8741  0.8982  1.4272
  155MOL   H21749805   1.020   5.671   3.248  0.2097  2.9765 -0.4307
  155MOL   H21849806   1.051   5.521   3.169 -4.5423 -0.4810 -0.4124
  155MOL   H21949807   0.932   5.631   3.099 -0.0360  1.4495 -0.8985
  155MOL   H22049808   1.240   5.604   2.870  0.4277 -0.0088  2.4116
  155MOL   H22149809   1.083   5.785   2.588 -0.3855  1.0546  0.9709
  155MOL   H22249810   1.098   5.614   2.615 -1.5527  0.8622 -1.1854
  155MOL   H22349811   1.238   5.708   2.630 -0.9530 -0.5466  0.0571
  155MOL   H22449812   0.907   5.808   2.915 -0.3967 -0.8204 -0.2536
  155MOL   H22549813   0.929   5.868   2.746 -0.3203 -0.4726  0.2677
  155MOL   C22649814   1.085   5.473   2.883 -0.0140  0.3628  0.5036
  155MOL   C22749815   0.929   5.457   2.901 -0.3228  0.2406 -0.0974
  155MOL   C22849816   1.171   5.359   2.963  0.1394 -0.6462 -0.4288
  155MOL   C22949817   1.324   5.363   2.929  0.4344 -0.3407  0.3602
  155MOL   C23049818   1.426   5.330   3.039 -0.2414  0.7977  0.2941
  155MOL   C23149819   1.371   5.394   2.808 -0.3653  0.0480  0.1346
  155MOL   H23249820   1.093   5.455   2.776  0.9091 -0.3024  0.6779
  155MOL   H23349821   0.892   5.367   2.851 -1.7013  1.0604 -0.5879
  155MOL   H23449822   0.875   5.538   2.853 -0.5944 -0.2207 -0.5805
  155MOL   H23549823   0.893   5.429   2.999  0.3643  0.5339  0.2439
  155MOL   H23649824   1.169   5.383   3.069  0.0676  0.0740 -0.5945
  155MOL   H23749825   1.405   5.239   3.095  0.9855  1.0108  1.1188
  155MOL   H23849826   1.421   5.407   3.116 -0.0713  0.4958  0.6078
  155MOL   H23949827   1.528   5.323   3.001 -0.6775 -0.7639 -0.6491
  155MOL   H24049828   1.315   5.425   2.721 -0.1967  1.8006  0.6181
  155MOL   H24149829   1.478   5.403   2.796 -0.3265 -1.8798 -1.2135
  155MOL   C24249830   1.119   5.210   2.949 -0.1440 -0.4493 -0.8217
  155MOL   C24349831   1.097   5.175   2.800 -0.4478 -0.6533  0.5229
  155MOL   C24449832   1.004   5.160   3.051  0.0608  0.6115  0.3121
  155MOL   C24549833   1.014   5.216   3.195  0.1347  0.0129  0.1902
  155MOL   C24649834   0.900   5.285   3.272  0.0244 -0.1605  0.7775
  155MOL   C24749835   1.135   5.215   3.256  0.2611 -0.0471  0.8049
  155MOL   H24849836   1.209   5.155   2.978  0.5195 -0.6185 -3.0848
  155MOL   H24949837   1.188   5.184   2.739  0.0237 -1.9222  1.0175
  155MOL   H25049838   1.023   5.229   2.742 -1.7735 -0.8480  2.0093
  155MOL   H25149839   1.088   5.067   2.787 -1.0010 -0.7365  1.5878
  155MOL   H25249840   0.921   5.224   3.023  1.2986  1.8602 -0.5207
  155MOL   H25349841   0.836   5.215   3.326 -1.4820  1.5558  1.2549
  155MOL   H25449842   0.844   5.359   3.216 -0.2796 -1.4876 -0.7158
  155MOL   H25549843   0.940   5.341   3.357 -1.4315 -0.3633  1.6166
  155MOL   H25649844   1.217   5.167   3.205  0.4852 -0.9776  2.0209
  155MOL   H25749845   1.159   5.252   3.354 -0.5727 -0.1484  1.0580
  155MOL   C25849846   0.967   5.009   3.057 -0.0331 -0.1691  0.3035
  155MOL   C25949847   1.097   4.924   3.069  0.9102  0.6217  0.2679
  155MOL   C26049848   0.856   4.969   2.955 -0.0401  0.8296 -0.2326
  155MOL   C26149849   0.740   5.063   2.981  0.5573  0.3088  0.9593
  155MOL   C26249850   0.671   5.118   2.858 -0.1538  0.1139  0.2716
  155MOL   C26349851   0.681   5.086   3.097 -0.0743  0.0318  0.5826
  155MOL   H26449852   0.930   5.001   3.159  0.8518  1.2986  0.7672
  155MOL   H26549853   1.169   4.966   3.139 -1.6675  3.3987  1.3749
  155MOL   H26649854   1.150   4.913   2.974  2.7671  2.1301  1.1125
  155MOL   H26749855   1.067   4.825   3.104  1.8122  0.3415  0.2392
  155MOL   H26849856   0.889   4.993   2.855  2.8040  0.3592  0.5585
  155MOL   H26949857   0.596   5.190   2.890  0.5224  1.4244 -1.0401
  155MOL   H27049858   0.639   5.029   2.803  2.3011 -1.6264  1.5557
  155MOL   H27149859   0.739   5.180   2.800  1.6963 -1.8280  0.2773
  155MOL   H27249860   0.722   5.045   3.187  2.3815  0.2845 -0.3775
  155MOL   H27349861   0.597   5.154   3.100  1.1736  1.5773  1.1896
  155MOL   C27449862   0.815   4.816   2.935 -0.0737 -0.2002  0.4165
  155MOL   C27549863   0.769   4.754   3.070  0.1564  0.9473 -0.1283
  155MOL   C27649864   0.916   4.726   2.846  0.0965 -0.1024  0.2640
  155MOL   C27749865   0.959   4.792   2.712  0.0175 -0.1049 -0.5067
  155MOL   C27849866   0.849   4.814   2.610  0.4647 -0.3495  0.1685
  155MOL   C27949867   1.088   4.824   2.686  0.0097  0.3167 -0.9316
  155MOL   H28049868   0.727   4.831   2.873  0.2797 -3.1269 -0.8623
  155MOL   H28149869   0.853   4.729   3.135  0.0462  1.2148  0.1198
  155MOL   H28249870   0.703   4.674   3.036 -1.2967  2.4667 -0.9651
  155MOL   H28349871   0.709   4.825   3.128 -1.8808 -0.5054 -0.4137
  155MOL   H28449872   1.005   4.726   2.908  3.1752  0.1848 -3.9374
  155MOL   H28549873   0.763   4.858   2.660  1.9532 -1.2897  3.7259
  155MOL   H28649874   0.807   4.726   2.562  1.2823 -0.1826 -0.8679
  155MOL   H28749875   0.883   4.882   2.532  1.4758 -1.0936 -0.0450
  155MOL   H28849876   1.168   4.804   2.756 -0.5296  0.5588 -0.2336
  155MOL   H28949877   1.119   4.860   2.590  0.3583  0.5324 -0.7409
  155MOL   C29049878   0.875   4.579   2.826  0.6573 -0.0100 -0.4061
  155MOL   C29149879   0.725   4.552   2.787 -0.5028  0.3269  0.0051
  155MOL   C29249880   0.922   4.480   2.940  0.1570  0.0677 -0.3657
  155MOL   C29349881   1.062   4.503   2.988 -0.4434  0.2222 -0.0051
  155MOL   C29449882   1.171   4.489   2.882  0.7934  0.3332  0.2010
  155MOL   C29549883   1.094   4.552   3.109 -0.4078 -0.2876 -0.7544
  155MOL   H29649884   0.934   4.549   2.740  3.1304 -0.6743  1.4688
  155MOL   H29749885   0.708   4.574   2.682  0.1756  1.3433  0.1003
  155MOL   H29849886   0.660   4.620   2.843 -1.5700 -1.9336  1.6053
  155MOL   H29949887   0.694   4.449   2.804 -2.4704  0.7746 -0.7250
  155MOL   H30049888   0.860   4.513   3.024  1.8041  2.7876 -0.1589
  155MOL   H30149889   1.165   4.557   2.797  1.1343 -1.7487 -1.5457
  155MOL   H30249890   1.176   4.386   2.845  0.8051  0.0385  1.0185
  155MOL   H30349891   1.273   4.494   2.920  1.5309 -1.8149 -1.3688
  155MOL   H30449892   1.010   4.572   3.175 -0.6391 -2.0821 -0.4876
  155MOL   H30549893   1.191   4.576   3.150  0.0185 -3.4449  0.1505
  155MOL   C30649894   0.904   4.326   2.932 -0.1136 -0.9684  0.2154
  155MOL   C30749895   0.909   4.271   2.784  0.7260  0.3482 -0.6862
  155MOL   C30849896   0.774   4.273   3.005  0.1357 -0.2413 -0.2571
  155MOL   C30949897   0.799   4.253   3.153 -0.5157  0.9421 -0.6588
  155MOL   C31049898   0.892   4.140   3.196  0.2177  0.1353 -0.0278
  155MOL   C31149899   0.754   4.339   3.247  0.2469  0.9898 -0.0925
  155MOL   H31249900   0.990   4.276   2.975  1.2250  1.3363  0.2424
  155MOL   H31349901   1.006   4.294   2.740  0.9056  0.9050 -0.0188
  155MOL   H31449902   0.834   4.311   2.716  0.6424  0.5267 -0.4907
  155MOL   H31549903   0.905   4.162   2.788 -0.6289  0.3491 -1.8583
  155MOL   H31649904   0.679   4.324   2.990 -0.3930 -0.8133  1.0806
  155MOL   H31749905   0.981   4.132   3.134 -0.5152  0.9786 -1.2014
  155MOL   H31849906   0.845   4.042   3.198  2.3577 -0.8943  1.8591
  155MOL   H31949907   0.921   4.158   3.300 -1.3721  0.6731  0.3331
  155MOL   H32049908   0.688   4.420   3.220 -1.1718 -0.1702 -0.1671
  155MOL   H32149909   0.777   4.329   3.352  1.7455 -0.6878 -0.5521
  155MOL   H32249910   0.754   4.174   2.965  0.7054 -0.8814  1.0098
   7.89242   7.89242   7.89242
