;
; Gromacs include topology (itp) file.
; For Molecular Group XYZ
; Force field scheme: opls2005
; Produced from DL_FIELD v4.11
;


[ moleculetype ]
; name    nrexcl
XYZ    3

[ atoms ]
; nr   type   resnr   residu    atom    cgnr    charge    mass
    1        CT    1  MOL      C1     1  -0.1200000   12.0115
    2        CT    1  MOL      C2     2  -0.1800000   12.0115
    3        CT    1  MOL      C3     3  -0.0600000   12.0115
    4       CME    1  MOL      C4     4   0.0000000   12.0115
    5        CT    1  MOL      C5     5  -0.1800000   12.0115
    6       CME    1  MOL      C6     6  -0.2300000   12.0115
    7        HC    1  MOL      H7     7   0.0600000    1.0080
    8        HC    1  MOL      H8     8   0.0600000    1.0080
    9        HC    1  MOL      H9     9   0.0600000    1.0080
   10        HC    1  MOL     H10    10   0.0600000    1.0080
   11        HC    1  MOL     H11    11   0.0600000    1.0080
   12        HC    1  MOL     H12    12   0.0600000    1.0080
   13        HC    1  MOL     H13    13   0.0600000    1.0080
   14        HC    1  MOL     H14    14   0.0600000    1.0080
   15        HE    1  MOL     H15    15   0.1150000    1.0080
   16        HE    1  MOL     H16    16   0.1150000    1.0080
   17        HC    1  MOL     H17    17   0.0600000    1.0080
   18        CT    1  MOL     C18    18  -0.0600000   12.0115
   19        CT    1  MOL     C19    19  -0.1800000   12.0115
   20        CT    1  MOL     C20    20  -0.0600000   12.0115
   21       CME    1  MOL     C21    21   0.0000000   12.0115
   22        CT    1  MOL     C22    22  -0.1800000   12.0115
   23       CME    1  MOL     C23    23  -0.2300000   12.0115
   24        HC    1  MOL     H24    24   0.0600000    1.0080
   25        HC    1  MOL     H25    25   0.0600000    1.0080
   26        HC    1  MOL     H26    26   0.0600000    1.0080
   27        HC    1  MOL     H27    27   0.0600000    1.0080
   28        HC    1  MOL     H28    28   0.0600000    1.0080
   29        HC    1  MOL     H29    29   0.0600000    1.0080
   30        HC    1  MOL     H30    30   0.0600000    1.0080
   31        HC    1  MOL     H31    31   0.0600000    1.0080
   32        HE    1  MOL     H32    32   0.1150000    1.0080
   33        HE    1  MOL     H33    33   0.1150000    1.0080
   34        CT    1  MOL     C34    34  -0.0600000   12.0115
   35        CT    1  MOL     C35    35  -0.1800000   12.0115
   36        CT    1  MOL     C36    36  -0.0600000   12.0115
   37       CME    1  MOL     C37    37   0.0000000   12.0115
   38        CT    1  MOL     C38    38  -0.1800000   12.0115
   39       CME    1  MOL     C39    39  -0.2300000   12.0115
   40        HC    1  MOL     H40    40   0.0600000    1.0080
   41        HC    1  MOL     H41    41   0.0600000    1.0080
   42        HC    1  MOL     H42    42   0.0600000    1.0080
   43        HC    1  MOL     H43    43   0.0600000    1.0080
   44        HC    1  MOL     H44    44   0.0600000    1.0080
   45        HC    1  MOL     H45    45   0.0600000    1.0080
   46        HC    1  MOL     H46    46   0.0600000    1.0080
   47        HC    1  MOL     H47    47   0.0600000    1.0080
   48        HE    1  MOL     H48    48   0.1150000    1.0080
   49        HE    1  MOL     H49    49   0.1150000    1.0080
   50        CT    1  MOL     C50    50  -0.0600000   12.0115
   51        CT    1  MOL     C51    51  -0.1800000   12.0115
   52        CT    1  MOL     C52    52  -0.0600000   12.0115
   53       CME    1  MOL     C53    53   0.0000000   12.0115
   54        CT    1  MOL     C54    54  -0.1800000   12.0115
   55       CME    1  MOL     C55    55  -0.2300000   12.0115
   56        HC    1  MOL     H56    56   0.0600000    1.0080
   57        HC    1  MOL     H57    57   0.0600000    1.0080
   58        HC    1  MOL     H58    58   0.0600000    1.0080
   59        HC    1  MOL     H59    59   0.0600000    1.0080
   60        HC    1  MOL     H60    60   0.0600000    1.0080
   61        HC    1  MOL     H61    61   0.0600000    1.0080
   62        HC    1  MOL     H62    62   0.0600000    1.0080
   63        HC    1  MOL     H63    63   0.0600000    1.0080
   64        HE    1  MOL     H64    64   0.1150000    1.0080
   65        HE    1  MOL     H65    65   0.1150000    1.0080
   66        CT    1  MOL     C66    66  -0.0600000   12.0115
   67        CT    1  MOL     C67    67  -0.1800000   12.0115
   68        CT    1  MOL     C68    68  -0.0600000   12.0115
   69       CME    1  MOL     C69    69   0.0000000   12.0115
   70        CT    1  MOL     C70    70  -0.1800000   12.0115
   71       CME    1  MOL     C71    71  -0.2300000   12.0115
   72        HC    1  MOL     H72    72   0.0600000    1.0080
   73        HC    1  MOL     H73    73   0.0600000    1.0080
   74        HC    1  MOL     H74    74   0.0600000    1.0080
   75        HC    1  MOL     H75    75   0.0600000    1.0080
   76        HC    1  MOL     H76    76   0.0600000    1.0080
   77        HC    1  MOL     H77    77   0.0600000    1.0080
   78        HC    1  MOL     H78    78   0.0600000    1.0080
   79        HC    1  MOL     H79    79   0.0600000    1.0080
   80        HE    1  MOL     H80    80   0.1150000    1.0080
   81        HE    1  MOL     H81    81   0.1150000    1.0080
   82        CT    1  MOL     C82    82  -0.0600000   12.0115
   83        CT    1  MOL     C83    83  -0.1800000   12.0115
   84        CT    1  MOL     C84    84  -0.0600000   12.0115
   85       CME    1  MOL     C85    85   0.0000000   12.0115
   86        CT    1  MOL     C86    86  -0.1800000   12.0115
   87       CME    1  MOL     C87    87  -0.2300000   12.0115
   88        HC    1  MOL     H88    88   0.0600000    1.0080
   89        HC    1  MOL     H89    89   0.0600000    1.0080
   90        HC    1  MOL     H90    90   0.0600000    1.0080
   91        HC    1  MOL     H91    91   0.0600000    1.0080
   92        HC    1  MOL     H92    92   0.0600000    1.0080
   93        HC    1  MOL     H93    93   0.0600000    1.0080
   94        HC    1  MOL     H94    94   0.0600000    1.0080
   95        HC    1  MOL     H95    95   0.0600000    1.0080
   96        HE    1  MOL     H96    96   0.1150000    1.0080
   97        HE    1  MOL     H97    97   0.1150000    1.0080
   98        CT    1  MOL     C98    98  -0.0600000   12.0115
   99        CT    1  MOL     C99    99  -0.1800000   12.0115
  100        CT    1  MOL    C100   100  -0.0600000   12.0115
  101       CME    1  MOL    C101   101   0.0000000   12.0115
  102        CT    1  MOL    C102   102  -0.1800000   12.0115
  103       CME    1  MOL    C103   103  -0.2300000   12.0115
  104        HC    1  MOL    H104   104   0.0600000    1.0080
  105        HC    1  MOL    H105   105   0.0600000    1.0080
  106        HC    1  MOL    H106   106   0.0600000    1.0080
  107        HC    1  MOL    H107   107   0.0600000    1.0080
  108        HC    1  MOL    H108   108   0.0600000    1.0080
  109        HC    1  MOL    H109   109   0.0600000    1.0080
  110        HC    1  MOL    H110   110   0.0600000    1.0080
  111        HC    1  MOL    H111   111   0.0600000    1.0080
  112        HE    1  MOL    H112   112   0.1150000    1.0080
  113        HE    1  MOL    H113   113   0.1150000    1.0080
  114        CT    1  MOL    C114   114  -0.0600000   12.0115
  115        CT    1  MOL    C115   115  -0.1800000   12.0115
  116        CT    1  MOL    C116   116  -0.0600000   12.0115
  117       CME    1  MOL    C117   117   0.0000000   12.0115
  118        CT    1  MOL    C118   118  -0.1800000   12.0115
  119       CME    1  MOL    C119   119  -0.2300000   12.0115
  120        HC    1  MOL    H120   120   0.0600000    1.0080
  121        HC    1  MOL    H121   121   0.0600000    1.0080
  122        HC    1  MOL    H122   122   0.0600000    1.0080
  123        HC    1  MOL    H123   123   0.0600000    1.0080
  124        HC    1  MOL    H124   124   0.0600000    1.0080
  125        HC    1  MOL    H125   125   0.0600000    1.0080
  126        HC    1  MOL    H126   126   0.0600000    1.0080
  127        HC    1  MOL    H127   127   0.0600000    1.0080
  128        HE    1  MOL    H128   128   0.1150000    1.0080
  129        HE    1  MOL    H129   129   0.1150000    1.0080
  130        CT    1  MOL    C130   130  -0.0600000   12.0115
  131        CT    1  MOL    C131   131  -0.1800000   12.0115
  132        CT    1  MOL    C132   132  -0.0600000   12.0115
  133       CME    1  MOL    C133   133   0.0000000   12.0115
  134        CT    1  MOL    C134   134  -0.1800000   12.0115
  135       CME    1  MOL    C135   135  -0.2300000   12.0115
  136        HC    1  MOL    H136   136   0.0600000    1.0080
  137        HC    1  MOL    H137   137   0.0600000    1.0080
  138        HC    1  MOL    H138   138   0.0600000    1.0080
  139        HC    1  MOL    H139   139   0.0600000    1.0080
  140        HC    1  MOL    H140   140   0.0600000    1.0080
  141        HC    1  MOL    H141   141   0.0600000    1.0080
  142        HC    1  MOL    H142   142   0.0600000    1.0080
  143        HC    1  MOL    H143   143   0.0600000    1.0080
  144        HE    1  MOL    H144   144   0.1150000    1.0080
  145        HE    1  MOL    H145   145   0.1150000    1.0080
  146        CT    1  MOL    C146   146  -0.0600000   12.0115
  147        CT    1  MOL    C147   147  -0.1800000   12.0115
  148        CT    1  MOL    C148   148  -0.0600000   12.0115
  149       CME    1  MOL    C149   149   0.0000000   12.0115
  150        CT    1  MOL    C150   150  -0.1800000   12.0115
  151       CME    1  MOL    C151   151  -0.2300000   12.0115
  152        HC    1  MOL    H152   152   0.0600000    1.0080
  153        HC    1  MOL    H153   153   0.0600000    1.0080
  154        HC    1  MOL    H154   154   0.0600000    1.0080
  155        HC    1  MOL    H155   155   0.0600000    1.0080
  156        HC    1  MOL    H156   156   0.0600000    1.0080
  157        HC    1  MOL    H157   157   0.0600000    1.0080
  158        HC    1  MOL    H158   158   0.0600000    1.0080
  159        HC    1  MOL    H159   159   0.0600000    1.0080
  160        HE    1  MOL    H160   160   0.1150000    1.0080
  161        HE    1  MOL    H161   161   0.1150000    1.0080
  162        CT    1  MOL    C162   162  -0.0600000   12.0115
  163        CT    1  MOL    C163   163  -0.1800000   12.0115
  164        CT    1  MOL    C164   164  -0.0600000   12.0115
  165       CME    1  MOL    C165   165   0.0000000   12.0115
  166        CT    1  MOL    C166   166  -0.1800000   12.0115
  167       CME    1  MOL    C167   167  -0.2300000   12.0115
  168        HC    1  MOL    H168   168   0.0600000    1.0080
  169        HC    1  MOL    H169   169   0.0600000    1.0080
  170        HC    1  MOL    H170   170   0.0600000    1.0080
  171        HC    1  MOL    H171   171   0.0600000    1.0080
  172        HC    1  MOL    H172   172   0.0600000    1.0080
  173        HC    1  MOL    H173   173   0.0600000    1.0080
  174        HC    1  MOL    H174   174   0.0600000    1.0080
  175        HC    1  MOL    H175   175   0.0600000    1.0080
  176        HE    1  MOL    H176   176   0.1150000    1.0080
  177        HE    1  MOL    H177   177   0.1150000    1.0080
  178        CT    1  MOL    C178   178  -0.0600000   12.0115
  179        CT    1  MOL    C179   179  -0.1800000   12.0115
  180        CT    1  MOL    C180   180  -0.0600000   12.0115
  181       CME    1  MOL    C181   181   0.0000000   12.0115
  182        CT    1  MOL    C182   182  -0.1800000   12.0115
  183       CME    1  MOL    C183   183  -0.2300000   12.0115
  184        HC    1  MOL    H184   184   0.0600000    1.0080
  185        HC    1  MOL    H185   185   0.0600000    1.0080
  186        HC    1  MOL    H186   186   0.0600000    1.0080
  187        HC    1  MOL    H187   187   0.0600000    1.0080
  188        HC    1  MOL    H188   188   0.0600000    1.0080
  189        HC    1  MOL    H189   189   0.0600000    1.0080
  190        HC    1  MOL    H190   190   0.0600000    1.0080
  191        HC    1  MOL    H191   191   0.0600000    1.0080
  192        HE    1  MOL    H192   192   0.1150000    1.0080
  193        HE    1  MOL    H193   193   0.1150000    1.0080
  194        CT    1  MOL    C194   194  -0.0600000   12.0115
  195        CT    1  MOL    C195   195  -0.1800000   12.0115
  196        CT    1  MOL    C196   196  -0.0600000   12.0115
  197       CME    1  MOL    C197   197   0.0000000   12.0115
  198        CT    1  MOL    C198   198  -0.1800000   12.0115
  199       CME    1  MOL    C199   199  -0.2300000   12.0115
  200        HC    1  MOL    H200   200   0.0600000    1.0080
  201        HC    1  MOL    H201   201   0.0600000    1.0080
  202        HC    1  MOL    H202   202   0.0600000    1.0080
  203        HC    1  MOL    H203   203   0.0600000    1.0080
  204        HC    1  MOL    H204   204   0.0600000    1.0080
  205        HC    1  MOL    H205   205   0.0600000    1.0080
  206        HC    1  MOL    H206   206   0.0600000    1.0080
  207        HC    1  MOL    H207   207   0.0600000    1.0080
  208        HE    1  MOL    H208   208   0.1150000    1.0080
  209        HE    1  MOL    H209   209   0.1150000    1.0080
  210        CT    1  MOL    C210   210  -0.0600000   12.0115
  211        CT    1  MOL    C211   211  -0.1800000   12.0115
  212        CT    1  MOL    C212   212  -0.0600000   12.0115
  213       CME    1  MOL    C213   213   0.0000000   12.0115
  214        CT    1  MOL    C214   214  -0.1800000   12.0115
  215       CME    1  MOL    C215   215  -0.2300000   12.0115
  216        HC    1  MOL    H216   216   0.0600000    1.0080
  217        HC    1  MOL    H217   217   0.0600000    1.0080
  218        HC    1  MOL    H218   218   0.0600000    1.0080
  219        HC    1  MOL    H219   219   0.0600000    1.0080
  220        HC    1  MOL    H220   220   0.0600000    1.0080
  221        HC    1  MOL    H221   221   0.0600000    1.0080
  222        HC    1  MOL    H222   222   0.0600000    1.0080
  223        HC    1  MOL    H223   223   0.0600000    1.0080
  224        HE    1  MOL    H224   224   0.1150000    1.0080
  225        HE    1  MOL    H225   225   0.1150000    1.0080
  226        CT    1  MOL    C226   226  -0.0600000   12.0115
  227        CT    1  MOL    C227   227  -0.1800000   12.0115
  228        CT    1  MOL    C228   228  -0.0600000   12.0115
  229       CME    1  MOL    C229   229   0.0000000   12.0115
  230        CT    1  MOL    C230   230  -0.1800000   12.0115
  231       CME    1  MOL    C231   231  -0.2300000   12.0115
  232        HC    1  MOL    H232   232   0.0600000    1.0080
  233        HC    1  MOL    H233   233   0.0600000    1.0080
  234        HC    1  MOL    H234   234   0.0600000    1.0080
  235        HC    1  MOL    H235   235   0.0600000    1.0080
  236        HC    1  MOL    H236   236   0.0600000    1.0080
  237        HC    1  MOL    H237   237   0.0600000    1.0080
  238        HC    1  MOL    H238   238   0.0600000    1.0080
  239        HC    1  MOL    H239   239   0.0600000    1.0080
  240        HE    1  MOL    H240   240   0.1150000    1.0080
  241        HE    1  MOL    H241   241   0.1150000    1.0080
  242        CT    1  MOL    C242   242  -0.0600000   12.0115
  243        CT    1  MOL    C243   243  -0.1800000   12.0115
  244        CT    1  MOL    C244   244  -0.0600000   12.0115
  245       CME    1  MOL    C245   245   0.0000000   12.0115
  246        CT    1  MOL    C246   246  -0.1800000   12.0115
  247       CME    1  MOL    C247   247  -0.2300000   12.0115
  248        HC    1  MOL    H248   248   0.0600000    1.0080
  249        HC    1  MOL    H249   249   0.0600000    1.0080
  250        HC    1  MOL    H250   250   0.0600000    1.0080
  251        HC    1  MOL    H251   251   0.0600000    1.0080
  252        HC    1  MOL    H252   252   0.0600000    1.0080
  253        HC    1  MOL    H253   253   0.0600000    1.0080
  254        HC    1  MOL    H254   254   0.0600000    1.0080
  255        HC    1  MOL    H255   255   0.0600000    1.0080
  256        HE    1  MOL    H256   256   0.1150000    1.0080
  257        HE    1  MOL    H257   257   0.1150000    1.0080
  258        CT    1  MOL    C258   258  -0.0600000   12.0115
  259        CT    1  MOL    C259   259  -0.1800000   12.0115
  260        CT    1  MOL    C260   260  -0.0600000   12.0115
  261       CME    1  MOL    C261   261   0.0000000   12.0115
  262        CT    1  MOL    C262   262  -0.1800000   12.0115
  263       CME    1  MOL    C263   263  -0.2300000   12.0115
  264        HC    1  MOL    H264   264   0.0600000    1.0080
  265        HC    1  MOL    H265   265   0.0600000    1.0080
  266        HC    1  MOL    H266   266   0.0600000    1.0080
  267        HC    1  MOL    H267   267   0.0600000    1.0080
  268        HC    1  MOL    H268   268   0.0600000    1.0080
  269        HC    1  MOL    H269   269   0.0600000    1.0080
  270        HC    1  MOL    H270   270   0.0600000    1.0080
  271        HC    1  MOL    H271   271   0.0600000    1.0080
  272        HE    1  MOL    H272   272   0.1150000    1.0080
  273        HE    1  MOL    H273   273   0.1150000    1.0080
  274        CT    1  MOL    C274   274  -0.0600000   12.0115
  275        CT    1  MOL    C275   275  -0.1800000   12.0115
  276        CT    1  MOL    C276   276  -0.0600000   12.0115
  277       CME    1  MOL    C277   277   0.0000000   12.0115
  278        CT    1  MOL    C278   278  -0.1800000   12.0115
  279       CME    1  MOL    C279   279  -0.2300000   12.0115
  280        HC    1  MOL    H280   280   0.0600000    1.0080
  281        HC    1  MOL    H281   281   0.0600000    1.0080
  282        HC    1  MOL    H282   282   0.0600000    1.0080
  283        HC    1  MOL    H283   283   0.0600000    1.0080
  284        HC    1  MOL    H284   284   0.0600000    1.0080
  285        HC    1  MOL    H285   285   0.0600000    1.0080
  286        HC    1  MOL    H286   286   0.0600000    1.0080
  287        HC    1  MOL    H287   287   0.0600000    1.0080
  288        HE    1  MOL    H288   288   0.1150000    1.0080
  289        HE    1  MOL    H289   289   0.1150000    1.0080
  290        CT    1  MOL    C290   290  -0.0600000   12.0115
  291        CT    1  MOL    C291   291  -0.1800000   12.0115
  292        CT    1  MOL    C292   292  -0.0600000   12.0115
  293       CME    1  MOL    C293   293   0.0000000   12.0115
  294        CT    1  MOL    C294   294  -0.1800000   12.0115
  295       CME    1  MOL    C295   295  -0.2300000   12.0115
  296        HC    1  MOL    H296   296   0.0600000    1.0080
  297        HC    1  MOL    H297   297   0.0600000    1.0080
  298        HC    1  MOL    H298   298   0.0600000    1.0080
  299        HC    1  MOL    H299   299   0.0600000    1.0080
  300        HC    1  MOL    H300   300   0.0600000    1.0080
  301        HC    1  MOL    H301   301   0.0600000    1.0080
  302        HC    1  MOL    H302   302   0.0600000    1.0080
  303        HC    1  MOL    H303   303   0.0600000    1.0080
  304        HE    1  MOL    H304   304   0.1150000    1.0080
  305        HE    1  MOL    H305   305   0.1150000    1.0080
  306        CT    1  MOL    C306   306  -0.0600000   12.0115
  307        CT    1  MOL    C307   307  -0.1800000   12.0115
  308        CT    1  MOL    C308   308  -0.1200000   12.0115
  309       CME    1  MOL    C309   309   0.0000000   12.0115
  310        CT    1  MOL    C310   310  -0.1800000   12.0115
  311       CME    1  MOL    C311   311  -0.2300000   12.0115
  312        HC    1  MOL    H312   312   0.0600000    1.0080
  313        HC    1  MOL    H313   313   0.0600000    1.0080
  314        HC    1  MOL    H314   314   0.0600000    1.0080
  315        HC    1  MOL    H315   315   0.0600000    1.0080
  316        HC    1  MOL    H316   316   0.0600000    1.0080
  317        HC    1  MOL    H317   317   0.0600000    1.0080
  318        HC    1  MOL    H318   318   0.0600000    1.0080
  319        HC    1  MOL    H319   319   0.0600000    1.0080
  320        HE    1  MOL    H320   320   0.1150000    1.0080
  321        HE    1  MOL    H321   321   0.1150000    1.0080
  322        HC    1  MOL    H322   322   0.0600000    1.0080

[ bonds ]
      1      2   1      0.1529 224262.4000
      1      3   1      0.1529 224262.4000
      1      7   1      0.1090 284512.0000
      1     17   1      0.1090 284512.0000
      2      8   1      0.1090 284512.0000
      2      9   1      0.1090 284512.0000
      2     10   1      0.1090 284512.0000
      3      4   1      0.1510 265265.6000
      3     11   1      0.1090 284512.0000
      3     18   1      0.1529 224262.4000
      4      5   1      0.1510 265265.6000
      4      6   1      0.1340 459403.2000
      5     12   1      0.1090 284512.0000
      5     13   1      0.1090 284512.0000
      5     14   1      0.1090 284512.0000
      6     15   1      0.1080 284512.0000
      6     16   1      0.1080 284512.0000
     18     19   1      0.1529 224262.4000
     18     20   1      0.1529 224262.4000
     18     24   1      0.1090 284512.0000
     19     25   1      0.1090 284512.0000
     19     26   1      0.1090 284512.0000
     19     27   1      0.1090 284512.0000
     20     21   1      0.1510 265265.6000
     20     28   1      0.1090 284512.0000
     20     34   1      0.1529 224262.4000
     21     22   1      0.1510 265265.6000
     21     23   1      0.1340 459403.2000
     22     29   1      0.1090 284512.0000
     22     30   1      0.1090 284512.0000
     22     31   1      0.1090 284512.0000
     23     32   1      0.1080 284512.0000
     23     33   1      0.1080 284512.0000
     34     35   1      0.1529 224262.4000
     34     36   1      0.1529 224262.4000
     34     40   1      0.1090 284512.0000
     35     41   1      0.1090 284512.0000
     35     42   1      0.1090 284512.0000
     35     43   1      0.1090 284512.0000
     36     37   1      0.1510 265265.6000
     36     44   1      0.1090 284512.0000
     36     50   1      0.1529 224262.4000
     37     38   1      0.1510 265265.6000
     37     39   1      0.1340 459403.2000
     38     45   1      0.1090 284512.0000
     38     46   1      0.1090 284512.0000
     38     47   1      0.1090 284512.0000
     39     48   1      0.1080 284512.0000
     39     49   1      0.1080 284512.0000
     50     51   1      0.1529 224262.4000
     50     52   1      0.1529 224262.4000
     50     56   1      0.1090 284512.0000
     51     57   1      0.1090 284512.0000
     51     58   1      0.1090 284512.0000
     51     59   1      0.1090 284512.0000
     52     53   1      0.1510 265265.6000
     52     60   1      0.1090 284512.0000
     52     66   1      0.1529 224262.4000
     53     54   1      0.1510 265265.6000
     53     55   1      0.1340 459403.2000
     54     61   1      0.1090 284512.0000
     54     62   1      0.1090 284512.0000
     54     63   1      0.1090 284512.0000
     55     64   1      0.1080 284512.0000
     55     65   1      0.1080 284512.0000
     66     67   1      0.1529 224262.4000
     66     68   1      0.1529 224262.4000
     66     72   1      0.1090 284512.0000
     67     73   1      0.1090 284512.0000
     67     74   1      0.1090 284512.0000
     67     75   1      0.1090 284512.0000
     68     69   1      0.1510 265265.6000
     68     76   1      0.1090 284512.0000
     68     82   1      0.1529 224262.4000
     69     70   1      0.1510 265265.6000
     69     71   1      0.1340 459403.2000
     70     77   1      0.1090 284512.0000
     70     78   1      0.1090 284512.0000
     70     79   1      0.1090 284512.0000
     71     80   1      0.1080 284512.0000
     71     81   1      0.1080 284512.0000
     82     83   1      0.1529 224262.4000
     82     84   1      0.1529 224262.4000
     82     88   1      0.1090 284512.0000
     83     89   1      0.1090 284512.0000
     83     90   1      0.1090 284512.0000
     83     91   1      0.1090 284512.0000
     84     85   1      0.1510 265265.6000
     84     92   1      0.1090 284512.0000
     84     98   1      0.1529 224262.4000
     85     86   1      0.1510 265265.6000
     85     87   1      0.1340 459403.2000
     86     93   1      0.1090 284512.0000
     86     94   1      0.1090 284512.0000
     86     95   1      0.1090 284512.0000
     87     96   1      0.1080 284512.0000
     87     97   1      0.1080 284512.0000
     98     99   1      0.1529 224262.4000
     98    100   1      0.1529 224262.4000
     98    104   1      0.1090 284512.0000
     99    105   1      0.1090 284512.0000
     99    106   1      0.1090 284512.0000
     99    107   1      0.1090 284512.0000
    100    101   1      0.1510 265265.6000
    100    108   1      0.1090 284512.0000
    100    114   1      0.1529 224262.4000
    101    102   1      0.1510 265265.6000
    101    103   1      0.1340 459403.2000
    102    109   1      0.1090 284512.0000
    102    110   1      0.1090 284512.0000
    102    111   1      0.1090 284512.0000
    103    112   1      0.1080 284512.0000
    103    113   1      0.1080 284512.0000
    114    115   1      0.1529 224262.4000
    114    116   1      0.1529 224262.4000
    114    120   1      0.1090 284512.0000
    115    121   1      0.1090 284512.0000
    115    122   1      0.1090 284512.0000
    115    123   1      0.1090 284512.0000
    116    117   1      0.1510 265265.6000
    116    124   1      0.1090 284512.0000
    116    130   1      0.1529 224262.4000
    117    118   1      0.1510 265265.6000
    117    119   1      0.1340 459403.2000
    118    125   1      0.1090 284512.0000
    118    126   1      0.1090 284512.0000
    118    127   1      0.1090 284512.0000
    119    128   1      0.1080 284512.0000
    119    129   1      0.1080 284512.0000
    130    131   1      0.1529 224262.4000
    130    132   1      0.1529 224262.4000
    130    136   1      0.1090 284512.0000
    131    137   1      0.1090 284512.0000
    131    138   1      0.1090 284512.0000
    131    139   1      0.1090 284512.0000
    132    133   1      0.1510 265265.6000
    132    140   1      0.1090 284512.0000
    132    146   1      0.1529 224262.4000
    133    134   1      0.1510 265265.6000
    133    135   1      0.1340 459403.2000
    134    141   1      0.1090 284512.0000
    134    142   1      0.1090 284512.0000
    134    143   1      0.1090 284512.0000
    135    144   1      0.1080 284512.0000
    135    145   1      0.1080 284512.0000
    146    147   1      0.1529 224262.4000
    146    148   1      0.1529 224262.4000
    146    152   1      0.1090 284512.0000
    147    153   1      0.1090 284512.0000
    147    154   1      0.1090 284512.0000
    147    155   1      0.1090 284512.0000
    148    149   1      0.1510 265265.6000
    148    156   1      0.1090 284512.0000
    148    162   1      0.1529 224262.4000
    149    150   1      0.1510 265265.6000
    149    151   1      0.1340 459403.2000
    150    157   1      0.1090 284512.0000
    150    158   1      0.1090 284512.0000
    150    159   1      0.1090 284512.0000
    151    160   1      0.1080 284512.0000
    151    161   1      0.1080 284512.0000
    162    163   1      0.1529 224262.4000
    162    164   1      0.1529 224262.4000
    162    168   1      0.1090 284512.0000
    163    169   1      0.1090 284512.0000
    163    170   1      0.1090 284512.0000
    163    171   1      0.1090 284512.0000
    164    165   1      0.1510 265265.6000
    164    172   1      0.1090 284512.0000
    164    178   1      0.1529 224262.4000
    165    166   1      0.1510 265265.6000
    165    167   1      0.1340 459403.2000
    166    173   1      0.1090 284512.0000
    166    174   1      0.1090 284512.0000
    166    175   1      0.1090 284512.0000
    167    176   1      0.1080 284512.0000
    167    177   1      0.1080 284512.0000
    178    179   1      0.1529 224262.4000
    178    180   1      0.1529 224262.4000
    178    184   1      0.1090 284512.0000
    179    185   1      0.1090 284512.0000
    179    186   1      0.1090 284512.0000
    179    187   1      0.1090 284512.0000
    180    181   1      0.1510 265265.6000
    180    188   1      0.1090 284512.0000
    180    194   1      0.1529 224262.4000
    181    182   1      0.1510 265265.6000
    181    183   1      0.1340 459403.2000
    182    189   1      0.1090 284512.0000
    182    190   1      0.1090 284512.0000
    182    191   1      0.1090 284512.0000
    183    192   1      0.1080 284512.0000
    183    193   1      0.1080 284512.0000
    194    195   1      0.1529 224262.4000
    194    196   1      0.1529 224262.4000
    194    200   1      0.1090 284512.0000
    195    201   1      0.1090 284512.0000
    195    202   1      0.1090 284512.0000
    195    203   1      0.1090 284512.0000
    196    197   1      0.1510 265265.6000
    196    204   1      0.1090 284512.0000
    196    210   1      0.1529 224262.4000
    197    198   1      0.1510 265265.6000
    197    199   1      0.1340 459403.2000
    198    205   1      0.1090 284512.0000
    198    206   1      0.1090 284512.0000
    198    207   1      0.1090 284512.0000
    199    208   1      0.1080 284512.0000
    199    209   1      0.1080 284512.0000
    210    211   1      0.1529 224262.4000
    210    212   1      0.1529 224262.4000
    210    216   1      0.1090 284512.0000
    211    217   1      0.1090 284512.0000
    211    218   1      0.1090 284512.0000
    211    219   1      0.1090 284512.0000
    212    213   1      0.1510 265265.6000
    212    220   1      0.1090 284512.0000
    212    226   1      0.1529 224262.4000
    213    214   1      0.1510 265265.6000
    213    215   1      0.1340 459403.2000
    214    221   1      0.1090 284512.0000
    214    222   1      0.1090 284512.0000
    214    223   1      0.1090 284512.0000
    215    224   1      0.1080 284512.0000
    215    225   1      0.1080 284512.0000
    226    227   1      0.1529 224262.4000
    226    228   1      0.1529 224262.4000
    226    232   1      0.1090 284512.0000
    227    233   1      0.1090 284512.0000
    227    234   1      0.1090 284512.0000
    227    235   1      0.1090 284512.0000
    228    229   1      0.1510 265265.6000
    228    236   1      0.1090 284512.0000
    228    242   1      0.1529 224262.4000
    229    230   1      0.1510 265265.6000
    229    231   1      0.1340 459403.2000
    230    237   1      0.1090 284512.0000
    230    238   1      0.1090 284512.0000
    230    239   1      0.1090 284512.0000
    231    240   1      0.1080 284512.0000
    231    241   1      0.1080 284512.0000
    242    243   1      0.1529 224262.4000
    242    244   1      0.1529 224262.4000
    242    248   1      0.1090 284512.0000
    243    249   1      0.1090 284512.0000
    243    250   1      0.1090 284512.0000
    243    251   1      0.1090 284512.0000
    244    245   1      0.1510 265265.6000
    244    252   1      0.1090 284512.0000
    244    258   1      0.1529 224262.4000
    245    246   1      0.1510 265265.6000
    245    247   1      0.1340 459403.2000
    246    253   1      0.1090 284512.0000
    246    254   1      0.1090 284512.0000
    246    255   1      0.1090 284512.0000
    247    256   1      0.1080 284512.0000
    247    257   1      0.1080 284512.0000
    258    259   1      0.1529 224262.4000
    258    260   1      0.1529 224262.4000
    258    264   1      0.1090 284512.0000
    259    265   1      0.1090 284512.0000
    259    266   1      0.1090 284512.0000
    259    267   1      0.1090 284512.0000
    260    261   1      0.1510 265265.6000
    260    268   1      0.1090 284512.0000
    260    274   1      0.1529 224262.4000
    261    262   1      0.1510 265265.6000
    261    263   1      0.1340 459403.2000
    262    269   1      0.1090 284512.0000
    262    270   1      0.1090 284512.0000
    262    271   1      0.1090 284512.0000
    263    272   1      0.1080 284512.0000
    263    273   1      0.1080 284512.0000
    274    275   1      0.1529 224262.4000
    274    276   1      0.1529 224262.4000
    274    280   1      0.1090 284512.0000
    275    281   1      0.1090 284512.0000
    275    282   1      0.1090 284512.0000
    275    283   1      0.1090 284512.0000
    276    277   1      0.1510 265265.6000
    276    284   1      0.1090 284512.0000
    276    290   1      0.1529 224262.4000
    277    278   1      0.1510 265265.6000
    277    279   1      0.1340 459403.2000
    278    285   1      0.1090 284512.0000
    278    286   1      0.1090 284512.0000
    278    287   1      0.1090 284512.0000
    279    288   1      0.1080 284512.0000
    279    289   1      0.1080 284512.0000
    290    291   1      0.1529 224262.4000
    290    292   1      0.1529 224262.4000
    290    296   1      0.1090 284512.0000
    291    297   1      0.1090 284512.0000
    291    298   1      0.1090 284512.0000
    291    299   1      0.1090 284512.0000
    292    293   1      0.1510 265265.6000
    292    300   1      0.1090 284512.0000
    292    306   1      0.1529 224262.4000
    293    294   1      0.1510 265265.6000
    293    295   1      0.1340 459403.2000
    294    301   1      0.1090 284512.0000
    294    302   1      0.1090 284512.0000
    294    303   1      0.1090 284512.0000
    295    304   1      0.1080 284512.0000
    295    305   1      0.1080 284512.0000
    306    307   1      0.1529 224262.4000
    306    308   1      0.1529 224262.4000
    306    312   1      0.1090 284512.0000
    307    313   1      0.1090 284512.0000
    307    314   1      0.1090 284512.0000
    307    315   1      0.1090 284512.0000
    308    309   1      0.1510 265265.6000
    308    316   1      0.1090 284512.0000
    308    322   1      0.1090 284512.0000
    309    310   1      0.1510 265265.6000
    309    311   1      0.1340 459403.2000
    310    317   1      0.1090 284512.0000
    310    318   1      0.1090 284512.0000
    310    319   1      0.1090 284512.0000
    311    320   1      0.1080 284512.0000
    311    321   1      0.1080 284512.0000

[ pairs ]
; ai   aj   funct   fudge_QQ  charge_i   charge_j   c6    c12
      3      8   2   0.50000    -0.0600000    0.0600000   2.494471e-04  1.671101e-07
      3      9   2   0.50000    -0.0600000    0.0600000   2.494471e-04  1.671101e-07
      3     10   2   0.50000    -0.0600000    0.0600000   2.494471e-04  1.671101e-07
      7      8   2   0.50000     0.0600000    0.0600000   6.128906e-05  1.496315e-08
      7      9   2   0.50000     0.0600000    0.0600000   6.128906e-05  1.496315e-08
      7     10   2   0.50000     0.0600000    0.0600000   6.128906e-05  1.496315e-08
     17      8   2   0.50000     0.0600000    0.0600000   6.128906e-05  1.496315e-08
     17      9   2   0.50000     0.0600000    0.0600000   6.128906e-05  1.496315e-08
     17     10   2   0.50000     0.0600000    0.0600000   6.128906e-05  1.496315e-08
      2      4   2   0.50000    -0.1800000    0.0000000   1.136815e-03  2.180614e-06
      2     11   2   0.50000    -0.1800000    0.0600000   2.494471e-04  1.671101e-07
      2     18   2   0.50000    -0.1800000   -0.0600000   1.015252e-03  1.866303e-06
      7      4   2   0.50000     0.0600000    0.0000000   2.793149e-04  1.952537e-07
      7     11   2   0.50000     0.0600000    0.0600000   6.128906e-05  1.496315e-08
      7     18   2   0.50000     0.0600000   -0.0600000   2.494471e-04  1.671101e-07
     17      4   2   0.50000     0.0600000    0.0000000   2.793149e-04  1.952537e-07
     17     11   2   0.50000     0.0600000    0.0600000   6.128906e-05  1.496315e-08
     17     18   2   0.50000     0.0600000   -0.0600000   2.494471e-04  1.671101e-07
      1      5   2   0.50000    -0.1200000   -0.1800000   1.015252e-03  1.866303e-06
      1      6   2   0.50000    -0.1200000   -0.2300000   1.136815e-03  2.180614e-06
     11      5   2   0.50000     0.0600000   -0.1800000   2.494471e-04  1.671101e-07
     11      6   2   0.50000     0.0600000   -0.2300000   2.793149e-04  1.952537e-07
     18      5   2   0.50000    -0.0600000   -0.1800000   1.015252e-03  1.866303e-06
     18      6   2   0.50000    -0.0600000   -0.2300000   1.136815e-03  2.180614e-06
      1     19   2   0.50000    -0.1200000   -0.1800000   1.015252e-03  1.866303e-06
      1     20   2   0.50000    -0.1200000   -0.0600000   1.015252e-03  1.866303e-06
      1     24   2   0.50000    -0.1200000    0.0600000   2.494471e-04  1.671101e-07
      4     19   2   0.50000     0.0000000   -0.1800000   1.136815e-03  2.180614e-06
      4     20   2   0.50000     0.0000000   -0.0600000   1.136815e-03  2.180614e-06
      4     24   2   0.50000     0.0000000    0.0600000   2.793149e-04  1.952537e-07
     11     19   2   0.50000     0.0600000   -0.1800000   2.494471e-04  1.671101e-07
     11     20   2   0.50000     0.0600000   -0.0600000   2.494471e-04  1.671101e-07
     11     24   2   0.50000     0.0600000    0.0600000   6.128906e-05  1.496315e-08
      3     12   2   0.50000    -0.0600000    0.0600000   2.494471e-04  1.671101e-07
      3     13   2   0.50000    -0.0600000    0.0600000   2.494471e-04  1.671101e-07
      3     14   2   0.50000    -0.0600000    0.0600000   2.494471e-04  1.671101e-07
      6     12   2   0.50000    -0.2300000    0.0600000   2.793149e-04  1.952537e-07
      6     13   2   0.50000    -0.2300000    0.0600000   2.793149e-04  1.952537e-07
      6     14   2   0.50000    -0.2300000    0.0600000   2.793149e-04  1.952537e-07
      3     15   2   0.50000    -0.0600000    0.1150000   2.262583e-04  1.374848e-07
      3     16   2   0.50000    -0.0600000    0.1150000   2.262583e-04  1.374848e-07
      5     15   2   0.50000    -0.1800000    0.1150000   2.262583e-04  1.374848e-07
      5     16   2   0.50000    -0.1800000    0.1150000   2.262583e-04  1.374848e-07
      3     25   2   0.50000    -0.0600000    0.0600000   2.494471e-04  1.671101e-07
      3     26   2   0.50000    -0.0600000    0.0600000   2.494471e-04  1.671101e-07
      3     27   2   0.50000    -0.0600000    0.0600000   2.494471e-04  1.671101e-07
     20     25   2   0.50000    -0.0600000    0.0600000   2.494471e-04  1.671101e-07
     20     26   2   0.50000    -0.0600000    0.0600000   2.494471e-04  1.671101e-07
     20     27   2   0.50000    -0.0600000    0.0600000   2.494471e-04  1.671101e-07
     24     25   2   0.50000     0.0600000    0.0600000   6.128906e-05  1.496315e-08
     24     26   2   0.50000     0.0600000    0.0600000   6.128906e-05  1.496315e-08
     24     27   2   0.50000     0.0600000    0.0600000   6.128906e-05  1.496315e-08
      3     21   2   0.50000    -0.0600000    0.0000000   1.136815e-03  2.180614e-06
      3     28   2   0.50000    -0.0600000    0.0600000   2.494471e-04  1.671101e-07
      3     34   2   0.50000    -0.0600000   -0.0600000   1.015252e-03  1.866303e-06
     19     21   2   0.50000    -0.1800000    0.0000000   1.136815e-03  2.180614e-06
     19     28   2   0.50000    -0.1800000    0.0600000   2.494471e-04  1.671101e-07
     19     34   2   0.50000    -0.1800000   -0.0600000   1.015252e-03  1.866303e-06
     24     21   2   0.50000     0.0600000    0.0000000   2.793149e-04  1.952537e-07
     24     28   2   0.50000     0.0600000    0.0600000   6.128906e-05  1.496315e-08
     24     34   2   0.50000     0.0600000   -0.0600000   2.494471e-04  1.671101e-07
     18     22   2   0.50000    -0.0600000   -0.1800000   1.015252e-03  1.866303e-06
     18     23   2   0.50000    -0.0600000   -0.2300000   1.136815e-03  2.180614e-06
     28     22   2   0.50000     0.0600000   -0.1800000   2.494471e-04  1.671101e-07
     28     23   2   0.50000     0.0600000   -0.2300000   2.793149e-04  1.952537e-07
     34     22   2   0.50000    -0.0600000   -0.1800000   1.015252e-03  1.866303e-06
     34     23   2   0.50000    -0.0600000   -0.2300000   1.136815e-03  2.180614e-06
     18     35   2   0.50000    -0.0600000   -0.1800000   1.015252e-03  1.866303e-06
     18     36   2   0.50000    -0.0600000   -0.0600000   1.015252e-03  1.866303e-06
     18     40   2   0.50000    -0.0600000    0.0600000   2.494471e-04  1.671101e-07
     21     35   2   0.50000     0.0000000   -0.1800000   1.136815e-03  2.180614e-06
     21     36   2   0.50000     0.0000000   -0.0600000   1.136815e-03  2.180614e-06
     21     40   2   0.50000     0.0000000    0.0600000   2.793149e-04  1.952537e-07
     28     35   2   0.50000     0.0600000   -0.1800000   2.494471e-04  1.671101e-07
     28     36   2   0.50000     0.0600000   -0.0600000   2.494471e-04  1.671101e-07
     28     40   2   0.50000     0.0600000    0.0600000   6.128906e-05  1.496315e-08
     20     29   2   0.50000    -0.0600000    0.0600000   2.494471e-04  1.671101e-07
     20     30   2   0.50000    -0.0600000    0.0600000   2.494471e-04  1.671101e-07
     20     31   2   0.50000    -0.0600000    0.0600000   2.494471e-04  1.671101e-07
     23     29   2   0.50000    -0.2300000    0.0600000   2.793149e-04  1.952537e-07
     23     30   2   0.50000    -0.2300000    0.0600000   2.793149e-04  1.952537e-07
     23     31   2   0.50000    -0.2300000    0.0600000   2.793149e-04  1.952537e-07
     20     32   2   0.50000    -0.0600000    0.1150000   2.262583e-04  1.374848e-07
     20     33   2   0.50000    -0.0600000    0.1150000   2.262583e-04  1.374848e-07
     22     32   2   0.50000    -0.1800000    0.1150000   2.262583e-04  1.374848e-07
     22     33   2   0.50000    -0.1800000    0.1150000   2.262583e-04  1.374848e-07
     20     41   2   0.50000    -0.0600000    0.0600000   2.494471e-04  1.671101e-07
     20     42   2   0.50000    -0.0600000    0.0600000   2.494471e-04  1.671101e-07
     20     43   2   0.50000    -0.0600000    0.0600000   2.494471e-04  1.671101e-07
     36     41   2   0.50000    -0.0600000    0.0600000   2.494471e-04  1.671101e-07
     36     42   2   0.50000    -0.0600000    0.0600000   2.494471e-04  1.671101e-07
     36     43   2   0.50000    -0.0600000    0.0600000   2.494471e-04  1.671101e-07
     40     41   2   0.50000     0.0600000    0.0600000   6.128906e-05  1.496315e-08
     40     42   2   0.50000     0.0600000    0.0600000   6.128906e-05  1.496315e-08
     40     43   2   0.50000     0.0600000    0.0600000   6.128906e-05  1.496315e-08
     20     37   2   0.50000    -0.0600000    0.0000000   1.136815e-03  2.180614e-06
     20     44   2   0.50000    -0.0600000    0.0600000   2.494471e-04  1.671101e-07
     20     50   2   0.50000    -0.0600000   -0.0600000   1.015252e-03  1.866303e-06
     35     37   2   0.50000    -0.1800000    0.0000000   1.136815e-03  2.180614e-06
     35     44   2   0.50000    -0.1800000    0.0600000   2.494471e-04  1.671101e-07
     35     50   2   0.50000    -0.1800000   -0.0600000   1.015252e-03  1.866303e-06
     40     37   2   0.50000     0.0600000    0.0000000   2.793149e-04  1.952537e-07
     40     44   2   0.50000     0.0600000    0.0600000   6.128906e-05  1.496315e-08
     40     50   2   0.50000     0.0600000   -0.0600000   2.494471e-04  1.671101e-07
     34     38   2   0.50000    -0.0600000   -0.1800000   1.015252e-03  1.866303e-06
     34     39   2   0.50000    -0.0600000   -0.2300000   1.136815e-03  2.180614e-06
     44     38   2   0.50000     0.0600000   -0.1800000   2.494471e-04  1.671101e-07
     44     39   2   0.50000     0.0600000   -0.2300000   2.793149e-04  1.952537e-07
     50     38   2   0.50000    -0.0600000   -0.1800000   1.015252e-03  1.866303e-06
     50     39   2   0.50000    -0.0600000   -0.2300000   1.136815e-03  2.180614e-06
     34     51   2   0.50000    -0.0600000   -0.1800000   1.015252e-03  1.866303e-06
     34     52   2   0.50000    -0.0600000   -0.0600000   1.015252e-03  1.866303e-06
     34     56   2   0.50000    -0.0600000    0.0600000   2.494471e-04  1.671101e-07
     37     51   2   0.50000     0.0000000   -0.1800000   1.136815e-03  2.180614e-06
     37     52   2   0.50000     0.0000000   -0.0600000   1.136815e-03  2.180614e-06
     37     56   2   0.50000     0.0000000    0.0600000   2.793149e-04  1.952537e-07
     44     51   2   0.50000     0.0600000   -0.1800000   2.494471e-04  1.671101e-07
     44     52   2   0.50000     0.0600000   -0.0600000   2.494471e-04  1.671101e-07
     44     56   2   0.50000     0.0600000    0.0600000   6.128906e-05  1.496315e-08
     36     45   2   0.50000    -0.0600000    0.0600000   2.494471e-04  1.671101e-07
     36     46   2   0.50000    -0.0600000    0.0600000   2.494471e-04  1.671101e-07
     36     47   2   0.50000    -0.0600000    0.0600000   2.494471e-04  1.671101e-07
     39     45   2   0.50000    -0.2300000    0.0600000   2.793149e-04  1.952537e-07
     39     46   2   0.50000    -0.2300000    0.0600000   2.793149e-04  1.952537e-07
     39     47   2   0.50000    -0.2300000    0.0600000   2.793149e-04  1.952537e-07
     36     48   2   0.50000    -0.0600000    0.1150000   2.262583e-04  1.374848e-07
     36     49   2   0.50000    -0.0600000    0.1150000   2.262583e-04  1.374848e-07
     38     48   2   0.50000    -0.1800000    0.1150000   2.262583e-04  1.374848e-07
     38     49   2   0.50000    -0.1800000    0.1150000   2.262583e-04  1.374848e-07
     36     57   2   0.50000    -0.0600000    0.0600000   2.494471e-04  1.671101e-07
     36     58   2   0.50000    -0.0600000    0.0600000   2.494471e-04  1.671101e-07
     36     59   2   0.50000    -0.0600000    0.0600000   2.494471e-04  1.671101e-07
     52     57   2   0.50000    -0.0600000    0.0600000   2.494471e-04  1.671101e-07
     52     58   2   0.50000    -0.0600000    0.0600000   2.494471e-04  1.671101e-07
     52     59   2   0.50000    -0.0600000    0.0600000   2.494471e-04  1.671101e-07
     56     57   2   0.50000     0.0600000    0.0600000   6.128906e-05  1.496315e-08
     56     58   2   0.50000     0.0600000    0.0600000   6.128906e-05  1.496315e-08
     56     59   2   0.50000     0.0600000    0.0600000   6.128906e-05  1.496315e-08
     36     53   2   0.50000    -0.0600000    0.0000000   1.136815e-03  2.180614e-06
     36     60   2   0.50000    -0.0600000    0.0600000   2.494471e-04  1.671101e-07
     36     66   2   0.50000    -0.0600000   -0.0600000   1.015252e-03  1.866303e-06
     51     53   2   0.50000    -0.1800000    0.0000000   1.136815e-03  2.180614e-06
     51     60   2   0.50000    -0.1800000    0.0600000   2.494471e-04  1.671101e-07
     51     66   2   0.50000    -0.1800000   -0.0600000   1.015252e-03  1.866303e-06
     56     53   2   0.50000     0.0600000    0.0000000   2.793149e-04  1.952537e-07
     56     60   2   0.50000     0.0600000    0.0600000   6.128906e-05  1.496315e-08
     56     66   2   0.50000     0.0600000   -0.0600000   2.494471e-04  1.671101e-07
     50     54   2   0.50000    -0.0600000   -0.1800000   1.015252e-03  1.866303e-06
     50     55   2   0.50000    -0.0600000   -0.2300000   1.136815e-03  2.180614e-06
     60     54   2   0.50000     0.0600000   -0.1800000   2.494471e-04  1.671101e-07
     60     55   2   0.50000     0.0600000   -0.2300000   2.793149e-04  1.952537e-07
     66     54   2   0.50000    -0.0600000   -0.1800000   1.015252e-03  1.866303e-06
     66     55   2   0.50000    -0.0600000   -0.2300000   1.136815e-03  2.180614e-06
     50     67   2   0.50000    -0.0600000   -0.1800000   1.015252e-03  1.866303e-06
     50     68   2   0.50000    -0.0600000   -0.0600000   1.015252e-03  1.866303e-06
     50     72   2   0.50000    -0.0600000    0.0600000   2.494471e-04  1.671101e-07
     53     67   2   0.50000     0.0000000   -0.1800000   1.136815e-03  2.180614e-06
     53     68   2   0.50000     0.0000000   -0.0600000   1.136815e-03  2.180614e-06
     53     72   2   0.50000     0.0000000    0.0600000   2.793149e-04  1.952537e-07
     60     67   2   0.50000     0.0600000   -0.1800000   2.494471e-04  1.671101e-07
     60     68   2   0.50000     0.0600000   -0.0600000   2.494471e-04  1.671101e-07
     60     72   2   0.50000     0.0600000    0.0600000   6.128906e-05  1.496315e-08
     52     61   2   0.50000    -0.0600000    0.0600000   2.494471e-04  1.671101e-07
     52     62   2   0.50000    -0.0600000    0.0600000   2.494471e-04  1.671101e-07
     52     63   2   0.50000    -0.0600000    0.0600000   2.494471e-04  1.671101e-07
     55     61   2   0.50000    -0.2300000    0.0600000   2.793149e-04  1.952537e-07
     55     62   2   0.50000    -0.2300000    0.0600000   2.793149e-04  1.952537e-07
     55     63   2   0.50000    -0.2300000    0.0600000   2.793149e-04  1.952537e-07
     52     64   2   0.50000    -0.0600000    0.1150000   2.262583e-04  1.374848e-07
     52     65   2   0.50000    -0.0600000    0.1150000   2.262583e-04  1.374848e-07
     54     64   2   0.50000    -0.1800000    0.1150000   2.262583e-04  1.374848e-07
     54     65   2   0.50000    -0.1800000    0.1150000   2.262583e-04  1.374848e-07
     52     73   2   0.50000    -0.0600000    0.0600000   2.494471e-04  1.671101e-07
     52     74   2   0.50000    -0.0600000    0.0600000   2.494471e-04  1.671101e-07
     52     75   2   0.50000    -0.0600000    0.0600000   2.494471e-04  1.671101e-07
     68     73   2   0.50000    -0.0600000    0.0600000   2.494471e-04  1.671101e-07
     68     74   2   0.50000    -0.0600000    0.0600000   2.494471e-04  1.671101e-07
     68     75   2   0.50000    -0.0600000    0.0600000   2.494471e-04  1.671101e-07
     72     73   2   0.50000     0.0600000    0.0600000   6.128906e-05  1.496315e-08
     72     74   2   0.50000     0.0600000    0.0600000   6.128906e-05  1.496315e-08
     72     75   2   0.50000     0.0600000    0.0600000   6.128906e-05  1.496315e-08
     52     69   2   0.50000    -0.0600000    0.0000000   1.136815e-03  2.180614e-06
     52     76   2   0.50000    -0.0600000    0.0600000   2.494471e-04  1.671101e-07
     52     82   2   0.50000    -0.0600000   -0.0600000   1.015252e-03  1.866303e-06
     67     69   2   0.50000    -0.1800000    0.0000000   1.136815e-03  2.180614e-06
     67     76   2   0.50000    -0.1800000    0.0600000   2.494471e-04  1.671101e-07
     67     82   2   0.50000    -0.1800000   -0.0600000   1.015252e-03  1.866303e-06
     72     69   2   0.50000     0.0600000    0.0000000   2.793149e-04  1.952537e-07
     72     76   2   0.50000     0.0600000    0.0600000   6.128906e-05  1.496315e-08
     72     82   2   0.50000     0.0600000   -0.0600000   2.494471e-04  1.671101e-07
     66     70   2   0.50000    -0.0600000   -0.1800000   1.015252e-03  1.866303e-06
     66     71   2   0.50000    -0.0600000   -0.2300000   1.136815e-03  2.180614e-06
     76     70   2   0.50000     0.0600000   -0.1800000   2.494471e-04  1.671101e-07
     76     71   2   0.50000     0.0600000   -0.2300000   2.793149e-04  1.952537e-07
     82     70   2   0.50000    -0.0600000   -0.1800000   1.015252e-03  1.866303e-06
     82     71   2   0.50000    -0.0600000   -0.2300000   1.136815e-03  2.180614e-06
     66     83   2   0.50000    -0.0600000   -0.1800000   1.015252e-03  1.866303e-06
     66     84   2   0.50000    -0.0600000   -0.0600000   1.015252e-03  1.866303e-06
     66     88   2   0.50000    -0.0600000    0.0600000   2.494471e-04  1.671101e-07
     69     83   2   0.50000     0.0000000   -0.1800000   1.136815e-03  2.180614e-06
     69     84   2   0.50000     0.0000000   -0.0600000   1.136815e-03  2.180614e-06
     69     88   2   0.50000     0.0000000    0.0600000   2.793149e-04  1.952537e-07
     76     83   2   0.50000     0.0600000   -0.1800000   2.494471e-04  1.671101e-07
     76     84   2   0.50000     0.0600000   -0.0600000   2.494471e-04  1.671101e-07
     76     88   2   0.50000     0.0600000    0.0600000   6.128906e-05  1.496315e-08
     68     77   2   0.50000    -0.0600000    0.0600000   2.494471e-04  1.671101e-07
     68     78   2   0.50000    -0.0600000    0.0600000   2.494471e-04  1.671101e-07
     68     79   2   0.50000    -0.0600000    0.0600000   2.494471e-04  1.671101e-07
     71     77   2   0.50000    -0.2300000    0.0600000   2.793149e-04  1.952537e-07
     71     78   2   0.50000    -0.2300000    0.0600000   2.793149e-04  1.952537e-07
     71     79   2   0.50000    -0.2300000    0.0600000   2.793149e-04  1.952537e-07
     68     80   2   0.50000    -0.0600000    0.1150000   2.262583e-04  1.374848e-07
     68     81   2   0.50000    -0.0600000    0.1150000   2.262583e-04  1.374848e-07
     70     80   2   0.50000    -0.1800000    0.1150000   2.262583e-04  1.374848e-07
     70     81   2   0.50000    -0.1800000    0.1150000   2.262583e-04  1.374848e-07
     68     89   2   0.50000    -0.0600000    0.0600000   2.494471e-04  1.671101e-07
     68     90   2   0.50000    -0.0600000    0.0600000   2.494471e-04  1.671101e-07
     68     91   2   0.50000    -0.0600000    0.0600000   2.494471e-04  1.671101e-07
     84     89   2   0.50000    -0.0600000    0.0600000   2.494471e-04  1.671101e-07
     84     90   2   0.50000    -0.0600000    0.0600000   2.494471e-04  1.671101e-07
     84     91   2   0.50000    -0.0600000    0.0600000   2.494471e-04  1.671101e-07
     88     89   2   0.50000     0.0600000    0.0600000   6.128906e-05  1.496315e-08
     88     90   2   0.50000     0.0600000    0.0600000   6.128906e-05  1.496315e-08
     88     91   2   0.50000     0.0600000    0.0600000   6.128906e-05  1.496315e-08
     68     85   2   0.50000    -0.0600000    0.0000000   1.136815e-03  2.180614e-06
     68     92   2   0.50000    -0.0600000    0.0600000   2.494471e-04  1.671101e-07
     68     98   2   0.50000    -0.0600000   -0.0600000   1.015252e-03  1.866303e-06
     83     85   2   0.50000    -0.1800000    0.0000000   1.136815e-03  2.180614e-06
     83     92   2   0.50000    -0.1800000    0.0600000   2.494471e-04  1.671101e-07
     83     98   2   0.50000    -0.1800000   -0.0600000   1.015252e-03  1.866303e-06
     88     85   2   0.50000     0.0600000    0.0000000   2.793149e-04  1.952537e-07
     88     92   2   0.50000     0.0600000    0.0600000   6.128906e-05  1.496315e-08
     88     98   2   0.50000     0.0600000   -0.0600000   2.494471e-04  1.671101e-07
     82     86   2   0.50000    -0.0600000   -0.1800000   1.015252e-03  1.866303e-06
     82     87   2   0.50000    -0.0600000   -0.2300000   1.136815e-03  2.180614e-06
     92     86   2   0.50000     0.0600000   -0.1800000   2.494471e-04  1.671101e-07
     92     87   2   0.50000     0.0600000   -0.2300000   2.793149e-04  1.952537e-07
     98     86   2   0.50000    -0.0600000   -0.1800000   1.015252e-03  1.866303e-06
     98     87   2   0.50000    -0.0600000   -0.2300000   1.136815e-03  2.180614e-06
     82     99   2   0.50000    -0.0600000   -0.1800000   1.015252e-03  1.866303e-06
     82    100   2   0.50000    -0.0600000   -0.0600000   1.015252e-03  1.866303e-06
     82    104   2   0.50000    -0.0600000    0.0600000   2.494471e-04  1.671101e-07
     85     99   2   0.50000     0.0000000   -0.1800000   1.136815e-03  2.180614e-06
     85    100   2   0.50000     0.0000000   -0.0600000   1.136815e-03  2.180614e-06
     85    104   2   0.50000     0.0000000    0.0600000   2.793149e-04  1.952537e-07
     92     99   2   0.50000     0.0600000   -0.1800000   2.494471e-04  1.671101e-07
     92    100   2   0.50000     0.0600000   -0.0600000   2.494471e-04  1.671101e-07
     92    104   2   0.50000     0.0600000    0.0600000   6.128906e-05  1.496315e-08
     84     93   2   0.50000    -0.0600000    0.0600000   2.494471e-04  1.671101e-07
     84     94   2   0.50000    -0.0600000    0.0600000   2.494471e-04  1.671101e-07
     84     95   2   0.50000    -0.0600000    0.0600000   2.494471e-04  1.671101e-07
     87     93   2   0.50000    -0.2300000    0.0600000   2.793149e-04  1.952537e-07
     87     94   2   0.50000    -0.2300000    0.0600000   2.793149e-04  1.952537e-07
     87     95   2   0.50000    -0.2300000    0.0600000   2.793149e-04  1.952537e-07
     84     96   2   0.50000    -0.0600000    0.1150000   2.262583e-04  1.374848e-07
     84     97   2   0.50000    -0.0600000    0.1150000   2.262583e-04  1.374848e-07
     86     96   2   0.50000    -0.1800000    0.1150000   2.262583e-04  1.374848e-07
     86     97   2   0.50000    -0.1800000    0.1150000   2.262583e-04  1.374848e-07
     84    105   2   0.50000    -0.0600000    0.0600000   2.494471e-04  1.671101e-07
     84    106   2   0.50000    -0.0600000    0.0600000   2.494471e-04  1.671101e-07
     84    107   2   0.50000    -0.0600000    0.0600000   2.494471e-04  1.671101e-07
    100    105   2   0.50000    -0.0600000    0.0600000   2.494471e-04  1.671101e-07
    100    106   2   0.50000    -0.0600000    0.0600000   2.494471e-04  1.671101e-07
    100    107   2   0.50000    -0.0600000    0.0600000   2.494471e-04  1.671101e-07
    104    105   2   0.50000     0.0600000    0.0600000   6.128906e-05  1.496315e-08
    104    106   2   0.50000     0.0600000    0.0600000   6.128906e-05  1.496315e-08
    104    107   2   0.50000     0.0600000    0.0600000   6.128906e-05  1.496315e-08
     84    101   2   0.50000    -0.0600000    0.0000000   1.136815e-03  2.180614e-06
     84    108   2   0.50000    -0.0600000    0.0600000   2.494471e-04  1.671101e-07
     84    114   2   0.50000    -0.0600000   -0.0600000   1.015252e-03  1.866303e-06
     99    101   2   0.50000    -0.1800000    0.0000000   1.136815e-03  2.180614e-06
     99    108   2   0.50000    -0.1800000    0.0600000   2.494471e-04  1.671101e-07
     99    114   2   0.50000    -0.1800000   -0.0600000   1.015252e-03  1.866303e-06
    104    101   2   0.50000     0.0600000    0.0000000   2.793149e-04  1.952537e-07
    104    108   2   0.50000     0.0600000    0.0600000   6.128906e-05  1.496315e-08
    104    114   2   0.50000     0.0600000   -0.0600000   2.494471e-04  1.671101e-07
     98    102   2   0.50000    -0.0600000   -0.1800000   1.015252e-03  1.866303e-06
     98    103   2   0.50000    -0.0600000   -0.2300000   1.136815e-03  2.180614e-06
    108    102   2   0.50000     0.0600000   -0.1800000   2.494471e-04  1.671101e-07
    108    103   2   0.50000     0.0600000   -0.2300000   2.793149e-04  1.952537e-07
    114    102   2   0.50000    -0.0600000   -0.1800000   1.015252e-03  1.866303e-06
    114    103   2   0.50000    -0.0600000   -0.2300000   1.136815e-03  2.180614e-06
     98    115   2   0.50000    -0.0600000   -0.1800000   1.015252e-03  1.866303e-06
     98    116   2   0.50000    -0.0600000   -0.0600000   1.015252e-03  1.866303e-06
     98    120   2   0.50000    -0.0600000    0.0600000   2.494471e-04  1.671101e-07
    101    115   2   0.50000     0.0000000   -0.1800000   1.136815e-03  2.180614e-06
    101    116   2   0.50000     0.0000000   -0.0600000   1.136815e-03  2.180614e-06
    101    120   2   0.50000     0.0000000    0.0600000   2.793149e-04  1.952537e-07
    108    115   2   0.50000     0.0600000   -0.1800000   2.494471e-04  1.671101e-07
    108    116   2   0.50000     0.0600000   -0.0600000   2.494471e-04  1.671101e-07
    108    120   2   0.50000     0.0600000    0.0600000   6.128906e-05  1.496315e-08
    100    109   2   0.50000    -0.0600000    0.0600000   2.494471e-04  1.671101e-07
    100    110   2   0.50000    -0.0600000    0.0600000   2.494471e-04  1.671101e-07
    100    111   2   0.50000    -0.0600000    0.0600000   2.494471e-04  1.671101e-07
    103    109   2   0.50000    -0.2300000    0.0600000   2.793149e-04  1.952537e-07
    103    110   2   0.50000    -0.2300000    0.0600000   2.793149e-04  1.952537e-07
    103    111   2   0.50000    -0.2300000    0.0600000   2.793149e-04  1.952537e-07
    100    112   2   0.50000    -0.0600000    0.1150000   2.262583e-04  1.374848e-07
    100    113   2   0.50000    -0.0600000    0.1150000   2.262583e-04  1.374848e-07
    102    112   2   0.50000    -0.1800000    0.1150000   2.262583e-04  1.374848e-07
    102    113   2   0.50000    -0.1800000    0.1150000   2.262583e-04  1.374848e-07
    100    121   2   0.50000    -0.0600000    0.0600000   2.494471e-04  1.671101e-07
    100    122   2   0.50000    -0.0600000    0.0600000   2.494471e-04  1.671101e-07
    100    123   2   0.50000    -0.0600000    0.0600000   2.494471e-04  1.671101e-07
    116    121   2   0.50000    -0.0600000    0.0600000   2.494471e-04  1.671101e-07
    116    122   2   0.50000    -0.0600000    0.0600000   2.494471e-04  1.671101e-07
    116    123   2   0.50000    -0.0600000    0.0600000   2.494471e-04  1.671101e-07
    120    121   2   0.50000     0.0600000    0.0600000   6.128906e-05  1.496315e-08
    120    122   2   0.50000     0.0600000    0.0600000   6.128906e-05  1.496315e-08
    120    123   2   0.50000     0.0600000    0.0600000   6.128906e-05  1.496315e-08
    100    117   2   0.50000    -0.0600000    0.0000000   1.136815e-03  2.180614e-06
    100    124   2   0.50000    -0.0600000    0.0600000   2.494471e-04  1.671101e-07
    100    130   2   0.50000    -0.0600000   -0.0600000   1.015252e-03  1.866303e-06
    115    117   2   0.50000    -0.1800000    0.0000000   1.136815e-03  2.180614e-06
    115    124   2   0.50000    -0.1800000    0.0600000   2.494471e-04  1.671101e-07
    115    130   2   0.50000    -0.1800000   -0.0600000   1.015252e-03  1.866303e-06
    120    117   2   0.50000     0.0600000    0.0000000   2.793149e-04  1.952537e-07
    120    124   2   0.50000     0.0600000    0.0600000   6.128906e-05  1.496315e-08
    120    130   2   0.50000     0.0600000   -0.0600000   2.494471e-04  1.671101e-07
    114    118   2   0.50000    -0.0600000   -0.1800000   1.015252e-03  1.866303e-06
    114    119   2   0.50000    -0.0600000   -0.2300000   1.136815e-03  2.180614e-06
    124    118   2   0.50000     0.0600000   -0.1800000   2.494471e-04  1.671101e-07
    124    119   2   0.50000     0.0600000   -0.2300000   2.793149e-04  1.952537e-07
    130    118   2   0.50000    -0.0600000   -0.1800000   1.015252e-03  1.866303e-06
    130    119   2   0.50000    -0.0600000   -0.2300000   1.136815e-03  2.180614e-06
    114    131   2   0.50000    -0.0600000   -0.1800000   1.015252e-03  1.866303e-06
    114    132   2   0.50000    -0.0600000   -0.0600000   1.015252e-03  1.866303e-06
    114    136   2   0.50000    -0.0600000    0.0600000   2.494471e-04  1.671101e-07
    117    131   2   0.50000     0.0000000   -0.1800000   1.136815e-03  2.180614e-06
    117    132   2   0.50000     0.0000000   -0.0600000   1.136815e-03  2.180614e-06
    117    136   2   0.50000     0.0000000    0.0600000   2.793149e-04  1.952537e-07
    124    131   2   0.50000     0.0600000   -0.1800000   2.494471e-04  1.671101e-07
    124    132   2   0.50000     0.0600000   -0.0600000   2.494471e-04  1.671101e-07
    124    136   2   0.50000     0.0600000    0.0600000   6.128906e-05  1.496315e-08
    116    125   2   0.50000    -0.0600000    0.0600000   2.494471e-04  1.671101e-07
    116    126   2   0.50000    -0.0600000    0.0600000   2.494471e-04  1.671101e-07
    116    127   2   0.50000    -0.0600000    0.0600000   2.494471e-04  1.671101e-07
    119    125   2   0.50000    -0.2300000    0.0600000   2.793149e-04  1.952537e-07
    119    126   2   0.50000    -0.2300000    0.0600000   2.793149e-04  1.952537e-07
    119    127   2   0.50000    -0.2300000    0.0600000   2.793149e-04  1.952537e-07
    116    128   2   0.50000    -0.0600000    0.1150000   2.262583e-04  1.374848e-07
    116    129   2   0.50000    -0.0600000    0.1150000   2.262583e-04  1.374848e-07
    118    128   2   0.50000    -0.1800000    0.1150000   2.262583e-04  1.374848e-07
    118    129   2   0.50000    -0.1800000    0.1150000   2.262583e-04  1.374848e-07
    116    137   2   0.50000    -0.0600000    0.0600000   2.494471e-04  1.671101e-07
    116    138   2   0.50000    -0.0600000    0.0600000   2.494471e-04  1.671101e-07
    116    139   2   0.50000    -0.0600000    0.0600000   2.494471e-04  1.671101e-07
    132    137   2   0.50000    -0.0600000    0.0600000   2.494471e-04  1.671101e-07
    132    138   2   0.50000    -0.0600000    0.0600000   2.494471e-04  1.671101e-07
    132    139   2   0.50000    -0.0600000    0.0600000   2.494471e-04  1.671101e-07
    136    137   2   0.50000     0.0600000    0.0600000   6.128906e-05  1.496315e-08
    136    138   2   0.50000     0.0600000    0.0600000   6.128906e-05  1.496315e-08
    136    139   2   0.50000     0.0600000    0.0600000   6.128906e-05  1.496315e-08
    116    133   2   0.50000    -0.0600000    0.0000000   1.136815e-03  2.180614e-06
    116    140   2   0.50000    -0.0600000    0.0600000   2.494471e-04  1.671101e-07
    116    146   2   0.50000    -0.0600000   -0.0600000   1.015252e-03  1.866303e-06
    131    133   2   0.50000    -0.1800000    0.0000000   1.136815e-03  2.180614e-06
    131    140   2   0.50000    -0.1800000    0.0600000   2.494471e-04  1.671101e-07
    131    146   2   0.50000    -0.1800000   -0.0600000   1.015252e-03  1.866303e-06
    136    133   2   0.50000     0.0600000    0.0000000   2.793149e-04  1.952537e-07
    136    140   2   0.50000     0.0600000    0.0600000   6.128906e-05  1.496315e-08
    136    146   2   0.50000     0.0600000   -0.0600000   2.494471e-04  1.671101e-07
    130    134   2   0.50000    -0.0600000   -0.1800000   1.015252e-03  1.866303e-06
    130    135   2   0.50000    -0.0600000   -0.2300000   1.136815e-03  2.180614e-06
    140    134   2   0.50000     0.0600000   -0.1800000   2.494471e-04  1.671101e-07
    140    135   2   0.50000     0.0600000   -0.2300000   2.793149e-04  1.952537e-07
    146    134   2   0.50000    -0.0600000   -0.1800000   1.015252e-03  1.866303e-06
    146    135   2   0.50000    -0.0600000   -0.2300000   1.136815e-03  2.180614e-06
    130    147   2   0.50000    -0.0600000   -0.1800000   1.015252e-03  1.866303e-06
    130    148   2   0.50000    -0.0600000   -0.0600000   1.015252e-03  1.866303e-06
    130    152   2   0.50000    -0.0600000    0.0600000   2.494471e-04  1.671101e-07
    133    147   2   0.50000     0.0000000   -0.1800000   1.136815e-03  2.180614e-06
    133    148   2   0.50000     0.0000000   -0.0600000   1.136815e-03  2.180614e-06
    133    152   2   0.50000     0.0000000    0.0600000   2.793149e-04  1.952537e-07
    140    147   2   0.50000     0.0600000   -0.1800000   2.494471e-04  1.671101e-07
    140    148   2   0.50000     0.0600000   -0.0600000   2.494471e-04  1.671101e-07
    140    152   2   0.50000     0.0600000    0.0600000   6.128906e-05  1.496315e-08
    132    141   2   0.50000    -0.0600000    0.0600000   2.494471e-04  1.671101e-07
    132    142   2   0.50000    -0.0600000    0.0600000   2.494471e-04  1.671101e-07
    132    143   2   0.50000    -0.0600000    0.0600000   2.494471e-04  1.671101e-07
    135    141   2   0.50000    -0.2300000    0.0600000   2.793149e-04  1.952537e-07
    135    142   2   0.50000    -0.2300000    0.0600000   2.793149e-04  1.952537e-07
    135    143   2   0.50000    -0.2300000    0.0600000   2.793149e-04  1.952537e-07
    132    144   2   0.50000    -0.0600000    0.1150000   2.262583e-04  1.374848e-07
    132    145   2   0.50000    -0.0600000    0.1150000   2.262583e-04  1.374848e-07
    134    144   2   0.50000    -0.1800000    0.1150000   2.262583e-04  1.374848e-07
    134    145   2   0.50000    -0.1800000    0.1150000   2.262583e-04  1.374848e-07
    132    153   2   0.50000    -0.0600000    0.0600000   2.494471e-04  1.671101e-07
    132    154   2   0.50000    -0.0600000    0.0600000   2.494471e-04  1.671101e-07
    132    155   2   0.50000    -0.0600000    0.0600000   2.494471e-04  1.671101e-07
    148    153   2   0.50000    -0.0600000    0.0600000   2.494471e-04  1.671101e-07
    148    154   2   0.50000    -0.0600000    0.0600000   2.494471e-04  1.671101e-07
    148    155   2   0.50000    -0.0600000    0.0600000   2.494471e-04  1.671101e-07
    152    153   2   0.50000     0.0600000    0.0600000   6.128906e-05  1.496315e-08
    152    154   2   0.50000     0.0600000    0.0600000   6.128906e-05  1.496315e-08
    152    155   2   0.50000     0.0600000    0.0600000   6.128906e-05  1.496315e-08
    132    149   2   0.50000    -0.0600000    0.0000000   1.136815e-03  2.180614e-06
    132    156   2   0.50000    -0.0600000    0.0600000   2.494471e-04  1.671101e-07
    132    162   2   0.50000    -0.0600000   -0.0600000   1.015252e-03  1.866303e-06
    147    149   2   0.50000    -0.1800000    0.0000000   1.136815e-03  2.180614e-06
    147    156   2   0.50000    -0.1800000    0.0600000   2.494471e-04  1.671101e-07
    147    162   2   0.50000    -0.1800000   -0.0600000   1.015252e-03  1.866303e-06
    152    149   2   0.50000     0.0600000    0.0000000   2.793149e-04  1.952537e-07
    152    156   2   0.50000     0.0600000    0.0600000   6.128906e-05  1.496315e-08
    152    162   2   0.50000     0.0600000   -0.0600000   2.494471e-04  1.671101e-07
    146    150   2   0.50000    -0.0600000   -0.1800000   1.015252e-03  1.866303e-06
    146    151   2   0.50000    -0.0600000   -0.2300000   1.136815e-03  2.180614e-06
    156    150   2   0.50000     0.0600000   -0.1800000   2.494471e-04  1.671101e-07
    156    151   2   0.50000     0.0600000   -0.2300000   2.793149e-04  1.952537e-07
    162    150   2   0.50000    -0.0600000   -0.1800000   1.015252e-03  1.866303e-06
    162    151   2   0.50000    -0.0600000   -0.2300000   1.136815e-03  2.180614e-06
    146    163   2   0.50000    -0.0600000   -0.1800000   1.015252e-03  1.866303e-06
    146    164   2   0.50000    -0.0600000   -0.0600000   1.015252e-03  1.866303e-06
    146    168   2   0.50000    -0.0600000    0.0600000   2.494471e-04  1.671101e-07
    149    163   2   0.50000     0.0000000   -0.1800000   1.136815e-03  2.180614e-06
    149    164   2   0.50000     0.0000000   -0.0600000   1.136815e-03  2.180614e-06
    149    168   2   0.50000     0.0000000    0.0600000   2.793149e-04  1.952537e-07
    156    163   2   0.50000     0.0600000   -0.1800000   2.494471e-04  1.671101e-07
    156    164   2   0.50000     0.0600000   -0.0600000   2.494471e-04  1.671101e-07
    156    168   2   0.50000     0.0600000    0.0600000   6.128906e-05  1.496315e-08
    148    157   2   0.50000    -0.0600000    0.0600000   2.494471e-04  1.671101e-07
    148    158   2   0.50000    -0.0600000    0.0600000   2.494471e-04  1.671101e-07
    148    159   2   0.50000    -0.0600000    0.0600000   2.494471e-04  1.671101e-07
    151    157   2   0.50000    -0.2300000    0.0600000   2.793149e-04  1.952537e-07
    151    158   2   0.50000    -0.2300000    0.0600000   2.793149e-04  1.952537e-07
    151    159   2   0.50000    -0.2300000    0.0600000   2.793149e-04  1.952537e-07
    148    160   2   0.50000    -0.0600000    0.1150000   2.262583e-04  1.374848e-07
    148    161   2   0.50000    -0.0600000    0.1150000   2.262583e-04  1.374848e-07
    150    160   2   0.50000    -0.1800000    0.1150000   2.262583e-04  1.374848e-07
    150    161   2   0.50000    -0.1800000    0.1150000   2.262583e-04  1.374848e-07
    148    169   2   0.50000    -0.0600000    0.0600000   2.494471e-04  1.671101e-07
    148    170   2   0.50000    -0.0600000    0.0600000   2.494471e-04  1.671101e-07
    148    171   2   0.50000    -0.0600000    0.0600000   2.494471e-04  1.671101e-07
    164    169   2   0.50000    -0.0600000    0.0600000   2.494471e-04  1.671101e-07
    164    170   2   0.50000    -0.0600000    0.0600000   2.494471e-04  1.671101e-07
    164    171   2   0.50000    -0.0600000    0.0600000   2.494471e-04  1.671101e-07
    168    169   2   0.50000     0.0600000    0.0600000   6.128906e-05  1.496315e-08
    168    170   2   0.50000     0.0600000    0.0600000   6.128906e-05  1.496315e-08
    168    171   2   0.50000     0.0600000    0.0600000   6.128906e-05  1.496315e-08
    148    165   2   0.50000    -0.0600000    0.0000000   1.136815e-03  2.180614e-06
    148    172   2   0.50000    -0.0600000    0.0600000   2.494471e-04  1.671101e-07
    148    178   2   0.50000    -0.0600000   -0.0600000   1.015252e-03  1.866303e-06
    163    165   2   0.50000    -0.1800000    0.0000000   1.136815e-03  2.180614e-06
    163    172   2   0.50000    -0.1800000    0.0600000   2.494471e-04  1.671101e-07
    163    178   2   0.50000    -0.1800000   -0.0600000   1.015252e-03  1.866303e-06
    168    165   2   0.50000     0.0600000    0.0000000   2.793149e-04  1.952537e-07
    168    172   2   0.50000     0.0600000    0.0600000   6.128906e-05  1.496315e-08
    168    178   2   0.50000     0.0600000   -0.0600000   2.494471e-04  1.671101e-07
    162    166   2   0.50000    -0.0600000   -0.1800000   1.015252e-03  1.866303e-06
    162    167   2   0.50000    -0.0600000   -0.2300000   1.136815e-03  2.180614e-06
    172    166   2   0.50000     0.0600000   -0.1800000   2.494471e-04  1.671101e-07
    172    167   2   0.50000     0.0600000   -0.2300000   2.793149e-04  1.952537e-07
    178    166   2   0.50000    -0.0600000   -0.1800000   1.015252e-03  1.866303e-06
    178    167   2   0.50000    -0.0600000   -0.2300000   1.136815e-03  2.180614e-06
    162    179   2   0.50000    -0.0600000   -0.1800000   1.015252e-03  1.866303e-06
    162    180   2   0.50000    -0.0600000   -0.0600000   1.015252e-03  1.866303e-06
    162    184   2   0.50000    -0.0600000    0.0600000   2.494471e-04  1.671101e-07
    165    179   2   0.50000     0.0000000   -0.1800000   1.136815e-03  2.180614e-06
    165    180   2   0.50000     0.0000000   -0.0600000   1.136815e-03  2.180614e-06
    165    184   2   0.50000     0.0000000    0.0600000   2.793149e-04  1.952537e-07
    172    179   2   0.50000     0.0600000   -0.1800000   2.494471e-04  1.671101e-07
    172    180   2   0.50000     0.0600000   -0.0600000   2.494471e-04  1.671101e-07
    172    184   2   0.50000     0.0600000    0.0600000   6.128906e-05  1.496315e-08
    164    173   2   0.50000    -0.0600000    0.0600000   2.494471e-04  1.671101e-07
    164    174   2   0.50000    -0.0600000    0.0600000   2.494471e-04  1.671101e-07
    164    175   2   0.50000    -0.0600000    0.0600000   2.494471e-04  1.671101e-07
    167    173   2   0.50000    -0.2300000    0.0600000   2.793149e-04  1.952537e-07
    167    174   2   0.50000    -0.2300000    0.0600000   2.793149e-04  1.952537e-07
    167    175   2   0.50000    -0.2300000    0.0600000   2.793149e-04  1.952537e-07
    164    176   2   0.50000    -0.0600000    0.1150000   2.262583e-04  1.374848e-07
    164    177   2   0.50000    -0.0600000    0.1150000   2.262583e-04  1.374848e-07
    166    176   2   0.50000    -0.1800000    0.1150000   2.262583e-04  1.374848e-07
    166    177   2   0.50000    -0.1800000    0.1150000   2.262583e-04  1.374848e-07
    164    185   2   0.50000    -0.0600000    0.0600000   2.494471e-04  1.671101e-07
    164    186   2   0.50000    -0.0600000    0.0600000   2.494471e-04  1.671101e-07
    164    187   2   0.50000    -0.0600000    0.0600000   2.494471e-04  1.671101e-07
    180    185   2   0.50000    -0.0600000    0.0600000   2.494471e-04  1.671101e-07
    180    186   2   0.50000    -0.0600000    0.0600000   2.494471e-04  1.671101e-07
    180    187   2   0.50000    -0.0600000    0.0600000   2.494471e-04  1.671101e-07
    184    185   2   0.50000     0.0600000    0.0600000   6.128906e-05  1.496315e-08
    184    186   2   0.50000     0.0600000    0.0600000   6.128906e-05  1.496315e-08
    184    187   2   0.50000     0.0600000    0.0600000   6.128906e-05  1.496315e-08
    164    181   2   0.50000    -0.0600000    0.0000000   1.136815e-03  2.180614e-06
    164    188   2   0.50000    -0.0600000    0.0600000   2.494471e-04  1.671101e-07
    164    194   2   0.50000    -0.0600000   -0.0600000   1.015252e-03  1.866303e-06
    179    181   2   0.50000    -0.1800000    0.0000000   1.136815e-03  2.180614e-06
    179    188   2   0.50000    -0.1800000    0.0600000   2.494471e-04  1.671101e-07
    179    194   2   0.50000    -0.1800000   -0.0600000   1.015252e-03  1.866303e-06
    184    181   2   0.50000     0.0600000    0.0000000   2.793149e-04  1.952537e-07
    184    188   2   0.50000     0.0600000    0.0600000   6.128906e-05  1.496315e-08
    184    194   2   0.50000     0.0600000   -0.0600000   2.494471e-04  1.671101e-07
    178    182   2   0.50000    -0.0600000   -0.1800000   1.015252e-03  1.866303e-06
    178    183   2   0.50000    -0.0600000   -0.2300000   1.136815e-03  2.180614e-06
    188    182   2   0.50000     0.0600000   -0.1800000   2.494471e-04  1.671101e-07
    188    183   2   0.50000     0.0600000   -0.2300000   2.793149e-04  1.952537e-07
    194    182   2   0.50000    -0.0600000   -0.1800000   1.015252e-03  1.866303e-06
    194    183   2   0.50000    -0.0600000   -0.2300000   1.136815e-03  2.180614e-06
    178    195   2   0.50000    -0.0600000   -0.1800000   1.015252e-03  1.866303e-06
    178    196   2   0.50000    -0.0600000   -0.0600000   1.015252e-03  1.866303e-06
    178    200   2   0.50000    -0.0600000    0.0600000   2.494471e-04  1.671101e-07
    181    195   2   0.50000     0.0000000   -0.1800000   1.136815e-03  2.180614e-06
    181    196   2   0.50000     0.0000000   -0.0600000   1.136815e-03  2.180614e-06
    181    200   2   0.50000     0.0000000    0.0600000   2.793149e-04  1.952537e-07
    188    195   2   0.50000     0.0600000   -0.1800000   2.494471e-04  1.671101e-07
    188    196   2   0.50000     0.0600000   -0.0600000   2.494471e-04  1.671101e-07
    188    200   2   0.50000     0.0600000    0.0600000   6.128906e-05  1.496315e-08
    180    189   2   0.50000    -0.0600000    0.0600000   2.494471e-04  1.671101e-07
    180    190   2   0.50000    -0.0600000    0.0600000   2.494471e-04  1.671101e-07
    180    191   2   0.50000    -0.0600000    0.0600000   2.494471e-04  1.671101e-07
    183    189   2   0.50000    -0.2300000    0.0600000   2.793149e-04  1.952537e-07
    183    190   2   0.50000    -0.2300000    0.0600000   2.793149e-04  1.952537e-07
    183    191   2   0.50000    -0.2300000    0.0600000   2.793149e-04  1.952537e-07
    180    192   2   0.50000    -0.0600000    0.1150000   2.262583e-04  1.374848e-07
    180    193   2   0.50000    -0.0600000    0.1150000   2.262583e-04  1.374848e-07
    182    192   2   0.50000    -0.1800000    0.1150000   2.262583e-04  1.374848e-07
    182    193   2   0.50000    -0.1800000    0.1150000   2.262583e-04  1.374848e-07
    180    201   2   0.50000    -0.0600000    0.0600000   2.494471e-04  1.671101e-07
    180    202   2   0.50000    -0.0600000    0.0600000   2.494471e-04  1.671101e-07
    180    203   2   0.50000    -0.0600000    0.0600000   2.494471e-04  1.671101e-07
    196    201   2   0.50000    -0.0600000    0.0600000   2.494471e-04  1.671101e-07
    196    202   2   0.50000    -0.0600000    0.0600000   2.494471e-04  1.671101e-07
    196    203   2   0.50000    -0.0600000    0.0600000   2.494471e-04  1.671101e-07
    200    201   2   0.50000     0.0600000    0.0600000   6.128906e-05  1.496315e-08
    200    202   2   0.50000     0.0600000    0.0600000   6.128906e-05  1.496315e-08
    200    203   2   0.50000     0.0600000    0.0600000   6.128906e-05  1.496315e-08
    180    197   2   0.50000    -0.0600000    0.0000000   1.136815e-03  2.180614e-06
    180    204   2   0.50000    -0.0600000    0.0600000   2.494471e-04  1.671101e-07
    180    210   2   0.50000    -0.0600000   -0.0600000   1.015252e-03  1.866303e-06
    195    197   2   0.50000    -0.1800000    0.0000000   1.136815e-03  2.180614e-06
    195    204   2   0.50000    -0.1800000    0.0600000   2.494471e-04  1.671101e-07
    195    210   2   0.50000    -0.1800000   -0.0600000   1.015252e-03  1.866303e-06
    200    197   2   0.50000     0.0600000    0.0000000   2.793149e-04  1.952537e-07
    200    204   2   0.50000     0.0600000    0.0600000   6.128906e-05  1.496315e-08
    200    210   2   0.50000     0.0600000   -0.0600000   2.494471e-04  1.671101e-07
    194    198   2   0.50000    -0.0600000   -0.1800000   1.015252e-03  1.866303e-06
    194    199   2   0.50000    -0.0600000   -0.2300000   1.136815e-03  2.180614e-06
    204    198   2   0.50000     0.0600000   -0.1800000   2.494471e-04  1.671101e-07
    204    199   2   0.50000     0.0600000   -0.2300000   2.793149e-04  1.952537e-07
    210    198   2   0.50000    -0.0600000   -0.1800000   1.015252e-03  1.866303e-06
    210    199   2   0.50000    -0.0600000   -0.2300000   1.136815e-03  2.180614e-06
    194    211   2   0.50000    -0.0600000   -0.1800000   1.015252e-03  1.866303e-06
    194    212   2   0.50000    -0.0600000   -0.0600000   1.015252e-03  1.866303e-06
    194    216   2   0.50000    -0.0600000    0.0600000   2.494471e-04  1.671101e-07
    197    211   2   0.50000     0.0000000   -0.1800000   1.136815e-03  2.180614e-06
    197    212   2   0.50000     0.0000000   -0.0600000   1.136815e-03  2.180614e-06
    197    216   2   0.50000     0.0000000    0.0600000   2.793149e-04  1.952537e-07
    204    211   2   0.50000     0.0600000   -0.1800000   2.494471e-04  1.671101e-07
    204    212   2   0.50000     0.0600000   -0.0600000   2.494471e-04  1.671101e-07
    204    216   2   0.50000     0.0600000    0.0600000   6.128906e-05  1.496315e-08
    196    205   2   0.50000    -0.0600000    0.0600000   2.494471e-04  1.671101e-07
    196    206   2   0.50000    -0.0600000    0.0600000   2.494471e-04  1.671101e-07
    196    207   2   0.50000    -0.0600000    0.0600000   2.494471e-04  1.671101e-07
    199    205   2   0.50000    -0.2300000    0.0600000   2.793149e-04  1.952537e-07
    199    206   2   0.50000    -0.2300000    0.0600000   2.793149e-04  1.952537e-07
    199    207   2   0.50000    -0.2300000    0.0600000   2.793149e-04  1.952537e-07
    196    208   2   0.50000    -0.0600000    0.1150000   2.262583e-04  1.374848e-07
    196    209   2   0.50000    -0.0600000    0.1150000   2.262583e-04  1.374848e-07
    198    208   2   0.50000    -0.1800000    0.1150000   2.262583e-04  1.374848e-07
    198    209   2   0.50000    -0.1800000    0.1150000   2.262583e-04  1.374848e-07
    196    217   2   0.50000    -0.0600000    0.0600000   2.494471e-04  1.671101e-07
    196    218   2   0.50000    -0.0600000    0.0600000   2.494471e-04  1.671101e-07
    196    219   2   0.50000    -0.0600000    0.0600000   2.494471e-04  1.671101e-07
    212    217   2   0.50000    -0.0600000    0.0600000   2.494471e-04  1.671101e-07
    212    218   2   0.50000    -0.0600000    0.0600000   2.494471e-04  1.671101e-07
    212    219   2   0.50000    -0.0600000    0.0600000   2.494471e-04  1.671101e-07
    216    217   2   0.50000     0.0600000    0.0600000   6.128906e-05  1.496315e-08
    216    218   2   0.50000     0.0600000    0.0600000   6.128906e-05  1.496315e-08
    216    219   2   0.50000     0.0600000    0.0600000   6.128906e-05  1.496315e-08
    196    213   2   0.50000    -0.0600000    0.0000000   1.136815e-03  2.180614e-06
    196    220   2   0.50000    -0.0600000    0.0600000   2.494471e-04  1.671101e-07
    196    226   2   0.50000    -0.0600000   -0.0600000   1.015252e-03  1.866303e-06
    211    213   2   0.50000    -0.1800000    0.0000000   1.136815e-03  2.180614e-06
    211    220   2   0.50000    -0.1800000    0.0600000   2.494471e-04  1.671101e-07
    211    226   2   0.50000    -0.1800000   -0.0600000   1.015252e-03  1.866303e-06
    216    213   2   0.50000     0.0600000    0.0000000   2.793149e-04  1.952537e-07
    216    220   2   0.50000     0.0600000    0.0600000   6.128906e-05  1.496315e-08
    216    226   2   0.50000     0.0600000   -0.0600000   2.494471e-04  1.671101e-07
    210    214   2   0.50000    -0.0600000   -0.1800000   1.015252e-03  1.866303e-06
    210    215   2   0.50000    -0.0600000   -0.2300000   1.136815e-03  2.180614e-06
    220    214   2   0.50000     0.0600000   -0.1800000   2.494471e-04  1.671101e-07
    220    215   2   0.50000     0.0600000   -0.2300000   2.793149e-04  1.952537e-07
    226    214   2   0.50000    -0.0600000   -0.1800000   1.015252e-03  1.866303e-06
    226    215   2   0.50000    -0.0600000   -0.2300000   1.136815e-03  2.180614e-06
    210    227   2   0.50000    -0.0600000   -0.1800000   1.015252e-03  1.866303e-06
    210    228   2   0.50000    -0.0600000   -0.0600000   1.015252e-03  1.866303e-06
    210    232   2   0.50000    -0.0600000    0.0600000   2.494471e-04  1.671101e-07
    213    227   2   0.50000     0.0000000   -0.1800000   1.136815e-03  2.180614e-06
    213    228   2   0.50000     0.0000000   -0.0600000   1.136815e-03  2.180614e-06
    213    232   2   0.50000     0.0000000    0.0600000   2.793149e-04  1.952537e-07
    220    227   2   0.50000     0.0600000   -0.1800000   2.494471e-04  1.671101e-07
    220    228   2   0.50000     0.0600000   -0.0600000   2.494471e-04  1.671101e-07
    220    232   2   0.50000     0.0600000    0.0600000   6.128906e-05  1.496315e-08
    212    221   2   0.50000    -0.0600000    0.0600000   2.494471e-04  1.671101e-07
    212    222   2   0.50000    -0.0600000    0.0600000   2.494471e-04  1.671101e-07
    212    223   2   0.50000    -0.0600000    0.0600000   2.494471e-04  1.671101e-07
    215    221   2   0.50000    -0.2300000    0.0600000   2.793149e-04  1.952537e-07
    215    222   2   0.50000    -0.2300000    0.0600000   2.793149e-04  1.952537e-07
    215    223   2   0.50000    -0.2300000    0.0600000   2.793149e-04  1.952537e-07
    212    224   2   0.50000    -0.0600000    0.1150000   2.262583e-04  1.374848e-07
    212    225   2   0.50000    -0.0600000    0.1150000   2.262583e-04  1.374848e-07
    214    224   2   0.50000    -0.1800000    0.1150000   2.262583e-04  1.374848e-07
    214    225   2   0.50000    -0.1800000    0.1150000   2.262583e-04  1.374848e-07
    212    233   2   0.50000    -0.0600000    0.0600000   2.494471e-04  1.671101e-07
    212    234   2   0.50000    -0.0600000    0.0600000   2.494471e-04  1.671101e-07
    212    235   2   0.50000    -0.0600000    0.0600000   2.494471e-04  1.671101e-07
    228    233   2   0.50000    -0.0600000    0.0600000   2.494471e-04  1.671101e-07
    228    234   2   0.50000    -0.0600000    0.0600000   2.494471e-04  1.671101e-07
    228    235   2   0.50000    -0.0600000    0.0600000   2.494471e-04  1.671101e-07
    232    233   2   0.50000     0.0600000    0.0600000   6.128906e-05  1.496315e-08
    232    234   2   0.50000     0.0600000    0.0600000   6.128906e-05  1.496315e-08
    232    235   2   0.50000     0.0600000    0.0600000   6.128906e-05  1.496315e-08
    212    229   2   0.50000    -0.0600000    0.0000000   1.136815e-03  2.180614e-06
    212    236   2   0.50000    -0.0600000    0.0600000   2.494471e-04  1.671101e-07
    212    242   2   0.50000    -0.0600000   -0.0600000   1.015252e-03  1.866303e-06
    227    229   2   0.50000    -0.1800000    0.0000000   1.136815e-03  2.180614e-06
    227    236   2   0.50000    -0.1800000    0.0600000   2.494471e-04  1.671101e-07
    227    242   2   0.50000    -0.1800000   -0.0600000   1.015252e-03  1.866303e-06
    232    229   2   0.50000     0.0600000    0.0000000   2.793149e-04  1.952537e-07
    232    236   2   0.50000     0.0600000    0.0600000   6.128906e-05  1.496315e-08
    232    242   2   0.50000     0.0600000   -0.0600000   2.494471e-04  1.671101e-07
    226    230   2   0.50000    -0.0600000   -0.1800000   1.015252e-03  1.866303e-06
    226    231   2   0.50000    -0.0600000   -0.2300000   1.136815e-03  2.180614e-06
    236    230   2   0.50000     0.0600000   -0.1800000   2.494471e-04  1.671101e-07
    236    231   2   0.50000     0.0600000   -0.2300000   2.793149e-04  1.952537e-07
    242    230   2   0.50000    -0.0600000   -0.1800000   1.015252e-03  1.866303e-06
    242    231   2   0.50000    -0.0600000   -0.2300000   1.136815e-03  2.180614e-06
    226    243   2   0.50000    -0.0600000   -0.1800000   1.015252e-03  1.866303e-06
    226    244   2   0.50000    -0.0600000   -0.0600000   1.015252e-03  1.866303e-06
    226    248   2   0.50000    -0.0600000    0.0600000   2.494471e-04  1.671101e-07
    229    243   2   0.50000     0.0000000   -0.1800000   1.136815e-03  2.180614e-06
    229    244   2   0.50000     0.0000000   -0.0600000   1.136815e-03  2.180614e-06
    229    248   2   0.50000     0.0000000    0.0600000   2.793149e-04  1.952537e-07
    236    243   2   0.50000     0.0600000   -0.1800000   2.494471e-04  1.671101e-07
    236    244   2   0.50000     0.0600000   -0.0600000   2.494471e-04  1.671101e-07
    236    248   2   0.50000     0.0600000    0.0600000   6.128906e-05  1.496315e-08
    228    237   2   0.50000    -0.0600000    0.0600000   2.494471e-04  1.671101e-07
    228    238   2   0.50000    -0.0600000    0.0600000   2.494471e-04  1.671101e-07
    228    239   2   0.50000    -0.0600000    0.0600000   2.494471e-04  1.671101e-07
    231    237   2   0.50000    -0.2300000    0.0600000   2.793149e-04  1.952537e-07
    231    238   2   0.50000    -0.2300000    0.0600000   2.793149e-04  1.952537e-07
    231    239   2   0.50000    -0.2300000    0.0600000   2.793149e-04  1.952537e-07
    228    240   2   0.50000    -0.0600000    0.1150000   2.262583e-04  1.374848e-07
    228    241   2   0.50000    -0.0600000    0.1150000   2.262583e-04  1.374848e-07
    230    240   2   0.50000    -0.1800000    0.1150000   2.262583e-04  1.374848e-07
    230    241   2   0.50000    -0.1800000    0.1150000   2.262583e-04  1.374848e-07
    228    249   2   0.50000    -0.0600000    0.0600000   2.494471e-04  1.671101e-07
    228    250   2   0.50000    -0.0600000    0.0600000   2.494471e-04  1.671101e-07
    228    251   2   0.50000    -0.0600000    0.0600000   2.494471e-04  1.671101e-07
    244    249   2   0.50000    -0.0600000    0.0600000   2.494471e-04  1.671101e-07
    244    250   2   0.50000    -0.0600000    0.0600000   2.494471e-04  1.671101e-07
    244    251   2   0.50000    -0.0600000    0.0600000   2.494471e-04  1.671101e-07
    248    249   2   0.50000     0.0600000    0.0600000   6.128906e-05  1.496315e-08
    248    250   2   0.50000     0.0600000    0.0600000   6.128906e-05  1.496315e-08
    248    251   2   0.50000     0.0600000    0.0600000   6.128906e-05  1.496315e-08
    228    245   2   0.50000    -0.0600000    0.0000000   1.136815e-03  2.180614e-06
    228    252   2   0.50000    -0.0600000    0.0600000   2.494471e-04  1.671101e-07
    228    258   2   0.50000    -0.0600000   -0.0600000   1.015252e-03  1.866303e-06
    243    245   2   0.50000    -0.1800000    0.0000000   1.136815e-03  2.180614e-06
    243    252   2   0.50000    -0.1800000    0.0600000   2.494471e-04  1.671101e-07
    243    258   2   0.50000    -0.1800000   -0.0600000   1.015252e-03  1.866303e-06
    248    245   2   0.50000     0.0600000    0.0000000   2.793149e-04  1.952537e-07
    248    252   2   0.50000     0.0600000    0.0600000   6.128906e-05  1.496315e-08
    248    258   2   0.50000     0.0600000   -0.0600000   2.494471e-04  1.671101e-07
    242    246   2   0.50000    -0.0600000   -0.1800000   1.015252e-03  1.866303e-06
    242    247   2   0.50000    -0.0600000   -0.2300000   1.136815e-03  2.180614e-06
    252    246   2   0.50000     0.0600000   -0.1800000   2.494471e-04  1.671101e-07
    252    247   2   0.50000     0.0600000   -0.2300000   2.793149e-04  1.952537e-07
    258    246   2   0.50000    -0.0600000   -0.1800000   1.015252e-03  1.866303e-06
    258    247   2   0.50000    -0.0600000   -0.2300000   1.136815e-03  2.180614e-06
    242    259   2   0.50000    -0.0600000   -0.1800000   1.015252e-03  1.866303e-06
    242    260   2   0.50000    -0.0600000   -0.0600000   1.015252e-03  1.866303e-06
    242    264   2   0.50000    -0.0600000    0.0600000   2.494471e-04  1.671101e-07
    245    259   2   0.50000     0.0000000   -0.1800000   1.136815e-03  2.180614e-06
    245    260   2   0.50000     0.0000000   -0.0600000   1.136815e-03  2.180614e-06
    245    264   2   0.50000     0.0000000    0.0600000   2.793149e-04  1.952537e-07
    252    259   2   0.50000     0.0600000   -0.1800000   2.494471e-04  1.671101e-07
    252    260   2   0.50000     0.0600000   -0.0600000   2.494471e-04  1.671101e-07
    252    264   2   0.50000     0.0600000    0.0600000   6.128906e-05  1.496315e-08
    244    253   2   0.50000    -0.0600000    0.0600000   2.494471e-04  1.671101e-07
    244    254   2   0.50000    -0.0600000    0.0600000   2.494471e-04  1.671101e-07
    244    255   2   0.50000    -0.0600000    0.0600000   2.494471e-04  1.671101e-07
    247    253   2   0.50000    -0.2300000    0.0600000   2.793149e-04  1.952537e-07
    247    254   2   0.50000    -0.2300000    0.0600000   2.793149e-04  1.952537e-07
    247    255   2   0.50000    -0.2300000    0.0600000   2.793149e-04  1.952537e-07
    244    256   2   0.50000    -0.0600000    0.1150000   2.262583e-04  1.374848e-07
    244    257   2   0.50000    -0.0600000    0.1150000   2.262583e-04  1.374848e-07
    246    256   2   0.50000    -0.1800000    0.1150000   2.262583e-04  1.374848e-07
    246    257   2   0.50000    -0.1800000    0.1150000   2.262583e-04  1.374848e-07
    244    265   2   0.50000    -0.0600000    0.0600000   2.494471e-04  1.671101e-07
    244    266   2   0.50000    -0.0600000    0.0600000   2.494471e-04  1.671101e-07
    244    267   2   0.50000    -0.0600000    0.0600000   2.494471e-04  1.671101e-07
    260    265   2   0.50000    -0.0600000    0.0600000   2.494471e-04  1.671101e-07
    260    266   2   0.50000    -0.0600000    0.0600000   2.494471e-04  1.671101e-07
    260    267   2   0.50000    -0.0600000    0.0600000   2.494471e-04  1.671101e-07
    264    265   2   0.50000     0.0600000    0.0600000   6.128906e-05  1.496315e-08
    264    266   2   0.50000     0.0600000    0.0600000   6.128906e-05  1.496315e-08
    264    267   2   0.50000     0.0600000    0.0600000   6.128906e-05  1.496315e-08
    244    261   2   0.50000    -0.0600000    0.0000000   1.136815e-03  2.180614e-06
    244    268   2   0.50000    -0.0600000    0.0600000   2.494471e-04  1.671101e-07
    244    274   2   0.50000    -0.0600000   -0.0600000   1.015252e-03  1.866303e-06
    259    261   2   0.50000    -0.1800000    0.0000000   1.136815e-03  2.180614e-06
    259    268   2   0.50000    -0.1800000    0.0600000   2.494471e-04  1.671101e-07
    259    274   2   0.50000    -0.1800000   -0.0600000   1.015252e-03  1.866303e-06
    264    261   2   0.50000     0.0600000    0.0000000   2.793149e-04  1.952537e-07
    264    268   2   0.50000     0.0600000    0.0600000   6.128906e-05  1.496315e-08
    264    274   2   0.50000     0.0600000   -0.0600000   2.494471e-04  1.671101e-07
    258    262   2   0.50000    -0.0600000   -0.1800000   1.015252e-03  1.866303e-06
    258    263   2   0.50000    -0.0600000   -0.2300000   1.136815e-03  2.180614e-06
    268    262   2   0.50000     0.0600000   -0.1800000   2.494471e-04  1.671101e-07
    268    263   2   0.50000     0.0600000   -0.2300000   2.793149e-04  1.952537e-07
    274    262   2   0.50000    -0.0600000   -0.1800000   1.015252e-03  1.866303e-06
    274    263   2   0.50000    -0.0600000   -0.2300000   1.136815e-03  2.180614e-06
    258    275   2   0.50000    -0.0600000   -0.1800000   1.015252e-03  1.866303e-06
    258    276   2   0.50000    -0.0600000   -0.0600000   1.015252e-03  1.866303e-06
    258    280   2   0.50000    -0.0600000    0.0600000   2.494471e-04  1.671101e-07
    261    275   2   0.50000     0.0000000   -0.1800000   1.136815e-03  2.180614e-06
    261    276   2   0.50000     0.0000000   -0.0600000   1.136815e-03  2.180614e-06
    261    280   2   0.50000     0.0000000    0.0600000   2.793149e-04  1.952537e-07
    268    275   2   0.50000     0.0600000   -0.1800000   2.494471e-04  1.671101e-07
    268    276   2   0.50000     0.0600000   -0.0600000   2.494471e-04  1.671101e-07
    268    280   2   0.50000     0.0600000    0.0600000   6.128906e-05  1.496315e-08
    260    269   2   0.50000    -0.0600000    0.0600000   2.494471e-04  1.671101e-07
    260    270   2   0.50000    -0.0600000    0.0600000   2.494471e-04  1.671101e-07
    260    271   2   0.50000    -0.0600000    0.0600000   2.494471e-04  1.671101e-07
    263    269   2   0.50000    -0.2300000    0.0600000   2.793149e-04  1.952537e-07
    263    270   2   0.50000    -0.2300000    0.0600000   2.793149e-04  1.952537e-07
    263    271   2   0.50000    -0.2300000    0.0600000   2.793149e-04  1.952537e-07
    260    272   2   0.50000    -0.0600000    0.1150000   2.262583e-04  1.374848e-07
    260    273   2   0.50000    -0.0600000    0.1150000   2.262583e-04  1.374848e-07
    262    272   2   0.50000    -0.1800000    0.1150000   2.262583e-04  1.374848e-07
    262    273   2   0.50000    -0.1800000    0.1150000   2.262583e-04  1.374848e-07
    260    281   2   0.50000    -0.0600000    0.0600000   2.494471e-04  1.671101e-07
    260    282   2   0.50000    -0.0600000    0.0600000   2.494471e-04  1.671101e-07
    260    283   2   0.50000    -0.0600000    0.0600000   2.494471e-04  1.671101e-07
    276    281   2   0.50000    -0.0600000    0.0600000   2.494471e-04  1.671101e-07
    276    282   2   0.50000    -0.0600000    0.0600000   2.494471e-04  1.671101e-07
    276    283   2   0.50000    -0.0600000    0.0600000   2.494471e-04  1.671101e-07
    280    281   2   0.50000     0.0600000    0.0600000   6.128906e-05  1.496315e-08
    280    282   2   0.50000     0.0600000    0.0600000   6.128906e-05  1.496315e-08
    280    283   2   0.50000     0.0600000    0.0600000   6.128906e-05  1.496315e-08
    260    277   2   0.50000    -0.0600000    0.0000000   1.136815e-03  2.180614e-06
    260    284   2   0.50000    -0.0600000    0.0600000   2.494471e-04  1.671101e-07
    260    290   2   0.50000    -0.0600000   -0.0600000   1.015252e-03  1.866303e-06
    275    277   2   0.50000    -0.1800000    0.0000000   1.136815e-03  2.180614e-06
    275    284   2   0.50000    -0.1800000    0.0600000   2.494471e-04  1.671101e-07
    275    290   2   0.50000    -0.1800000   -0.0600000   1.015252e-03  1.866303e-06
    280    277   2   0.50000     0.0600000    0.0000000   2.793149e-04  1.952537e-07
    280    284   2   0.50000     0.0600000    0.0600000   6.128906e-05  1.496315e-08
    280    290   2   0.50000     0.0600000   -0.0600000   2.494471e-04  1.671101e-07
    274    278   2   0.50000    -0.0600000   -0.1800000   1.015252e-03  1.866303e-06
    274    279   2   0.50000    -0.0600000   -0.2300000   1.136815e-03  2.180614e-06
    284    278   2   0.50000     0.0600000   -0.1800000   2.494471e-04  1.671101e-07
    284    279   2   0.50000     0.0600000   -0.2300000   2.793149e-04  1.952537e-07
    290    278   2   0.50000    -0.0600000   -0.1800000   1.015252e-03  1.866303e-06
    290    279   2   0.50000    -0.0600000   -0.2300000   1.136815e-03  2.180614e-06
    274    291   2   0.50000    -0.0600000   -0.1800000   1.015252e-03  1.866303e-06
    274    292   2   0.50000    -0.0600000   -0.0600000   1.015252e-03  1.866303e-06
    274    296   2   0.50000    -0.0600000    0.0600000   2.494471e-04  1.671101e-07
    277    291   2   0.50000     0.0000000   -0.1800000   1.136815e-03  2.180614e-06
    277    292   2   0.50000     0.0000000   -0.0600000   1.136815e-03  2.180614e-06
    277    296   2   0.50000     0.0000000    0.0600000   2.793149e-04  1.952537e-07
    284    291   2   0.50000     0.0600000   -0.1800000   2.494471e-04  1.671101e-07
    284    292   2   0.50000     0.0600000   -0.0600000   2.494471e-04  1.671101e-07
    284    296   2   0.50000     0.0600000    0.0600000   6.128906e-05  1.496315e-08
    276    285   2   0.50000    -0.0600000    0.0600000   2.494471e-04  1.671101e-07
    276    286   2   0.50000    -0.0600000    0.0600000   2.494471e-04  1.671101e-07
    276    287   2   0.50000    -0.0600000    0.0600000   2.494471e-04  1.671101e-07
    279    285   2   0.50000    -0.2300000    0.0600000   2.793149e-04  1.952537e-07
    279    286   2   0.50000    -0.2300000    0.0600000   2.793149e-04  1.952537e-07
    279    287   2   0.50000    -0.2300000    0.0600000   2.793149e-04  1.952537e-07
    276    288   2   0.50000    -0.0600000    0.1150000   2.262583e-04  1.374848e-07
    276    289   2   0.50000    -0.0600000    0.1150000   2.262583e-04  1.374848e-07
    278    288   2   0.50000    -0.1800000    0.1150000   2.262583e-04  1.374848e-07
    278    289   2   0.50000    -0.1800000    0.1150000   2.262583e-04  1.374848e-07
    276    297   2   0.50000    -0.0600000    0.0600000   2.494471e-04  1.671101e-07
    276    298   2   0.50000    -0.0600000    0.0600000   2.494471e-04  1.671101e-07
    276    299   2   0.50000    -0.0600000    0.0600000   2.494471e-04  1.671101e-07
    292    297   2   0.50000    -0.0600000    0.0600000   2.494471e-04  1.671101e-07
    292    298   2   0.50000    -0.0600000    0.0600000   2.494471e-04  1.671101e-07
    292    299   2   0.50000    -0.0600000    0.0600000   2.494471e-04  1.671101e-07
    296    297   2   0.50000     0.0600000    0.0600000   6.128906e-05  1.496315e-08
    296    298   2   0.50000     0.0600000    0.0600000   6.128906e-05  1.496315e-08
    296    299   2   0.50000     0.0600000    0.0600000   6.128906e-05  1.496315e-08
    276    293   2   0.50000    -0.0600000    0.0000000   1.136815e-03  2.180614e-06
    276    300   2   0.50000    -0.0600000    0.0600000   2.494471e-04  1.671101e-07
    276    306   2   0.50000    -0.0600000   -0.0600000   1.015252e-03  1.866303e-06
    291    293   2   0.50000    -0.1800000    0.0000000   1.136815e-03  2.180614e-06
    291    300   2   0.50000    -0.1800000    0.0600000   2.494471e-04  1.671101e-07
    291    306   2   0.50000    -0.1800000   -0.0600000   1.015252e-03  1.866303e-06
    296    293   2   0.50000     0.0600000    0.0000000   2.793149e-04  1.952537e-07
    296    300   2   0.50000     0.0600000    0.0600000   6.128906e-05  1.496315e-08
    296    306   2   0.50000     0.0600000   -0.0600000   2.494471e-04  1.671101e-07
    290    294   2   0.50000    -0.0600000   -0.1800000   1.015252e-03  1.866303e-06
    290    295   2   0.50000    -0.0600000   -0.2300000   1.136815e-03  2.180614e-06
    300    294   2   0.50000     0.0600000   -0.1800000   2.494471e-04  1.671101e-07
    300    295   2   0.50000     0.0600000   -0.2300000   2.793149e-04  1.952537e-07
    306    294   2   0.50000    -0.0600000   -0.1800000   1.015252e-03  1.866303e-06
    306    295   2   0.50000    -0.0600000   -0.2300000   1.136815e-03  2.180614e-06
    290    307   2   0.50000    -0.0600000   -0.1800000   1.015252e-03  1.866303e-06
    290    308   2   0.50000    -0.0600000   -0.1200000   1.015252e-03  1.866303e-06
    290    312   2   0.50000    -0.0600000    0.0600000   2.494471e-04  1.671101e-07
    293    307   2   0.50000     0.0000000   -0.1800000   1.136815e-03  2.180614e-06
    293    308   2   0.50000     0.0000000   -0.1200000   1.136815e-03  2.180614e-06
    293    312   2   0.50000     0.0000000    0.0600000   2.793149e-04  1.952537e-07
    300    307   2   0.50000     0.0600000   -0.1800000   2.494471e-04  1.671101e-07
    300    308   2   0.50000     0.0600000   -0.1200000   2.494471e-04  1.671101e-07
    300    312   2   0.50000     0.0600000    0.0600000   6.128906e-05  1.496315e-08
    292    301   2   0.50000    -0.0600000    0.0600000   2.494471e-04  1.671101e-07
    292    302   2   0.50000    -0.0600000    0.0600000   2.494471e-04  1.671101e-07
    292    303   2   0.50000    -0.0600000    0.0600000   2.494471e-04  1.671101e-07
    295    301   2   0.50000    -0.2300000    0.0600000   2.793149e-04  1.952537e-07
    295    302   2   0.50000    -0.2300000    0.0600000   2.793149e-04  1.952537e-07
    295    303   2   0.50000    -0.2300000    0.0600000   2.793149e-04  1.952537e-07
    292    304   2   0.50000    -0.0600000    0.1150000   2.262583e-04  1.374848e-07
    292    305   2   0.50000    -0.0600000    0.1150000   2.262583e-04  1.374848e-07
    294    304   2   0.50000    -0.1800000    0.1150000   2.262583e-04  1.374848e-07
    294    305   2   0.50000    -0.1800000    0.1150000   2.262583e-04  1.374848e-07
    292    313   2   0.50000    -0.0600000    0.0600000   2.494471e-04  1.671101e-07
    292    314   2   0.50000    -0.0600000    0.0600000   2.494471e-04  1.671101e-07
    292    315   2   0.50000    -0.0600000    0.0600000   2.494471e-04  1.671101e-07
    308    313   2   0.50000    -0.1200000    0.0600000   2.494471e-04  1.671101e-07
    308    314   2   0.50000    -0.1200000    0.0600000   2.494471e-04  1.671101e-07
    308    315   2   0.50000    -0.1200000    0.0600000   2.494471e-04  1.671101e-07
    312    313   2   0.50000     0.0600000    0.0600000   6.128906e-05  1.496315e-08
    312    314   2   0.50000     0.0600000    0.0600000   6.128906e-05  1.496315e-08
    312    315   2   0.50000     0.0600000    0.0600000   6.128906e-05  1.496315e-08
    292    309   2   0.50000    -0.0600000    0.0000000   1.136815e-03  2.180614e-06
    292    316   2   0.50000    -0.0600000    0.0600000   2.494471e-04  1.671101e-07
    292    322   2   0.50000    -0.0600000    0.0600000   2.494471e-04  1.671101e-07
    307    309   2   0.50000    -0.1800000    0.0000000   1.136815e-03  2.180614e-06
    307    316   2   0.50000    -0.1800000    0.0600000   2.494471e-04  1.671101e-07
    307    322   2   0.50000    -0.1800000    0.0600000   2.494471e-04  1.671101e-07
    312    309   2   0.50000     0.0600000    0.0000000   2.793149e-04  1.952537e-07
    312    316   2   0.50000     0.0600000    0.0600000   6.128906e-05  1.496315e-08
    312    322   2   0.50000     0.0600000    0.0600000   6.128906e-05  1.496315e-08
    306    310   2   0.50000    -0.0600000   -0.1800000   1.015252e-03  1.866303e-06
    306    311   2   0.50000    -0.0600000   -0.2300000   1.136815e-03  2.180614e-06
    316    310   2   0.50000     0.0600000   -0.1800000   2.494471e-04  1.671101e-07
    316    311   2   0.50000     0.0600000   -0.2300000   2.793149e-04  1.952537e-07
    322    310   2   0.50000     0.0600000   -0.1800000   2.494471e-04  1.671101e-07
    322    311   2   0.50000     0.0600000   -0.2300000   2.793149e-04  1.952537e-07
    308    317   2   0.50000    -0.1200000    0.0600000   2.494471e-04  1.671101e-07
    308    318   2   0.50000    -0.1200000    0.0600000   2.494471e-04  1.671101e-07
    308    319   2   0.50000    -0.1200000    0.0600000   2.494471e-04  1.671101e-07
    311    317   2   0.50000    -0.2300000    0.0600000   2.793149e-04  1.952537e-07
    311    318   2   0.50000    -0.2300000    0.0600000   2.793149e-04  1.952537e-07
    311    319   2   0.50000    -0.2300000    0.0600000   2.793149e-04  1.952537e-07
    308    320   2   0.50000    -0.1200000    0.1150000   2.262583e-04  1.374848e-07
    308    321   2   0.50000    -0.1200000    0.1150000   2.262583e-04  1.374848e-07
    310    320   2   0.50000    -0.1800000    0.1150000   2.262583e-04  1.374848e-07
    310    321   2   0.50000    -0.1800000    0.1150000   2.262583e-04  1.374848e-07

[ angles ]
; ai  aj  ak
      2      1      3   1    112.7000    488.2728
      2      1      7   1    110.7000    313.8000
      2      1     17   1    110.7000    313.8000
      3      1      7   1    110.7000    313.8000
      3      1     17   1    110.7000    313.8000
      7      1     17   1    107.8000    276.1440
      1      2      8   1    110.7000    313.8000
      1      2      9   1    110.7000    313.8000
      1      2     10   1    110.7000    313.8000
      8      2      9   1    107.8000    276.1440
      8      2     10   1    107.8000    276.1440
      9      2     10   1    107.8000    276.1440
      1      3      4   1    112.0270    585.7600
      1      3     11   1    110.7000    313.8000
      1      3     18   1    112.7000    488.2728
      4      3     11   1    109.5000    292.8800
      4      3     18   1    112.0270    585.7600
     11      3     18   1    110.7000    313.8000
      3      4      5   1    117.9270    543.9200
      3      4      6   1    124.0000    585.7600
      5      4      6   1    124.0000    585.7600
      4      5     12   1    109.5000    292.8800
      4      5     13   1    109.5000    292.8800
      4      5     14   1    109.5000    292.8800
     12      5     13   1    107.8000    276.1440
     12      5     14   1    107.8000    276.1440
     13      5     14   1    107.8000    276.1440
      4      6     15   1    120.0000    292.8800
      4      6     16   1    120.0000    292.8800
     15      6     16   1    117.0000    292.8800
      3     18     19   1    112.7000    488.2728
      3     18     20   1    112.7000    488.2728
      3     18     24   1    110.7000    313.8000
     19     18     20   1    112.7000    488.2728
     19     18     24   1    110.7000    313.8000
     20     18     24   1    110.7000    313.8000
     18     19     25   1    110.7000    313.8000
     18     19     26   1    110.7000    313.8000
     18     19     27   1    110.7000    313.8000
     25     19     26   1    107.8000    276.1440
     25     19     27   1    107.8000    276.1440
     26     19     27   1    107.8000    276.1440
     18     20     21   1    112.0270    585.7600
     18     20     28   1    110.7000    313.8000
     18     20     34   1    112.7000    488.2728
     21     20     28   1    109.5000    292.8800
     21     20     34   1    112.0270    585.7600
     28     20     34   1    110.7000    313.8000
     20     21     22   1    117.9270    543.9200
     20     21     23   1    124.0000    585.7600
     22     21     23   1    124.0000    585.7600
     21     22     29   1    109.5000    292.8800
     21     22     30   1    109.5000    292.8800
     21     22     31   1    109.5000    292.8800
     29     22     30   1    107.8000    276.1440
     29     22     31   1    107.8000    276.1440
     30     22     31   1    107.8000    276.1440
     21     23     32   1    120.0000    292.8800
     21     23     33   1    120.0000    292.8800
     32     23     33   1    117.0000    292.8800
     20     34     35   1    112.7000    488.2728
     20     34     36   1    112.7000    488.2728
     20     34     40   1    110.7000    313.8000
     35     34     36   1    112.7000    488.2728
     35     34     40   1    110.7000    313.8000
     36     34     40   1    110.7000    313.8000
     34     35     41   1    110.7000    313.8000
     34     35     42   1    110.7000    313.8000
     34     35     43   1    110.7000    313.8000
     41     35     42   1    107.8000    276.1440
     41     35     43   1    107.8000    276.1440
     42     35     43   1    107.8000    276.1440
     34     36     37   1    112.0270    585.7600
     34     36     44   1    110.7000    313.8000
     34     36     50   1    112.7000    488.2728
     37     36     44   1    109.5000    292.8800
     37     36     50   1    112.0270    585.7600
     44     36     50   1    110.7000    313.8000
     36     37     38   1    117.9270    543.9200
     36     37     39   1    124.0000    585.7600
     38     37     39   1    124.0000    585.7600
     37     38     45   1    109.5000    292.8800
     37     38     46   1    109.5000    292.8800
     37     38     47   1    109.5000    292.8800
     45     38     46   1    107.8000    276.1440
     45     38     47   1    107.8000    276.1440
     46     38     47   1    107.8000    276.1440
     37     39     48   1    120.0000    292.8800
     37     39     49   1    120.0000    292.8800
     48     39     49   1    117.0000    292.8800
     36     50     51   1    112.7000    488.2728
     36     50     52   1    112.7000    488.2728
     36     50     56   1    110.7000    313.8000
     51     50     52   1    112.7000    488.2728
     51     50     56   1    110.7000    313.8000
     52     50     56   1    110.7000    313.8000
     50     51     57   1    110.7000    313.8000
     50     51     58   1    110.7000    313.8000
     50     51     59   1    110.7000    313.8000
     57     51     58   1    107.8000    276.1440
     57     51     59   1    107.8000    276.1440
     58     51     59   1    107.8000    276.1440
     50     52     53   1    112.0270    585.7600
     50     52     60   1    110.7000    313.8000
     50     52     66   1    112.7000    488.2728
     53     52     60   1    109.5000    292.8800
     53     52     66   1    112.0270    585.7600
     60     52     66   1    110.7000    313.8000
     52     53     54   1    117.9270    543.9200
     52     53     55   1    124.0000    585.7600
     54     53     55   1    124.0000    585.7600
     53     54     61   1    109.5000    292.8800
     53     54     62   1    109.5000    292.8800
     53     54     63   1    109.5000    292.8800
     61     54     62   1    107.8000    276.1440
     61     54     63   1    107.8000    276.1440
     62     54     63   1    107.8000    276.1440
     53     55     64   1    120.0000    292.8800
     53     55     65   1    120.0000    292.8800
     64     55     65   1    117.0000    292.8800
     52     66     67   1    112.7000    488.2728
     52     66     68   1    112.7000    488.2728
     52     66     72   1    110.7000    313.8000
     67     66     68   1    112.7000    488.2728
     67     66     72   1    110.7000    313.8000
     68     66     72   1    110.7000    313.8000
     66     67     73   1    110.7000    313.8000
     66     67     74   1    110.7000    313.8000
     66     67     75   1    110.7000    313.8000
     73     67     74   1    107.8000    276.1440
     73     67     75   1    107.8000    276.1440
     74     67     75   1    107.8000    276.1440
     66     68     69   1    112.0270    585.7600
     66     68     76   1    110.7000    313.8000
     66     68     82   1    112.7000    488.2728
     69     68     76   1    109.5000    292.8800
     69     68     82   1    112.0270    585.7600
     76     68     82   1    110.7000    313.8000
     68     69     70   1    117.9270    543.9200
     68     69     71   1    124.0000    585.7600
     70     69     71   1    124.0000    585.7600
     69     70     77   1    109.5000    292.8800
     69     70     78   1    109.5000    292.8800
     69     70     79   1    109.5000    292.8800
     77     70     78   1    107.8000    276.1440
     77     70     79   1    107.8000    276.1440
     78     70     79   1    107.8000    276.1440
     69     71     80   1    120.0000    292.8800
     69     71     81   1    120.0000    292.8800
     80     71     81   1    117.0000    292.8800
     68     82     83   1    112.7000    488.2728
     68     82     84   1    112.7000    488.2728
     68     82     88   1    110.7000    313.8000
     83     82     84   1    112.7000    488.2728
     83     82     88   1    110.7000    313.8000
     84     82     88   1    110.7000    313.8000
     82     83     89   1    110.7000    313.8000
     82     83     90   1    110.7000    313.8000
     82     83     91   1    110.7000    313.8000
     89     83     90   1    107.8000    276.1440
     89     83     91   1    107.8000    276.1440
     90     83     91   1    107.8000    276.1440
     82     84     85   1    112.0270    585.7600
     82     84     92   1    110.7000    313.8000
     82     84     98   1    112.7000    488.2728
     85     84     92   1    109.5000    292.8800
     85     84     98   1    112.0270    585.7600
     92     84     98   1    110.7000    313.8000
     84     85     86   1    117.9270    543.9200
     84     85     87   1    124.0000    585.7600
     86     85     87   1    124.0000    585.7600
     85     86     93   1    109.5000    292.8800
     85     86     94   1    109.5000    292.8800
     85     86     95   1    109.5000    292.8800
     93     86     94   1    107.8000    276.1440
     93     86     95   1    107.8000    276.1440
     94     86     95   1    107.8000    276.1440
     85     87     96   1    120.0000    292.8800
     85     87     97   1    120.0000    292.8800
     96     87     97   1    117.0000    292.8800
     84     98     99   1    112.7000    488.2728
     84     98    100   1    112.7000    488.2728
     84     98    104   1    110.7000    313.8000
     99     98    100   1    112.7000    488.2728
     99     98    104   1    110.7000    313.8000
    100     98    104   1    110.7000    313.8000
     98     99    105   1    110.7000    313.8000
     98     99    106   1    110.7000    313.8000
     98     99    107   1    110.7000    313.8000
    105     99    106   1    107.8000    276.1440
    105     99    107   1    107.8000    276.1440
    106     99    107   1    107.8000    276.1440
     98    100    101   1    112.0270    585.7600
     98    100    108   1    110.7000    313.8000
     98    100    114   1    112.7000    488.2728
    101    100    108   1    109.5000    292.8800
    101    100    114   1    112.0270    585.7600
    108    100    114   1    110.7000    313.8000
    100    101    102   1    117.9270    543.9200
    100    101    103   1    124.0000    585.7600
    102    101    103   1    124.0000    585.7600
    101    102    109   1    109.5000    292.8800
    101    102    110   1    109.5000    292.8800
    101    102    111   1    109.5000    292.8800
    109    102    110   1    107.8000    276.1440
    109    102    111   1    107.8000    276.1440
    110    102    111   1    107.8000    276.1440
    101    103    112   1    120.0000    292.8800
    101    103    113   1    120.0000    292.8800
    112    103    113   1    117.0000    292.8800
    100    114    115   1    112.7000    488.2728
    100    114    116   1    112.7000    488.2728
    100    114    120   1    110.7000    313.8000
    115    114    116   1    112.7000    488.2728
    115    114    120   1    110.7000    313.8000
    116    114    120   1    110.7000    313.8000
    114    115    121   1    110.7000    313.8000
    114    115    122   1    110.7000    313.8000
    114    115    123   1    110.7000    313.8000
    121    115    122   1    107.8000    276.1440
    121    115    123   1    107.8000    276.1440
    122    115    123   1    107.8000    276.1440
    114    116    117   1    112.0270    585.7600
    114    116    124   1    110.7000    313.8000
    114    116    130   1    112.7000    488.2728
    117    116    124   1    109.5000    292.8800
    117    116    130   1    112.0270    585.7600
    124    116    130   1    110.7000    313.8000
    116    117    118   1    117.9270    543.9200
    116    117    119   1    124.0000    585.7600
    118    117    119   1    124.0000    585.7600
    117    118    125   1    109.5000    292.8800
    117    118    126   1    109.5000    292.8800
    117    118    127   1    109.5000    292.8800
    125    118    126   1    107.8000    276.1440
    125    118    127   1    107.8000    276.1440
    126    118    127   1    107.8000    276.1440
    117    119    128   1    120.0000    292.8800
    117    119    129   1    120.0000    292.8800
    128    119    129   1    117.0000    292.8800
    116    130    131   1    112.7000    488.2728
    116    130    132   1    112.7000    488.2728
    116    130    136   1    110.7000    313.8000
    131    130    132   1    112.7000    488.2728
    131    130    136   1    110.7000    313.8000
    132    130    136   1    110.7000    313.8000
    130    131    137   1    110.7000    313.8000
    130    131    138   1    110.7000    313.8000
    130    131    139   1    110.7000    313.8000
    137    131    138   1    107.8000    276.1440
    137    131    139   1    107.8000    276.1440
    138    131    139   1    107.8000    276.1440
    130    132    133   1    112.0270    585.7600
    130    132    140   1    110.7000    313.8000
    130    132    146   1    112.7000    488.2728
    133    132    140   1    109.5000    292.8800
    133    132    146   1    112.0270    585.7600
    140    132    146   1    110.7000    313.8000
    132    133    134   1    117.9270    543.9200
    132    133    135   1    124.0000    585.7600
    134    133    135   1    124.0000    585.7600
    133    134    141   1    109.5000    292.8800
    133    134    142   1    109.5000    292.8800
    133    134    143   1    109.5000    292.8800
    141    134    142   1    107.8000    276.1440
    141    134    143   1    107.8000    276.1440
    142    134    143   1    107.8000    276.1440
    133    135    144   1    120.0000    292.8800
    133    135    145   1    120.0000    292.8800
    144    135    145   1    117.0000    292.8800
    132    146    147   1    112.7000    488.2728
    132    146    148   1    112.7000    488.2728
    132    146    152   1    110.7000    313.8000
    147    146    148   1    112.7000    488.2728
    147    146    152   1    110.7000    313.8000
    148    146    152   1    110.7000    313.8000
    146    147    153   1    110.7000    313.8000
    146    147    154   1    110.7000    313.8000
    146    147    155   1    110.7000    313.8000
    153    147    154   1    107.8000    276.1440
    153    147    155   1    107.8000    276.1440
    154    147    155   1    107.8000    276.1440
    146    148    149   1    112.0270    585.7600
    146    148    156   1    110.7000    313.8000
    146    148    162   1    112.7000    488.2728
    149    148    156   1    109.5000    292.8800
    149    148    162   1    112.0270    585.7600
    156    148    162   1    110.7000    313.8000
    148    149    150   1    117.9270    543.9200
    148    149    151   1    124.0000    585.7600
    150    149    151   1    124.0000    585.7600
    149    150    157   1    109.5000    292.8800
    149    150    158   1    109.5000    292.8800
    149    150    159   1    109.5000    292.8800
    157    150    158   1    107.8000    276.1440
    157    150    159   1    107.8000    276.1440
    158    150    159   1    107.8000    276.1440
    149    151    160   1    120.0000    292.8800
    149    151    161   1    120.0000    292.8800
    160    151    161   1    117.0000    292.8800
    148    162    163   1    112.7000    488.2728
    148    162    164   1    112.7000    488.2728
    148    162    168   1    110.7000    313.8000
    163    162    164   1    112.7000    488.2728
    163    162    168   1    110.7000    313.8000
    164    162    168   1    110.7000    313.8000
    162    163    169   1    110.7000    313.8000
    162    163    170   1    110.7000    313.8000
    162    163    171   1    110.7000    313.8000
    169    163    170   1    107.8000    276.1440
    169    163    171   1    107.8000    276.1440
    170    163    171   1    107.8000    276.1440
    162    164    165   1    112.0270    585.7600
    162    164    172   1    110.7000    313.8000
    162    164    178   1    112.7000    488.2728
    165    164    172   1    109.5000    292.8800
    165    164    178   1    112.0270    585.7600
    172    164    178   1    110.7000    313.8000
    164    165    166   1    117.9270    543.9200
    164    165    167   1    124.0000    585.7600
    166    165    167   1    124.0000    585.7600
    165    166    173   1    109.5000    292.8800
    165    166    174   1    109.5000    292.8800
    165    166    175   1    109.5000    292.8800
    173    166    174   1    107.8000    276.1440
    173    166    175   1    107.8000    276.1440
    174    166    175   1    107.8000    276.1440
    165    167    176   1    120.0000    292.8800
    165    167    177   1    120.0000    292.8800
    176    167    177   1    117.0000    292.8800
    164    178    179   1    112.7000    488.2728
    164    178    180   1    112.7000    488.2728
    164    178    184   1    110.7000    313.8000
    179    178    180   1    112.7000    488.2728
    179    178    184   1    110.7000    313.8000
    180    178    184   1    110.7000    313.8000
    178    179    185   1    110.7000    313.8000
    178    179    186   1    110.7000    313.8000
    178    179    187   1    110.7000    313.8000
    185    179    186   1    107.8000    276.1440
    185    179    187   1    107.8000    276.1440
    186    179    187   1    107.8000    276.1440
    178    180    181   1    112.0270    585.7600
    178    180    188   1    110.7000    313.8000
    178    180    194   1    112.7000    488.2728
    181    180    188   1    109.5000    292.8800
    181    180    194   1    112.0270    585.7600
    188    180    194   1    110.7000    313.8000
    180    181    182   1    117.9270    543.9200
    180    181    183   1    124.0000    585.7600
    182    181    183   1    124.0000    585.7600
    181    182    189   1    109.5000    292.8800
    181    182    190   1    109.5000    292.8800
    181    182    191   1    109.5000    292.8800
    189    182    190   1    107.8000    276.1440
    189    182    191   1    107.8000    276.1440
    190    182    191   1    107.8000    276.1440
    181    183    192   1    120.0000    292.8800
    181    183    193   1    120.0000    292.8800
    192    183    193   1    117.0000    292.8800
    180    194    195   1    112.7000    488.2728
    180    194    196   1    112.7000    488.2728
    180    194    200   1    110.7000    313.8000
    195    194    196   1    112.7000    488.2728
    195    194    200   1    110.7000    313.8000
    196    194    200   1    110.7000    313.8000
    194    195    201   1    110.7000    313.8000
    194    195    202   1    110.7000    313.8000
    194    195    203   1    110.7000    313.8000
    201    195    202   1    107.8000    276.1440
    201    195    203   1    107.8000    276.1440
    202    195    203   1    107.8000    276.1440
    194    196    197   1    112.0270    585.7600
    194    196    204   1    110.7000    313.8000
    194    196    210   1    112.7000    488.2728
    197    196    204   1    109.5000    292.8800
    197    196    210   1    112.0270    585.7600
    204    196    210   1    110.7000    313.8000
    196    197    198   1    117.9270    543.9200
    196    197    199   1    124.0000    585.7600
    198    197    199   1    124.0000    585.7600
    197    198    205   1    109.5000    292.8800
    197    198    206   1    109.5000    292.8800
    197    198    207   1    109.5000    292.8800
    205    198    206   1    107.8000    276.1440
    205    198    207   1    107.8000    276.1440
    206    198    207   1    107.8000    276.1440
    197    199    208   1    120.0000    292.8800
    197    199    209   1    120.0000    292.8800
    208    199    209   1    117.0000    292.8800
    196    210    211   1    112.7000    488.2728
    196    210    212   1    112.7000    488.2728
    196    210    216   1    110.7000    313.8000
    211    210    212   1    112.7000    488.2728
    211    210    216   1    110.7000    313.8000
    212    210    216   1    110.7000    313.8000
    210    211    217   1    110.7000    313.8000
    210    211    218   1    110.7000    313.8000
    210    211    219   1    110.7000    313.8000
    217    211    218   1    107.8000    276.1440
    217    211    219   1    107.8000    276.1440
    218    211    219   1    107.8000    276.1440
    210    212    213   1    112.0270    585.7600
    210    212    220   1    110.7000    313.8000
    210    212    226   1    112.7000    488.2728
    213    212    220   1    109.5000    292.8800
    213    212    226   1    112.0270    585.7600
    220    212    226   1    110.7000    313.8000
    212    213    214   1    117.9270    543.9200
    212    213    215   1    124.0000    585.7600
    214    213    215   1    124.0000    585.7600
    213    214    221   1    109.5000    292.8800
    213    214    222   1    109.5000    292.8800
    213    214    223   1    109.5000    292.8800
    221    214    222   1    107.8000    276.1440
    221    214    223   1    107.8000    276.1440
    222    214    223   1    107.8000    276.1440
    213    215    224   1    120.0000    292.8800
    213    215    225   1    120.0000    292.8800
    224    215    225   1    117.0000    292.8800
    212    226    227   1    112.7000    488.2728
    212    226    228   1    112.7000    488.2728
    212    226    232   1    110.7000    313.8000
    227    226    228   1    112.7000    488.2728
    227    226    232   1    110.7000    313.8000
    228    226    232   1    110.7000    313.8000
    226    227    233   1    110.7000    313.8000
    226    227    234   1    110.7000    313.8000
    226    227    235   1    110.7000    313.8000
    233    227    234   1    107.8000    276.1440
    233    227    235   1    107.8000    276.1440
    234    227    235   1    107.8000    276.1440
    226    228    229   1    112.0270    585.7600
    226    228    236   1    110.7000    313.8000
    226    228    242   1    112.7000    488.2728
    229    228    236   1    109.5000    292.8800
    229    228    242   1    112.0270    585.7600
    236    228    242   1    110.7000    313.8000
    228    229    230   1    117.9270    543.9200
    228    229    231   1    124.0000    585.7600
    230    229    231   1    124.0000    585.7600
    229    230    237   1    109.5000    292.8800
    229    230    238   1    109.5000    292.8800
    229    230    239   1    109.5000    292.8800
    237    230    238   1    107.8000    276.1440
    237    230    239   1    107.8000    276.1440
    238    230    239   1    107.8000    276.1440
    229    231    240   1    120.0000    292.8800
    229    231    241   1    120.0000    292.8800
    240    231    241   1    117.0000    292.8800
    228    242    243   1    112.7000    488.2728
    228    242    244   1    112.7000    488.2728
    228    242    248   1    110.7000    313.8000
    243    242    244   1    112.7000    488.2728
    243    242    248   1    110.7000    313.8000
    244    242    248   1    110.7000    313.8000
    242    243    249   1    110.7000    313.8000
    242    243    250   1    110.7000    313.8000
    242    243    251   1    110.7000    313.8000
    249    243    250   1    107.8000    276.1440
    249    243    251   1    107.8000    276.1440
    250    243    251   1    107.8000    276.1440
    242    244    245   1    112.0270    585.7600
    242    244    252   1    110.7000    313.8000
    242    244    258   1    112.7000    488.2728
    245    244    252   1    109.5000    292.8800
    245    244    258   1    112.0270    585.7600
    252    244    258   1    110.7000    313.8000
    244    245    246   1    117.9270    543.9200
    244    245    247   1    124.0000    585.7600
    246    245    247   1    124.0000    585.7600
    245    246    253   1    109.5000    292.8800
    245    246    254   1    109.5000    292.8800
    245    246    255   1    109.5000    292.8800
    253    246    254   1    107.8000    276.1440
    253    246    255   1    107.8000    276.1440
    254    246    255   1    107.8000    276.1440
    245    247    256   1    120.0000    292.8800
    245    247    257   1    120.0000    292.8800
    256    247    257   1    117.0000    292.8800
    244    258    259   1    112.7000    488.2728
    244    258    260   1    112.7000    488.2728
    244    258    264   1    110.7000    313.8000
    259    258    260   1    112.7000    488.2728
    259    258    264   1    110.7000    313.8000
    260    258    264   1    110.7000    313.8000
    258    259    265   1    110.7000    313.8000
    258    259    266   1    110.7000    313.8000
    258    259    267   1    110.7000    313.8000
    265    259    266   1    107.8000    276.1440
    265    259    267   1    107.8000    276.1440
    266    259    267   1    107.8000    276.1440
    258    260    261   1    112.0270    585.7600
    258    260    268   1    110.7000    313.8000
    258    260    274   1    112.7000    488.2728
    261    260    268   1    109.5000    292.8800
    261    260    274   1    112.0270    585.7600
    268    260    274   1    110.7000    313.8000
    260    261    262   1    117.9270    543.9200
    260    261    263   1    124.0000    585.7600
    262    261    263   1    124.0000    585.7600
    261    262    269   1    109.5000    292.8800
    261    262    270   1    109.5000    292.8800
    261    262    271   1    109.5000    292.8800
    269    262    270   1    107.8000    276.1440
    269    262    271   1    107.8000    276.1440
    270    262    271   1    107.8000    276.1440
    261    263    272   1    120.0000    292.8800
    261    263    273   1    120.0000    292.8800
    272    263    273   1    117.0000    292.8800
    260    274    275   1    112.7000    488.2728
    260    274    276   1    112.7000    488.2728
    260    274    280   1    110.7000    313.8000
    275    274    276   1    112.7000    488.2728
    275    274    280   1    110.7000    313.8000
    276    274    280   1    110.7000    313.8000
    274    275    281   1    110.7000    313.8000
    274    275    282   1    110.7000    313.8000
    274    275    283   1    110.7000    313.8000
    281    275    282   1    107.8000    276.1440
    281    275    283   1    107.8000    276.1440
    282    275    283   1    107.8000    276.1440
    274    276    277   1    112.0270    585.7600
    274    276    284   1    110.7000    313.8000
    274    276    290   1    112.7000    488.2728
    277    276    284   1    109.5000    292.8800
    277    276    290   1    112.0270    585.7600
    284    276    290   1    110.7000    313.8000
    276    277    278   1    117.9270    543.9200
    276    277    279   1    124.0000    585.7600
    278    277    279   1    124.0000    585.7600
    277    278    285   1    109.5000    292.8800
    277    278    286   1    109.5000    292.8800
    277    278    287   1    109.5000    292.8800
    285    278    286   1    107.8000    276.1440
    285    278    287   1    107.8000    276.1440
    286    278    287   1    107.8000    276.1440
    277    279    288   1    120.0000    292.8800
    277    279    289   1    120.0000    292.8800
    288    279    289   1    117.0000    292.8800
    276    290    291   1    112.7000    488.2728
    276    290    292   1    112.7000    488.2728
    276    290    296   1    110.7000    313.8000
    291    290    292   1    112.7000    488.2728
    291    290    296   1    110.7000    313.8000
    292    290    296   1    110.7000    313.8000
    290    291    297   1    110.7000    313.8000
    290    291    298   1    110.7000    313.8000
    290    291    299   1    110.7000    313.8000
    297    291    298   1    107.8000    276.1440
    297    291    299   1    107.8000    276.1440
    298    291    299   1    107.8000    276.1440
    290    292    293   1    112.0270    585.7600
    290    292    300   1    110.7000    313.8000
    290    292    306   1    112.7000    488.2728
    293    292    300   1    109.5000    292.8800
    293    292    306   1    112.0270    585.7600
    300    292    306   1    110.7000    313.8000
    292    293    294   1    117.9270    543.9200
    292    293    295   1    124.0000    585.7600
    294    293    295   1    124.0000    585.7600
    293    294    301   1    109.5000    292.8800
    293    294    302   1    109.5000    292.8800
    293    294    303   1    109.5000    292.8800
    301    294    302   1    107.8000    276.1440
    301    294    303   1    107.8000    276.1440
    302    294    303   1    107.8000    276.1440
    293    295    304   1    120.0000    292.8800
    293    295    305   1    120.0000    292.8800
    304    295    305   1    117.0000    292.8800
    292    306    307   1    112.7000    488.2728
    292    306    308   1    112.7000    488.2728
    292    306    312   1    110.7000    313.8000
    307    306    308   1    112.7000    488.2728
    307    306    312   1    110.7000    313.8000
    308    306    312   1    110.7000    313.8000
    306    307    313   1    110.7000    313.8000
    306    307    314   1    110.7000    313.8000
    306    307    315   1    110.7000    313.8000
    313    307    314   1    107.8000    276.1440
    313    307    315   1    107.8000    276.1440
    314    307    315   1    107.8000    276.1440
    306    308    309   1    112.0270    585.7600
    306    308    316   1    110.7000    313.8000
    306    308    322   1    110.7000    313.8000
    309    308    316   1    109.5000    292.8800
    309    308    322   1    109.5000    292.8800
    316    308    322   1    107.8000    276.1440
    308    309    310   1    117.9270    543.9200
    308    309    311   1    124.0000    585.7600
    310    309    311   1    124.0000    585.7600
    309    310    317   1    109.5000    292.8800
    309    310    318   1    109.5000    292.8800
    309    310    319   1    109.5000    292.8800
    317    310    318   1    107.8000    276.1440
    317    310    319   1    107.8000    276.1440
    318    310    319   1    107.8000    276.1440
    309    311    320   1    120.0000    292.8800
    309    311    321   1    120.0000    292.8800
    320    311    321   1    117.0000    292.8800

[ dihedrals ]
; Proper dihedrals
      3      1      2      8   5     0.00000     0.00000     1.25520  0.0
      3      1      2      9   5     0.00000     0.00000     1.25520  0.0
      3      1      2     10   5     0.00000     0.00000     1.25520  0.0
      7      1      2      8   5     0.00000     0.00000     1.25520  0.0
      7      1      2      9   5     0.00000     0.00000     1.25520  0.0
      7      1      2     10   5     0.00000     0.00000     1.25520  0.0
     17      1      2      8   5     0.00000     0.00000     1.25520  0.0
     17      1      2      9   5     0.00000     0.00000     1.25520  0.0
     17      1      2     10   5     0.00000     0.00000     1.25520  0.0
      2      1      3      4   5     2.87859     0.79078     0.92885  0.0
      2      1      3     11   5     0.00000     0.00000     1.25520  0.0
      2      1      3     18   5     4.74884    -0.63178     1.67360  0.0
      7      1      3      4   5     0.00000     0.00000     1.25520  0.0
      7      1      3     11   5     0.00000     0.00000     1.25520  0.0
      7      1      3     18   5     0.00000     0.00000     1.25520  0.0
     17      1      3      4   5     0.00000     0.00000     1.25520  0.0
     17      1      3     11   5     0.00000     0.00000     1.25520  0.0
     17      1      3     18   5     0.00000     0.00000     1.25520  0.0
      1      3      4      5   5     3.92041     0.71546     0.82006  0.0
      1      3      4      6   5     0.82425     1.27612    -4.23839  0.0
     11      3      4      5   5     0.00000     0.00000     2.91206  0.0
     11      3      4      6   5     0.00000     0.00000     0.00000  0.0
     18      3      4      5   5     3.92041     0.71546     0.82006  0.0
     18      3      4      6   5     0.82425     1.27612    -4.23839  0.0
      1      3     18     19   5     4.74884    -0.63178     1.67360  0.0
      1      3     18     20   5     4.74884    -0.63178     1.67360  0.0
      1      3     18     24   5     0.00000     0.00000     1.25520  0.0
      4      3     18     19   5     2.87859     0.79078     0.92885  0.0
      4      3     18     20   5     2.87859     0.79078     0.92885  0.0
      4      3     18     24   5     0.00000     0.00000     1.25520  0.0
     11      3     18     19   5     0.00000     0.00000     1.25520  0.0
     11      3     18     20   5     0.00000     0.00000     1.25520  0.0
     11      3     18     24   5     0.00000     0.00000     1.25520  0.0
      3      4      5     12   5     0.00000     0.00000     2.91206  0.0
      3      4      5     13   5     0.00000     0.00000     2.91206  0.0
      3      4      5     14   5     0.00000     0.00000     2.91206  0.0
      6      4      5     12   5     0.00000     0.00000     0.00000  0.0
      6      4      5     13   5     0.00000     0.00000     0.00000  0.0
      6      4      5     14   5     0.00000     0.00000     0.00000  0.0
      3      4      6     15   5     0.00000    58.57600     0.00000  0.0
      3      4      6     16   5     0.00000    58.57600     0.00000  0.0
      5      4      6     15   5     0.00000    58.57600     0.00000  0.0
      5      4      6     16   5     0.00000    58.57600     0.00000  0.0
      3     18     19     25   5     0.00000     0.00000     1.25520  0.0
      3     18     19     26   5     0.00000     0.00000     1.25520  0.0
      3     18     19     27   5     0.00000     0.00000     1.25520  0.0
     20     18     19     25   5     0.00000     0.00000     1.25520  0.0
     20     18     19     26   5     0.00000     0.00000     1.25520  0.0
     20     18     19     27   5     0.00000     0.00000     1.25520  0.0
     24     18     19     25   5     0.00000     0.00000     1.25520  0.0
     24     18     19     26   5     0.00000     0.00000     1.25520  0.0
     24     18     19     27   5     0.00000     0.00000     1.25520  0.0
      3     18     20     21   5     2.87859     0.79078     0.92885  0.0
      3     18     20     28   5     0.00000     0.00000     1.25520  0.0
      3     18     20     34   5     4.74884    -0.63178     1.67360  0.0
     19     18     20     21   5     2.87859     0.79078     0.92885  0.0
     19     18     20     28   5     0.00000     0.00000     1.25520  0.0
     19     18     20     34   5     4.74884    -0.63178     1.67360  0.0
     24     18     20     21   5     0.00000     0.00000     1.25520  0.0
     24     18     20     28   5     0.00000     0.00000     1.25520  0.0
     24     18     20     34   5     0.00000     0.00000     1.25520  0.0
     18     20     21     22   5     3.92041     0.71546     0.82006  0.0
     18     20     21     23   5     0.82425     1.27612    -4.23839  0.0
     28     20     21     22   5     0.00000     0.00000     2.91206  0.0
     28     20     21     23   5     0.00000     0.00000     0.00000  0.0
     34     20     21     22   5     3.92041     0.71546     0.82006  0.0
     34     20     21     23   5     0.82425     1.27612    -4.23839  0.0
     18     20     34     35   5     4.74884    -0.63178     1.67360  0.0
     18     20     34     36   5     4.74884    -0.63178     1.67360  0.0
     18     20     34     40   5     0.00000     0.00000     1.25520  0.0
     21     20     34     35   5     2.87859     0.79078     0.92885  0.0
     21     20     34     36   5     2.87859     0.79078     0.92885  0.0
     21     20     34     40   5     0.00000     0.00000     1.25520  0.0
     28     20     34     35   5     0.00000     0.00000     1.25520  0.0
     28     20     34     36   5     0.00000     0.00000     1.25520  0.0
     28     20     34     40   5     0.00000     0.00000     1.25520  0.0
     20     21     22     29   5     0.00000     0.00000     2.91206  0.0
     20     21     22     30   5     0.00000     0.00000     2.91206  0.0
     20     21     22     31   5     0.00000     0.00000     2.91206  0.0
     23     21     22     29   5     0.00000     0.00000     0.00000  0.0
     23     21     22     30   5     0.00000     0.00000     0.00000  0.0
     23     21     22     31   5     0.00000     0.00000     0.00000  0.0
     20     21     23     32   5     0.00000    58.57600     0.00000  0.0
     20     21     23     33   5     0.00000    58.57600     0.00000  0.0
     22     21     23     32   5     0.00000    58.57600     0.00000  0.0
     22     21     23     33   5     0.00000    58.57600     0.00000  0.0
     20     34     35     41   5     0.00000     0.00000     1.25520  0.0
     20     34     35     42   5     0.00000     0.00000     1.25520  0.0
     20     34     35     43   5     0.00000     0.00000     1.25520  0.0
     36     34     35     41   5     0.00000     0.00000     1.25520  0.0
     36     34     35     42   5     0.00000     0.00000     1.25520  0.0
     36     34     35     43   5     0.00000     0.00000     1.25520  0.0
     40     34     35     41   5     0.00000     0.00000     1.25520  0.0
     40     34     35     42   5     0.00000     0.00000     1.25520  0.0
     40     34     35     43   5     0.00000     0.00000     1.25520  0.0
     20     34     36     37   5     2.87859     0.79078     0.92885  0.0
     20     34     36     44   5     0.00000     0.00000     1.25520  0.0
     20     34     36     50   5     4.74884    -0.63178     1.67360  0.0
     35     34     36     37   5     2.87859     0.79078     0.92885  0.0
     35     34     36     44   5     0.00000     0.00000     1.25520  0.0
     35     34     36     50   5     4.74884    -0.63178     1.67360  0.0
     40     34     36     37   5     0.00000     0.00000     1.25520  0.0
     40     34     36     44   5     0.00000     0.00000     1.25520  0.0
     40     34     36     50   5     0.00000     0.00000     1.25520  0.0
     34     36     37     38   5     3.92041     0.71546     0.82006  0.0
     34     36     37     39   5     0.82425     1.27612    -4.23839  0.0
     44     36     37     38   5     0.00000     0.00000     2.91206  0.0
     44     36     37     39   5     0.00000     0.00000     0.00000  0.0
     50     36     37     38   5     3.92041     0.71546     0.82006  0.0
     50     36     37     39   5     0.82425     1.27612    -4.23839  0.0
     34     36     50     51   5     4.74884    -0.63178     1.67360  0.0
     34     36     50     52   5     4.74884    -0.63178     1.67360  0.0
     34     36     50     56   5     0.00000     0.00000     1.25520  0.0
     37     36     50     51   5     2.87859     0.79078     0.92885  0.0
     37     36     50     52   5     2.87859     0.79078     0.92885  0.0
     37     36     50     56   5     0.00000     0.00000     1.25520  0.0
     44     36     50     51   5     0.00000     0.00000     1.25520  0.0
     44     36     50     52   5     0.00000     0.00000     1.25520  0.0
     44     36     50     56   5     0.00000     0.00000     1.25520  0.0
     36     37     38     45   5     0.00000     0.00000     2.91206  0.0
     36     37     38     46   5     0.00000     0.00000     2.91206  0.0
     36     37     38     47   5     0.00000     0.00000     2.91206  0.0
     39     37     38     45   5     0.00000     0.00000     0.00000  0.0
     39     37     38     46   5     0.00000     0.00000     0.00000  0.0
     39     37     38     47   5     0.00000     0.00000     0.00000  0.0
     36     37     39     48   5     0.00000    58.57600     0.00000  0.0
     36     37     39     49   5     0.00000    58.57600     0.00000  0.0
     38     37     39     48   5     0.00000    58.57600     0.00000  0.0
     38     37     39     49   5     0.00000    58.57600     0.00000  0.0
     36     50     51     57   5     0.00000     0.00000     1.25520  0.0
     36     50     51     58   5     0.00000     0.00000     1.25520  0.0
     36     50     51     59   5     0.00000     0.00000     1.25520  0.0
     52     50     51     57   5     0.00000     0.00000     1.25520  0.0
     52     50     51     58   5     0.00000     0.00000     1.25520  0.0
     52     50     51     59   5     0.00000     0.00000     1.25520  0.0
     56     50     51     57   5     0.00000     0.00000     1.25520  0.0
     56     50     51     58   5     0.00000     0.00000     1.25520  0.0
     56     50     51     59   5     0.00000     0.00000     1.25520  0.0
     36     50     52     53   5     2.87859     0.79078     0.92885  0.0
     36     50     52     60   5     0.00000     0.00000     1.25520  0.0
     36     50     52     66   5     4.74884    -0.63178     1.67360  0.0
     51     50     52     53   5     2.87859     0.79078     0.92885  0.0
     51     50     52     60   5     0.00000     0.00000     1.25520  0.0
     51     50     52     66   5     4.74884    -0.63178     1.67360  0.0
     56     50     52     53   5     0.00000     0.00000     1.25520  0.0
     56     50     52     60   5     0.00000     0.00000     1.25520  0.0
     56     50     52     66   5     0.00000     0.00000     1.25520  0.0
     50     52     53     54   5     3.92041     0.71546     0.82006  0.0
     50     52     53     55   5     0.82425     1.27612    -4.23839  0.0
     60     52     53     54   5     0.00000     0.00000     2.91206  0.0
     60     52     53     55   5     0.00000     0.00000     0.00000  0.0
     66     52     53     54   5     3.92041     0.71546     0.82006  0.0
     66     52     53     55   5     0.82425     1.27612    -4.23839  0.0
     50     52     66     67   5     4.74884    -0.63178     1.67360  0.0
     50     52     66     68   5     4.74884    -0.63178     1.67360  0.0
     50     52     66     72   5     0.00000     0.00000     1.25520  0.0
     53     52     66     67   5     2.87859     0.79078     0.92885  0.0
     53     52     66     68   5     2.87859     0.79078     0.92885  0.0
     53     52     66     72   5     0.00000     0.00000     1.25520  0.0
     60     52     66     67   5     0.00000     0.00000     1.25520  0.0
     60     52     66     68   5     0.00000     0.00000     1.25520  0.0
     60     52     66     72   5     0.00000     0.00000     1.25520  0.0
     52     53     54     61   5     0.00000     0.00000     2.91206  0.0
     52     53     54     62   5     0.00000     0.00000     2.91206  0.0
     52     53     54     63   5     0.00000     0.00000     2.91206  0.0
     55     53     54     61   5     0.00000     0.00000     0.00000  0.0
     55     53     54     62   5     0.00000     0.00000     0.00000  0.0
     55     53     54     63   5     0.00000     0.00000     0.00000  0.0
     52     53     55     64   5     0.00000    58.57600     0.00000  0.0
     52     53     55     65   5     0.00000    58.57600     0.00000  0.0
     54     53     55     64   5     0.00000    58.57600     0.00000  0.0
     54     53     55     65   5     0.00000    58.57600     0.00000  0.0
     52     66     67     73   5     0.00000     0.00000     1.25520  0.0
     52     66     67     74   5     0.00000     0.00000     1.25520  0.0
     52     66     67     75   5     0.00000     0.00000     1.25520  0.0
     68     66     67     73   5     0.00000     0.00000     1.25520  0.0
     68     66     67     74   5     0.00000     0.00000     1.25520  0.0
     68     66     67     75   5     0.00000     0.00000     1.25520  0.0
     72     66     67     73   5     0.00000     0.00000     1.25520  0.0
     72     66     67     74   5     0.00000     0.00000     1.25520  0.0
     72     66     67     75   5     0.00000     0.00000     1.25520  0.0
     52     66     68     69   5     2.87859     0.79078     0.92885  0.0
     52     66     68     76   5     0.00000     0.00000     1.25520  0.0
     52     66     68     82   5     4.74884    -0.63178     1.67360  0.0
     67     66     68     69   5     2.87859     0.79078     0.92885  0.0
     67     66     68     76   5     0.00000     0.00000     1.25520  0.0
     67     66     68     82   5     4.74884    -0.63178     1.67360  0.0
     72     66     68     69   5     0.00000     0.00000     1.25520  0.0
     72     66     68     76   5     0.00000     0.00000     1.25520  0.0
     72     66     68     82   5     0.00000     0.00000     1.25520  0.0
     66     68     69     70   5     3.92041     0.71546     0.82006  0.0
     66     68     69     71   5     0.82425     1.27612    -4.23839  0.0
     76     68     69     70   5     0.00000     0.00000     2.91206  0.0
     76     68     69     71   5     0.00000     0.00000     0.00000  0.0
     82     68     69     70   5     3.92041     0.71546     0.82006  0.0
     82     68     69     71   5     0.82425     1.27612    -4.23839  0.0
     66     68     82     83   5     4.74884    -0.63178     1.67360  0.0
     66     68     82     84   5     4.74884    -0.63178     1.67360  0.0
     66     68     82     88   5     0.00000     0.00000     1.25520  0.0
     69     68     82     83   5     2.87859     0.79078     0.92885  0.0
     69     68     82     84   5     2.87859     0.79078     0.92885  0.0
     69     68     82     88   5     0.00000     0.00000     1.25520  0.0
     76     68     82     83   5     0.00000     0.00000     1.25520  0.0
     76     68     82     84   5     0.00000     0.00000     1.25520  0.0
     76     68     82     88   5     0.00000     0.00000     1.25520  0.0
     68     69     70     77   5     0.00000     0.00000     2.91206  0.0
     68     69     70     78   5     0.00000     0.00000     2.91206  0.0
     68     69     70     79   5     0.00000     0.00000     2.91206  0.0
     71     69     70     77   5     0.00000     0.00000     0.00000  0.0
     71     69     70     78   5     0.00000     0.00000     0.00000  0.0
     71     69     70     79   5     0.00000     0.00000     0.00000  0.0
     68     69     71     80   5     0.00000    58.57600     0.00000  0.0
     68     69     71     81   5     0.00000    58.57600     0.00000  0.0
     70     69     71     80   5     0.00000    58.57600     0.00000  0.0
     70     69     71     81   5     0.00000    58.57600     0.00000  0.0
     68     82     83     89   5     0.00000     0.00000     1.25520  0.0
     68     82     83     90   5     0.00000     0.00000     1.25520  0.0
     68     82     83     91   5     0.00000     0.00000     1.25520  0.0
     84     82     83     89   5     0.00000     0.00000     1.25520  0.0
     84     82     83     90   5     0.00000     0.00000     1.25520  0.0
     84     82     83     91   5     0.00000     0.00000     1.25520  0.0
     88     82     83     89   5     0.00000     0.00000     1.25520  0.0
     88     82     83     90   5     0.00000     0.00000     1.25520  0.0
     88     82     83     91   5     0.00000     0.00000     1.25520  0.0
     68     82     84     85   5     2.87859     0.79078     0.92885  0.0
     68     82     84     92   5     0.00000     0.00000     1.25520  0.0
     68     82     84     98   5     4.74884    -0.63178     1.67360  0.0
     83     82     84     85   5     2.87859     0.79078     0.92885  0.0
     83     82     84     92   5     0.00000     0.00000     1.25520  0.0
     83     82     84     98   5     4.74884    -0.63178     1.67360  0.0
     88     82     84     85   5     0.00000     0.00000     1.25520  0.0
     88     82     84     92   5     0.00000     0.00000     1.25520  0.0
     88     82     84     98   5     0.00000     0.00000     1.25520  0.0
     82     84     85     86   5     3.92041     0.71546     0.82006  0.0
     82     84     85     87   5     0.82425     1.27612    -4.23839  0.0
     92     84     85     86   5     0.00000     0.00000     2.91206  0.0
     92     84     85     87   5     0.00000     0.00000     0.00000  0.0
     98     84     85     86   5     3.92041     0.71546     0.82006  0.0
     98     84     85     87   5     0.82425     1.27612    -4.23839  0.0
     82     84     98     99   5     4.74884    -0.63178     1.67360  0.0
     82     84     98    100   5     4.74884    -0.63178     1.67360  0.0
     82     84     98    104   5     0.00000     0.00000     1.25520  0.0
     85     84     98     99   5     2.87859     0.79078     0.92885  0.0
     85     84     98    100   5     2.87859     0.79078     0.92885  0.0
     85     84     98    104   5     0.00000     0.00000     1.25520  0.0
     92     84     98     99   5     0.00000     0.00000     1.25520  0.0
     92     84     98    100   5     0.00000     0.00000     1.25520  0.0
     92     84     98    104   5     0.00000     0.00000     1.25520  0.0
     84     85     86     93   5     0.00000     0.00000     2.91206  0.0
     84     85     86     94   5     0.00000     0.00000     2.91206  0.0
     84     85     86     95   5     0.00000     0.00000     2.91206  0.0
     87     85     86     93   5     0.00000     0.00000     0.00000  0.0
     87     85     86     94   5     0.00000     0.00000     0.00000  0.0
     87     85     86     95   5     0.00000     0.00000     0.00000  0.0
     84     85     87     96   5     0.00000    58.57600     0.00000  0.0
     84     85     87     97   5     0.00000    58.57600     0.00000  0.0
     86     85     87     96   5     0.00000    58.57600     0.00000  0.0
     86     85     87     97   5     0.00000    58.57600     0.00000  0.0
     84     98     99    105   5     0.00000     0.00000     1.25520  0.0
     84     98     99    106   5     0.00000     0.00000     1.25520  0.0
     84     98     99    107   5     0.00000     0.00000     1.25520  0.0
    100     98     99    105   5     0.00000     0.00000     1.25520  0.0
    100     98     99    106   5     0.00000     0.00000     1.25520  0.0
    100     98     99    107   5     0.00000     0.00000     1.25520  0.0
    104     98     99    105   5     0.00000     0.00000     1.25520  0.0
    104     98     99    106   5     0.00000     0.00000     1.25520  0.0
    104     98     99    107   5     0.00000     0.00000     1.25520  0.0
     84     98    100    101   5     2.87859     0.79078     0.92885  0.0
     84     98    100    108   5     0.00000     0.00000     1.25520  0.0
     84     98    100    114   5     4.74884    -0.63178     1.67360  0.0
     99     98    100    101   5     2.87859     0.79078     0.92885  0.0
     99     98    100    108   5     0.00000     0.00000     1.25520  0.0
     99     98    100    114   5     4.74884    -0.63178     1.67360  0.0
    104     98    100    101   5     0.00000     0.00000     1.25520  0.0
    104     98    100    108   5     0.00000     0.00000     1.25520  0.0
    104     98    100    114   5     0.00000     0.00000     1.25520  0.0
     98    100    101    102   5     3.92041     0.71546     0.82006  0.0
     98    100    101    103   5     0.82425     1.27612    -4.23839  0.0
    108    100    101    102   5     0.00000     0.00000     2.91206  0.0
    108    100    101    103   5     0.00000     0.00000     0.00000  0.0
    114    100    101    102   5     3.92041     0.71546     0.82006  0.0
    114    100    101    103   5     0.82425     1.27612    -4.23839  0.0
     98    100    114    115   5     4.74884    -0.63178     1.67360  0.0
     98    100    114    116   5     4.74884    -0.63178     1.67360  0.0
     98    100    114    120   5     0.00000     0.00000     1.25520  0.0
    101    100    114    115   5     2.87859     0.79078     0.92885  0.0
    101    100    114    116   5     2.87859     0.79078     0.92885  0.0
    101    100    114    120   5     0.00000     0.00000     1.25520  0.0
    108    100    114    115   5     0.00000     0.00000     1.25520  0.0
    108    100    114    116   5     0.00000     0.00000     1.25520  0.0
    108    100    114    120   5     0.00000     0.00000     1.25520  0.0
    100    101    102    109   5     0.00000     0.00000     2.91206  0.0
    100    101    102    110   5     0.00000     0.00000     2.91206  0.0
    100    101    102    111   5     0.00000     0.00000     2.91206  0.0
    103    101    102    109   5     0.00000     0.00000     0.00000  0.0
    103    101    102    110   5     0.00000     0.00000     0.00000  0.0
    103    101    102    111   5     0.00000     0.00000     0.00000  0.0
    100    101    103    112   5     0.00000    58.57600     0.00000  0.0
    100    101    103    113   5     0.00000    58.57600     0.00000  0.0
    102    101    103    112   5     0.00000    58.57600     0.00000  0.0
    102    101    103    113   5     0.00000    58.57600     0.00000  0.0
    100    114    115    121   5     0.00000     0.00000     1.25520  0.0
    100    114    115    122   5     0.00000     0.00000     1.25520  0.0
    100    114    115    123   5     0.00000     0.00000     1.25520  0.0
    116    114    115    121   5     0.00000     0.00000     1.25520  0.0
    116    114    115    122   5     0.00000     0.00000     1.25520  0.0
    116    114    115    123   5     0.00000     0.00000     1.25520  0.0
    120    114    115    121   5     0.00000     0.00000     1.25520  0.0
    120    114    115    122   5     0.00000     0.00000     1.25520  0.0
    120    114    115    123   5     0.00000     0.00000     1.25520  0.0
    100    114    116    117   5     2.87859     0.79078     0.92885  0.0
    100    114    116    124   5     0.00000     0.00000     1.25520  0.0
    100    114    116    130   5     4.74884    -0.63178     1.67360  0.0
    115    114    116    117   5     2.87859     0.79078     0.92885  0.0
    115    114    116    124   5     0.00000     0.00000     1.25520  0.0
    115    114    116    130   5     4.74884    -0.63178     1.67360  0.0
    120    114    116    117   5     0.00000     0.00000     1.25520  0.0
    120    114    116    124   5     0.00000     0.00000     1.25520  0.0
    120    114    116    130   5     0.00000     0.00000     1.25520  0.0
    114    116    117    118   5     3.92041     0.71546     0.82006  0.0
    114    116    117    119   5     0.82425     1.27612    -4.23839  0.0
    124    116    117    118   5     0.00000     0.00000     2.91206  0.0
    124    116    117    119   5     0.00000     0.00000     0.00000  0.0
    130    116    117    118   5     3.92041     0.71546     0.82006  0.0
    130    116    117    119   5     0.82425     1.27612    -4.23839  0.0
    114    116    130    131   5     4.74884    -0.63178     1.67360  0.0
    114    116    130    132   5     4.74884    -0.63178     1.67360  0.0
    114    116    130    136   5     0.00000     0.00000     1.25520  0.0
    117    116    130    131   5     2.87859     0.79078     0.92885  0.0
    117    116    130    132   5     2.87859     0.79078     0.92885  0.0
    117    116    130    136   5     0.00000     0.00000     1.25520  0.0
    124    116    130    131   5     0.00000     0.00000     1.25520  0.0
    124    116    130    132   5     0.00000     0.00000     1.25520  0.0
    124    116    130    136   5     0.00000     0.00000     1.25520  0.0
    116    117    118    125   5     0.00000     0.00000     2.91206  0.0
    116    117    118    126   5     0.00000     0.00000     2.91206  0.0
    116    117    118    127   5     0.00000     0.00000     2.91206  0.0
    119    117    118    125   5     0.00000     0.00000     0.00000  0.0
    119    117    118    126   5     0.00000     0.00000     0.00000  0.0
    119    117    118    127   5     0.00000     0.00000     0.00000  0.0
    116    117    119    128   5     0.00000    58.57600     0.00000  0.0
    116    117    119    129   5     0.00000    58.57600     0.00000  0.0
    118    117    119    128   5     0.00000    58.57600     0.00000  0.0
    118    117    119    129   5     0.00000    58.57600     0.00000  0.0
    116    130    131    137   5     0.00000     0.00000     1.25520  0.0
    116    130    131    138   5     0.00000     0.00000     1.25520  0.0
    116    130    131    139   5     0.00000     0.00000     1.25520  0.0
    132    130    131    137   5     0.00000     0.00000     1.25520  0.0
    132    130    131    138   5     0.00000     0.00000     1.25520  0.0
    132    130    131    139   5     0.00000     0.00000     1.25520  0.0
    136    130    131    137   5     0.00000     0.00000     1.25520  0.0
    136    130    131    138   5     0.00000     0.00000     1.25520  0.0
    136    130    131    139   5     0.00000     0.00000     1.25520  0.0
    116    130    132    133   5     2.87859     0.79078     0.92885  0.0
    116    130    132    140   5     0.00000     0.00000     1.25520  0.0
    116    130    132    146   5     4.74884    -0.63178     1.67360  0.0
    131    130    132    133   5     2.87859     0.79078     0.92885  0.0
    131    130    132    140   5     0.00000     0.00000     1.25520  0.0
    131    130    132    146   5     4.74884    -0.63178     1.67360  0.0
    136    130    132    133   5     0.00000     0.00000     1.25520  0.0
    136    130    132    140   5     0.00000     0.00000     1.25520  0.0
    136    130    132    146   5     0.00000     0.00000     1.25520  0.0
    130    132    133    134   5     3.92041     0.71546     0.82006  0.0
    130    132    133    135   5     0.82425     1.27612    -4.23839  0.0
    140    132    133    134   5     0.00000     0.00000     2.91206  0.0
    140    132    133    135   5     0.00000     0.00000     0.00000  0.0
    146    132    133    134   5     3.92041     0.71546     0.82006  0.0
    146    132    133    135   5     0.82425     1.27612    -4.23839  0.0
    130    132    146    147   5     4.74884    -0.63178     1.67360  0.0
    130    132    146    148   5     4.74884    -0.63178     1.67360  0.0
    130    132    146    152   5     0.00000     0.00000     1.25520  0.0
    133    132    146    147   5     2.87859     0.79078     0.92885  0.0
    133    132    146    148   5     2.87859     0.79078     0.92885  0.0
    133    132    146    152   5     0.00000     0.00000     1.25520  0.0
    140    132    146    147   5     0.00000     0.00000     1.25520  0.0
    140    132    146    148   5     0.00000     0.00000     1.25520  0.0
    140    132    146    152   5     0.00000     0.00000     1.25520  0.0
    132    133    134    141   5     0.00000     0.00000     2.91206  0.0
    132    133    134    142   5     0.00000     0.00000     2.91206  0.0
    132    133    134    143   5     0.00000     0.00000     2.91206  0.0
    135    133    134    141   5     0.00000     0.00000     0.00000  0.0
    135    133    134    142   5     0.00000     0.00000     0.00000  0.0
    135    133    134    143   5     0.00000     0.00000     0.00000  0.0
    132    133    135    144   5     0.00000    58.57600     0.00000  0.0
    132    133    135    145   5     0.00000    58.57600     0.00000  0.0
    134    133    135    144   5     0.00000    58.57600     0.00000  0.0
    134    133    135    145   5     0.00000    58.57600     0.00000  0.0
    132    146    147    153   5     0.00000     0.00000     1.25520  0.0
    132    146    147    154   5     0.00000     0.00000     1.25520  0.0
    132    146    147    155   5     0.00000     0.00000     1.25520  0.0
    148    146    147    153   5     0.00000     0.00000     1.25520  0.0
    148    146    147    154   5     0.00000     0.00000     1.25520  0.0
    148    146    147    155   5     0.00000     0.00000     1.25520  0.0
    152    146    147    153   5     0.00000     0.00000     1.25520  0.0
    152    146    147    154   5     0.00000     0.00000     1.25520  0.0
    152    146    147    155   5     0.00000     0.00000     1.25520  0.0
    132    146    148    149   5     2.87859     0.79078     0.92885  0.0
    132    146    148    156   5     0.00000     0.00000     1.25520  0.0
    132    146    148    162   5     4.74884    -0.63178     1.67360  0.0
    147    146    148    149   5     2.87859     0.79078     0.92885  0.0
    147    146    148    156   5     0.00000     0.00000     1.25520  0.0
    147    146    148    162   5     4.74884    -0.63178     1.67360  0.0
    152    146    148    149   5     0.00000     0.00000     1.25520  0.0
    152    146    148    156   5     0.00000     0.00000     1.25520  0.0
    152    146    148    162   5     0.00000     0.00000     1.25520  0.0
    146    148    149    150   5     3.92041     0.71546     0.82006  0.0
    146    148    149    151   5     0.82425     1.27612    -4.23839  0.0
    156    148    149    150   5     0.00000     0.00000     2.91206  0.0
    156    148    149    151   5     0.00000     0.00000     0.00000  0.0
    162    148    149    150   5     3.92041     0.71546     0.82006  0.0
    162    148    149    151   5     0.82425     1.27612    -4.23839  0.0
    146    148    162    163   5     4.74884    -0.63178     1.67360  0.0
    146    148    162    164   5     4.74884    -0.63178     1.67360  0.0
    146    148    162    168   5     0.00000     0.00000     1.25520  0.0
    149    148    162    163   5     2.87859     0.79078     0.92885  0.0
    149    148    162    164   5     2.87859     0.79078     0.92885  0.0
    149    148    162    168   5     0.00000     0.00000     1.25520  0.0
    156    148    162    163   5     0.00000     0.00000     1.25520  0.0
    156    148    162    164   5     0.00000     0.00000     1.25520  0.0
    156    148    162    168   5     0.00000     0.00000     1.25520  0.0
    148    149    150    157   5     0.00000     0.00000     2.91206  0.0
    148    149    150    158   5     0.00000     0.00000     2.91206  0.0
    148    149    150    159   5     0.00000     0.00000     2.91206  0.0
    151    149    150    157   5     0.00000     0.00000     0.00000  0.0
    151    149    150    158   5     0.00000     0.00000     0.00000  0.0
    151    149    150    159   5     0.00000     0.00000     0.00000  0.0
    148    149    151    160   5     0.00000    58.57600     0.00000  0.0
    148    149    151    161   5     0.00000    58.57600     0.00000  0.0
    150    149    151    160   5     0.00000    58.57600     0.00000  0.0
    150    149    151    161   5     0.00000    58.57600     0.00000  0.0
    148    162    163    169   5     0.00000     0.00000     1.25520  0.0
    148    162    163    170   5     0.00000     0.00000     1.25520  0.0
    148    162    163    171   5     0.00000     0.00000     1.25520  0.0
    164    162    163    169   5     0.00000     0.00000     1.25520  0.0
    164    162    163    170   5     0.00000     0.00000     1.25520  0.0
    164    162    163    171   5     0.00000     0.00000     1.25520  0.0
    168    162    163    169   5     0.00000     0.00000     1.25520  0.0
    168    162    163    170   5     0.00000     0.00000     1.25520  0.0
    168    162    163    171   5     0.00000     0.00000     1.25520  0.0
    148    162    164    165   5     2.87859     0.79078     0.92885  0.0
    148    162    164    172   5     0.00000     0.00000     1.25520  0.0
    148    162    164    178   5     4.74884    -0.63178     1.67360  0.0
    163    162    164    165   5     2.87859     0.79078     0.92885  0.0
    163    162    164    172   5     0.00000     0.00000     1.25520  0.0
    163    162    164    178   5     4.74884    -0.63178     1.67360  0.0
    168    162    164    165   5     0.00000     0.00000     1.25520  0.0
    168    162    164    172   5     0.00000     0.00000     1.25520  0.0
    168    162    164    178   5     0.00000     0.00000     1.25520  0.0
    162    164    165    166   5     3.92041     0.71546     0.82006  0.0
    162    164    165    167   5     0.82425     1.27612    -4.23839  0.0
    172    164    165    166   5     0.00000     0.00000     2.91206  0.0
    172    164    165    167   5     0.00000     0.00000     0.00000  0.0
    178    164    165    166   5     3.92041     0.71546     0.82006  0.0
    178    164    165    167   5     0.82425     1.27612    -4.23839  0.0
    162    164    178    179   5     4.74884    -0.63178     1.67360  0.0
    162    164    178    180   5     4.74884    -0.63178     1.67360  0.0
    162    164    178    184   5     0.00000     0.00000     1.25520  0.0
    165    164    178    179   5     2.87859     0.79078     0.92885  0.0
    165    164    178    180   5     2.87859     0.79078     0.92885  0.0
    165    164    178    184   5     0.00000     0.00000     1.25520  0.0
    172    164    178    179   5     0.00000     0.00000     1.25520  0.0
    172    164    178    180   5     0.00000     0.00000     1.25520  0.0
    172    164    178    184   5     0.00000     0.00000     1.25520  0.0
    164    165    166    173   5     0.00000     0.00000     2.91206  0.0
    164    165    166    174   5     0.00000     0.00000     2.91206  0.0
    164    165    166    175   5     0.00000     0.00000     2.91206  0.0
    167    165    166    173   5     0.00000     0.00000     0.00000  0.0
    167    165    166    174   5     0.00000     0.00000     0.00000  0.0
    167    165    166    175   5     0.00000     0.00000     0.00000  0.0
    164    165    167    176   5     0.00000    58.57600     0.00000  0.0
    164    165    167    177   5     0.00000    58.57600     0.00000  0.0
    166    165    167    176   5     0.00000    58.57600     0.00000  0.0
    166    165    167    177   5     0.00000    58.57600     0.00000  0.0
    164    178    179    185   5     0.00000     0.00000     1.25520  0.0
    164    178    179    186   5     0.00000     0.00000     1.25520  0.0
    164    178    179    187   5     0.00000     0.00000     1.25520  0.0
    180    178    179    185   5     0.00000     0.00000     1.25520  0.0
    180    178    179    186   5     0.00000     0.00000     1.25520  0.0
    180    178    179    187   5     0.00000     0.00000     1.25520  0.0
    184    178    179    185   5     0.00000     0.00000     1.25520  0.0
    184    178    179    186   5     0.00000     0.00000     1.25520  0.0
    184    178    179    187   5     0.00000     0.00000     1.25520  0.0
    164    178    180    181   5     2.87859     0.79078     0.92885  0.0
    164    178    180    188   5     0.00000     0.00000     1.25520  0.0
    164    178    180    194   5     4.74884    -0.63178     1.67360  0.0
    179    178    180    181   5     2.87859     0.79078     0.92885  0.0
    179    178    180    188   5     0.00000     0.00000     1.25520  0.0
    179    178    180    194   5     4.74884    -0.63178     1.67360  0.0
    184    178    180    181   5     0.00000     0.00000     1.25520  0.0
    184    178    180    188   5     0.00000     0.00000     1.25520  0.0
    184    178    180    194   5     0.00000     0.00000     1.25520  0.0
    178    180    181    182   5     3.92041     0.71546     0.82006  0.0
    178    180    181    183   5     0.82425     1.27612    -4.23839  0.0
    188    180    181    182   5     0.00000     0.00000     2.91206  0.0
    188    180    181    183   5     0.00000     0.00000     0.00000  0.0
    194    180    181    182   5     3.92041     0.71546     0.82006  0.0
    194    180    181    183   5     0.82425     1.27612    -4.23839  0.0
    178    180    194    195   5     4.74884    -0.63178     1.67360  0.0
    178    180    194    196   5     4.74884    -0.63178     1.67360  0.0
    178    180    194    200   5     0.00000     0.00000     1.25520  0.0
    181    180    194    195   5     2.87859     0.79078     0.92885  0.0
    181    180    194    196   5     2.87859     0.79078     0.92885  0.0
    181    180    194    200   5     0.00000     0.00000     1.25520  0.0
    188    180    194    195   5     0.00000     0.00000     1.25520  0.0
    188    180    194    196   5     0.00000     0.00000     1.25520  0.0
    188    180    194    200   5     0.00000     0.00000     1.25520  0.0
    180    181    182    189   5     0.00000     0.00000     2.91206  0.0
    180    181    182    190   5     0.00000     0.00000     2.91206  0.0
    180    181    182    191   5     0.00000     0.00000     2.91206  0.0
    183    181    182    189   5     0.00000     0.00000     0.00000  0.0
    183    181    182    190   5     0.00000     0.00000     0.00000  0.0
    183    181    182    191   5     0.00000     0.00000     0.00000  0.0
    180    181    183    192   5     0.00000    58.57600     0.00000  0.0
    180    181    183    193   5     0.00000    58.57600     0.00000  0.0
    182    181    183    192   5     0.00000    58.57600     0.00000  0.0
    182    181    183    193   5     0.00000    58.57600     0.00000  0.0
    180    194    195    201   5     0.00000     0.00000     1.25520  0.0
    180    194    195    202   5     0.00000     0.00000     1.25520  0.0
    180    194    195    203   5     0.00000     0.00000     1.25520  0.0
    196    194    195    201   5     0.00000     0.00000     1.25520  0.0
    196    194    195    202   5     0.00000     0.00000     1.25520  0.0
    196    194    195    203   5     0.00000     0.00000     1.25520  0.0
    200    194    195    201   5     0.00000     0.00000     1.25520  0.0
    200    194    195    202   5     0.00000     0.00000     1.25520  0.0
    200    194    195    203   5     0.00000     0.00000     1.25520  0.0
    180    194    196    197   5     2.87859     0.79078     0.92885  0.0
    180    194    196    204   5     0.00000     0.00000     1.25520  0.0
    180    194    196    210   5     4.74884    -0.63178     1.67360  0.0
    195    194    196    197   5     2.87859     0.79078     0.92885  0.0
    195    194    196    204   5     0.00000     0.00000     1.25520  0.0
    195    194    196    210   5     4.74884    -0.63178     1.67360  0.0
    200    194    196    197   5     0.00000     0.00000     1.25520  0.0
    200    194    196    204   5     0.00000     0.00000     1.25520  0.0
    200    194    196    210   5     0.00000     0.00000     1.25520  0.0
    194    196    197    198   5     3.92041     0.71546     0.82006  0.0
    194    196    197    199   5     0.82425     1.27612    -4.23839  0.0
    204    196    197    198   5     0.00000     0.00000     2.91206  0.0
    204    196    197    199   5     0.00000     0.00000     0.00000  0.0
    210    196    197    198   5     3.92041     0.71546     0.82006  0.0
    210    196    197    199   5     0.82425     1.27612    -4.23839  0.0
    194    196    210    211   5     4.74884    -0.63178     1.67360  0.0
    194    196    210    212   5     4.74884    -0.63178     1.67360  0.0
    194    196    210    216   5     0.00000     0.00000     1.25520  0.0
    197    196    210    211   5     2.87859     0.79078     0.92885  0.0
    197    196    210    212   5     2.87859     0.79078     0.92885  0.0
    197    196    210    216   5     0.00000     0.00000     1.25520  0.0
    204    196    210    211   5     0.00000     0.00000     1.25520  0.0
    204    196    210    212   5     0.00000     0.00000     1.25520  0.0
    204    196    210    216   5     0.00000     0.00000     1.25520  0.0
    196    197    198    205   5     0.00000     0.00000     2.91206  0.0
    196    197    198    206   5     0.00000     0.00000     2.91206  0.0
    196    197    198    207   5     0.00000     0.00000     2.91206  0.0
    199    197    198    205   5     0.00000     0.00000     0.00000  0.0
    199    197    198    206   5     0.00000     0.00000     0.00000  0.0
    199    197    198    207   5     0.00000     0.00000     0.00000  0.0
    196    197    199    208   5     0.00000    58.57600     0.00000  0.0
    196    197    199    209   5     0.00000    58.57600     0.00000  0.0
    198    197    199    208   5     0.00000    58.57600     0.00000  0.0
    198    197    199    209   5     0.00000    58.57600     0.00000  0.0
    196    210    211    217   5     0.00000     0.00000     1.25520  0.0
    196    210    211    218   5     0.00000     0.00000     1.25520  0.0
    196    210    211    219   5     0.00000     0.00000     1.25520  0.0
    212    210    211    217   5     0.00000     0.00000     1.25520  0.0
    212    210    211    218   5     0.00000     0.00000     1.25520  0.0
    212    210    211    219   5     0.00000     0.00000     1.25520  0.0
    216    210    211    217   5     0.00000     0.00000     1.25520  0.0
    216    210    211    218   5     0.00000     0.00000     1.25520  0.0
    216    210    211    219   5     0.00000     0.00000     1.25520  0.0
    196    210    212    213   5     2.87859     0.79078     0.92885  0.0
    196    210    212    220   5     0.00000     0.00000     1.25520  0.0
    196    210    212    226   5     4.74884    -0.63178     1.67360  0.0
    211    210    212    213   5     2.87859     0.79078     0.92885  0.0
    211    210    212    220   5     0.00000     0.00000     1.25520  0.0
    211    210    212    226   5     4.74884    -0.63178     1.67360  0.0
    216    210    212    213   5     0.00000     0.00000     1.25520  0.0
    216    210    212    220   5     0.00000     0.00000     1.25520  0.0
    216    210    212    226   5     0.00000     0.00000     1.25520  0.0
    210    212    213    214   5     3.92041     0.71546     0.82006  0.0
    210    212    213    215   5     0.82425     1.27612    -4.23839  0.0
    220    212    213    214   5     0.00000     0.00000     2.91206  0.0
    220    212    213    215   5     0.00000     0.00000     0.00000  0.0
    226    212    213    214   5     3.92041     0.71546     0.82006  0.0
    226    212    213    215   5     0.82425     1.27612    -4.23839  0.0
    210    212    226    227   5     4.74884    -0.63178     1.67360  0.0
    210    212    226    228   5     4.74884    -0.63178     1.67360  0.0
    210    212    226    232   5     0.00000     0.00000     1.25520  0.0
    213    212    226    227   5     2.87859     0.79078     0.92885  0.0
    213    212    226    228   5     2.87859     0.79078     0.92885  0.0
    213    212    226    232   5     0.00000     0.00000     1.25520  0.0
    220    212    226    227   5     0.00000     0.00000     1.25520  0.0
    220    212    226    228   5     0.00000     0.00000     1.25520  0.0
    220    212    226    232   5     0.00000     0.00000     1.25520  0.0
    212    213    214    221   5     0.00000     0.00000     2.91206  0.0
    212    213    214    222   5     0.00000     0.00000     2.91206  0.0
    212    213    214    223   5     0.00000     0.00000     2.91206  0.0
    215    213    214    221   5     0.00000     0.00000     0.00000  0.0
    215    213    214    222   5     0.00000     0.00000     0.00000  0.0
    215    213    214    223   5     0.00000     0.00000     0.00000  0.0
    212    213    215    224   5     0.00000    58.57600     0.00000  0.0
    212    213    215    225   5     0.00000    58.57600     0.00000  0.0
    214    213    215    224   5     0.00000    58.57600     0.00000  0.0
    214    213    215    225   5     0.00000    58.57600     0.00000  0.0
    212    226    227    233   5     0.00000     0.00000     1.25520  0.0
    212    226    227    234   5     0.00000     0.00000     1.25520  0.0
    212    226    227    235   5     0.00000     0.00000     1.25520  0.0
    228    226    227    233   5     0.00000     0.00000     1.25520  0.0
    228    226    227    234   5     0.00000     0.00000     1.25520  0.0
    228    226    227    235   5     0.00000     0.00000     1.25520  0.0
    232    226    227    233   5     0.00000     0.00000     1.25520  0.0
    232    226    227    234   5     0.00000     0.00000     1.25520  0.0
    232    226    227    235   5     0.00000     0.00000     1.25520  0.0
    212    226    228    229   5     2.87859     0.79078     0.92885  0.0
    212    226    228    236   5     0.00000     0.00000     1.25520  0.0
    212    226    228    242   5     4.74884    -0.63178     1.67360  0.0
    227    226    228    229   5     2.87859     0.79078     0.92885  0.0
    227    226    228    236   5     0.00000     0.00000     1.25520  0.0
    227    226    228    242   5     4.74884    -0.63178     1.67360  0.0
    232    226    228    229   5     0.00000     0.00000     1.25520  0.0
    232    226    228    236   5     0.00000     0.00000     1.25520  0.0
    232    226    228    242   5     0.00000     0.00000     1.25520  0.0
    226    228    229    230   5     3.92041     0.71546     0.82006  0.0
    226    228    229    231   5     0.82425     1.27612    -4.23839  0.0
    236    228    229    230   5     0.00000     0.00000     2.91206  0.0
    236    228    229    231   5     0.00000     0.00000     0.00000  0.0
    242    228    229    230   5     3.92041     0.71546     0.82006  0.0
    242    228    229    231   5     0.82425     1.27612    -4.23839  0.0
    226    228    242    243   5     4.74884    -0.63178     1.67360  0.0
    226    228    242    244   5     4.74884    -0.63178     1.67360  0.0
    226    228    242    248   5     0.00000     0.00000     1.25520  0.0
    229    228    242    243   5     2.87859     0.79078     0.92885  0.0
    229    228    242    244   5     2.87859     0.79078     0.92885  0.0
    229    228    242    248   5     0.00000     0.00000     1.25520  0.0
    236    228    242    243   5     0.00000     0.00000     1.25520  0.0
    236    228    242    244   5     0.00000     0.00000     1.25520  0.0
    236    228    242    248   5     0.00000     0.00000     1.25520  0.0
    228    229    230    237   5     0.00000     0.00000     2.91206  0.0
    228    229    230    238   5     0.00000     0.00000     2.91206  0.0
    228    229    230    239   5     0.00000     0.00000     2.91206  0.0
    231    229    230    237   5     0.00000     0.00000     0.00000  0.0
    231    229    230    238   5     0.00000     0.00000     0.00000  0.0
    231    229    230    239   5     0.00000     0.00000     0.00000  0.0
    228    229    231    240   5     0.00000    58.57600     0.00000  0.0
    228    229    231    241   5     0.00000    58.57600     0.00000  0.0
    230    229    231    240   5     0.00000    58.57600     0.00000  0.0
    230    229    231    241   5     0.00000    58.57600     0.00000  0.0
    228    242    243    249   5     0.00000     0.00000     1.25520  0.0
    228    242    243    250   5     0.00000     0.00000     1.25520  0.0
    228    242    243    251   5     0.00000     0.00000     1.25520  0.0
    244    242    243    249   5     0.00000     0.00000     1.25520  0.0
    244    242    243    250   5     0.00000     0.00000     1.25520  0.0
    244    242    243    251   5     0.00000     0.00000     1.25520  0.0
    248    242    243    249   5     0.00000     0.00000     1.25520  0.0
    248    242    243    250   5     0.00000     0.00000     1.25520  0.0
    248    242    243    251   5     0.00000     0.00000     1.25520  0.0
    228    242    244    245   5     2.87859     0.79078     0.92885  0.0
    228    242    244    252   5     0.00000     0.00000     1.25520  0.0
    228    242    244    258   5     4.74884    -0.63178     1.67360  0.0
    243    242    244    245   5     2.87859     0.79078     0.92885  0.0
    243    242    244    252   5     0.00000     0.00000     1.25520  0.0
    243    242    244    258   5     4.74884    -0.63178     1.67360  0.0
    248    242    244    245   5     0.00000     0.00000     1.25520  0.0
    248    242    244    252   5     0.00000     0.00000     1.25520  0.0
    248    242    244    258   5     0.00000     0.00000     1.25520  0.0
    242    244    245    246   5     3.92041     0.71546     0.82006  0.0
    242    244    245    247   5     0.82425     1.27612    -4.23839  0.0
    252    244    245    246   5     0.00000     0.00000     2.91206  0.0
    252    244    245    247   5     0.00000     0.00000     0.00000  0.0
    258    244    245    246   5     3.92041     0.71546     0.82006  0.0
    258    244    245    247   5     0.82425     1.27612    -4.23839  0.0
    242    244    258    259   5     4.74884    -0.63178     1.67360  0.0
    242    244    258    260   5     4.74884    -0.63178     1.67360  0.0
    242    244    258    264   5     0.00000     0.00000     1.25520  0.0
    245    244    258    259   5     2.87859     0.79078     0.92885  0.0
    245    244    258    260   5     2.87859     0.79078     0.92885  0.0
    245    244    258    264   5     0.00000     0.00000     1.25520  0.0
    252    244    258    259   5     0.00000     0.00000     1.25520  0.0
    252    244    258    260   5     0.00000     0.00000     1.25520  0.0
    252    244    258    264   5     0.00000     0.00000     1.25520  0.0
    244    245    246    253   5     0.00000     0.00000     2.91206  0.0
    244    245    246    254   5     0.00000     0.00000     2.91206  0.0
    244    245    246    255   5     0.00000     0.00000     2.91206  0.0
    247    245    246    253   5     0.00000     0.00000     0.00000  0.0
    247    245    246    254   5     0.00000     0.00000     0.00000  0.0
    247    245    246    255   5     0.00000     0.00000     0.00000  0.0
    244    245    247    256   5     0.00000    58.57600     0.00000  0.0
    244    245    247    257   5     0.00000    58.57600     0.00000  0.0
    246    245    247    256   5     0.00000    58.57600     0.00000  0.0
    246    245    247    257   5     0.00000    58.57600     0.00000  0.0
    244    258    259    265   5     0.00000     0.00000     1.25520  0.0
    244    258    259    266   5     0.00000     0.00000     1.25520  0.0
    244    258    259    267   5     0.00000     0.00000     1.25520  0.0
    260    258    259    265   5     0.00000     0.00000     1.25520  0.0
    260    258    259    266   5     0.00000     0.00000     1.25520  0.0
    260    258    259    267   5     0.00000     0.00000     1.25520  0.0
    264    258    259    265   5     0.00000     0.00000     1.25520  0.0
    264    258    259    266   5     0.00000     0.00000     1.25520  0.0
    264    258    259    267   5     0.00000     0.00000     1.25520  0.0
    244    258    260    261   5     2.87859     0.79078     0.92885  0.0
    244    258    260    268   5     0.00000     0.00000     1.25520  0.0
    244    258    260    274   5     4.74884    -0.63178     1.67360  0.0
    259    258    260    261   5     2.87859     0.79078     0.92885  0.0
    259    258    260    268   5     0.00000     0.00000     1.25520  0.0
    259    258    260    274   5     4.74884    -0.63178     1.67360  0.0
    264    258    260    261   5     0.00000     0.00000     1.25520  0.0
    264    258    260    268   5     0.00000     0.00000     1.25520  0.0
    264    258    260    274   5     0.00000     0.00000     1.25520  0.0
    258    260    261    262   5     3.92041     0.71546     0.82006  0.0
    258    260    261    263   5     0.82425     1.27612    -4.23839  0.0
    268    260    261    262   5     0.00000     0.00000     2.91206  0.0
    268    260    261    263   5     0.00000     0.00000     0.00000  0.0
    274    260    261    262   5     3.92041     0.71546     0.82006  0.0
    274    260    261    263   5     0.82425     1.27612    -4.23839  0.0
    258    260    274    275   5     4.74884    -0.63178     1.67360  0.0
    258    260    274    276   5     4.74884    -0.63178     1.67360  0.0
    258    260    274    280   5     0.00000     0.00000     1.25520  0.0
    261    260    274    275   5     2.87859     0.79078     0.92885  0.0
    261    260    274    276   5     2.87859     0.79078     0.92885  0.0
    261    260    274    280   5     0.00000     0.00000     1.25520  0.0
    268    260    274    275   5     0.00000     0.00000     1.25520  0.0
    268    260    274    276   5     0.00000     0.00000     1.25520  0.0
    268    260    274    280   5     0.00000     0.00000     1.25520  0.0
    260    261    262    269   5     0.00000     0.00000     2.91206  0.0
    260    261    262    270   5     0.00000     0.00000     2.91206  0.0
    260    261    262    271   5     0.00000     0.00000     2.91206  0.0
    263    261    262    269   5     0.00000     0.00000     0.00000  0.0
    263    261    262    270   5     0.00000     0.00000     0.00000  0.0
    263    261    262    271   5     0.00000     0.00000     0.00000  0.0
    260    261    263    272   5     0.00000    58.57600     0.00000  0.0
    260    261    263    273   5     0.00000    58.57600     0.00000  0.0
    262    261    263    272   5     0.00000    58.57600     0.00000  0.0
    262    261    263    273   5     0.00000    58.57600     0.00000  0.0
    260    274    275    281   5     0.00000     0.00000     1.25520  0.0
    260    274    275    282   5     0.00000     0.00000     1.25520  0.0
    260    274    275    283   5     0.00000     0.00000     1.25520  0.0
    276    274    275    281   5     0.00000     0.00000     1.25520  0.0
    276    274    275    282   5     0.00000     0.00000     1.25520  0.0
    276    274    275    283   5     0.00000     0.00000     1.25520  0.0
    280    274    275    281   5     0.00000     0.00000     1.25520  0.0
    280    274    275    282   5     0.00000     0.00000     1.25520  0.0
    280    274    275    283   5     0.00000     0.00000     1.25520  0.0
    260    274    276    277   5     2.87859     0.79078     0.92885  0.0
    260    274    276    284   5     0.00000     0.00000     1.25520  0.0
    260    274    276    290   5     4.74884    -0.63178     1.67360  0.0
    275    274    276    277   5     2.87859     0.79078     0.92885  0.0
    275    274    276    284   5     0.00000     0.00000     1.25520  0.0
    275    274    276    290   5     4.74884    -0.63178     1.67360  0.0
    280    274    276    277   5     0.00000     0.00000     1.25520  0.0
    280    274    276    284   5     0.00000     0.00000     1.25520  0.0
    280    274    276    290   5     0.00000     0.00000     1.25520  0.0
    274    276    277    278   5     3.92041     0.71546     0.82006  0.0
    274    276    277    279   5     0.82425     1.27612    -4.23839  0.0
    284    276    277    278   5     0.00000     0.00000     2.91206  0.0
    284    276    277    279   5     0.00000     0.00000     0.00000  0.0
    290    276    277    278   5     3.92041     0.71546     0.82006  0.0
    290    276    277    279   5     0.82425     1.27612    -4.23839  0.0
    274    276    290    291   5     4.74884    -0.63178     1.67360  0.0
    274    276    290    292   5     4.74884    -0.63178     1.67360  0.0
    274    276    290    296   5     0.00000     0.00000     1.25520  0.0
    277    276    290    291   5     2.87859     0.79078     0.92885  0.0
    277    276    290    292   5     2.87859     0.79078     0.92885  0.0
    277    276    290    296   5     0.00000     0.00000     1.25520  0.0
    284    276    290    291   5     0.00000     0.00000     1.25520  0.0
    284    276    290    292   5     0.00000     0.00000     1.25520  0.0
    284    276    290    296   5     0.00000     0.00000     1.25520  0.0
    276    277    278    285   5     0.00000     0.00000     2.91206  0.0
    276    277    278    286   5     0.00000     0.00000     2.91206  0.0
    276    277    278    287   5     0.00000     0.00000     2.91206  0.0
    279    277    278    285   5     0.00000     0.00000     0.00000  0.0
    279    277    278    286   5     0.00000     0.00000     0.00000  0.0
    279    277    278    287   5     0.00000     0.00000     0.00000  0.0
    276    277    279    288   5     0.00000    58.57600     0.00000  0.0
    276    277    279    289   5     0.00000    58.57600     0.00000  0.0
    278    277    279    288   5     0.00000    58.57600     0.00000  0.0
    278    277    279    289   5     0.00000    58.57600     0.00000  0.0
    276    290    291    297   5     0.00000     0.00000     1.25520  0.0
    276    290    291    298   5     0.00000     0.00000     1.25520  0.0
    276    290    291    299   5     0.00000     0.00000     1.25520  0.0
    292    290    291    297   5     0.00000     0.00000     1.25520  0.0
    292    290    291    298   5     0.00000     0.00000     1.25520  0.0
    292    290    291    299   5     0.00000     0.00000     1.25520  0.0
    296    290    291    297   5     0.00000     0.00000     1.25520  0.0
    296    290    291    298   5     0.00000     0.00000     1.25520  0.0
    296    290    291    299   5     0.00000     0.00000     1.25520  0.0
    276    290    292    293   5     2.87859     0.79078     0.92885  0.0
    276    290    292    300   5     0.00000     0.00000     1.25520  0.0
    276    290    292    306   5     4.74884    -0.63178     1.67360  0.0
    291    290    292    293   5     2.87859     0.79078     0.92885  0.0
    291    290    292    300   5     0.00000     0.00000     1.25520  0.0
    291    290    292    306   5     4.74884    -0.63178     1.67360  0.0
    296    290    292    293   5     0.00000     0.00000     1.25520  0.0
    296    290    292    300   5     0.00000     0.00000     1.25520  0.0
    296    290    292    306   5     0.00000     0.00000     1.25520  0.0
    290    292    293    294   5     3.92041     0.71546     0.82006  0.0
    290    292    293    295   5     0.82425     1.27612    -4.23839  0.0
    300    292    293    294   5     0.00000     0.00000     2.91206  0.0
    300    292    293    295   5     0.00000     0.00000     0.00000  0.0
    306    292    293    294   5     3.92041     0.71546     0.82006  0.0
    306    292    293    295   5     0.82425     1.27612    -4.23839  0.0
    290    292    306    307   5     4.74884    -0.63178     1.67360  0.0
    290    292    306    308   5     4.74884    -0.63178     1.67360  0.0
    290    292    306    312   5     0.00000     0.00000     1.25520  0.0
    293    292    306    307   5     2.87859     0.79078     0.92885  0.0
    293    292    306    308   5     2.87859     0.79078     0.92885  0.0
    293    292    306    312   5     0.00000     0.00000     1.25520  0.0
    300    292    306    307   5     0.00000     0.00000     1.25520  0.0
    300    292    306    308   5     0.00000     0.00000     1.25520  0.0
    300    292    306    312   5     0.00000     0.00000     1.25520  0.0
    292    293    294    301   5     0.00000     0.00000     2.91206  0.0
    292    293    294    302   5     0.00000     0.00000     2.91206  0.0
    292    293    294    303   5     0.00000     0.00000     2.91206  0.0
    295    293    294    301   5     0.00000     0.00000     0.00000  0.0
    295    293    294    302   5     0.00000     0.00000     0.00000  0.0
    295    293    294    303   5     0.00000     0.00000     0.00000  0.0
    292    293    295    304   5     0.00000    58.57600     0.00000  0.0
    292    293    295    305   5     0.00000    58.57600     0.00000  0.0
    294    293    295    304   5     0.00000    58.57600     0.00000  0.0
    294    293    295    305   5     0.00000    58.57600     0.00000  0.0
    292    306    307    313   5     0.00000     0.00000     1.25520  0.0
    292    306    307    314   5     0.00000     0.00000     1.25520  0.0
    292    306    307    315   5     0.00000     0.00000     1.25520  0.0
    308    306    307    313   5     0.00000     0.00000     1.25520  0.0
    308    306    307    314   5     0.00000     0.00000     1.25520  0.0
    308    306    307    315   5     0.00000     0.00000     1.25520  0.0
    312    306    307    313   5     0.00000     0.00000     1.25520  0.0
    312    306    307    314   5     0.00000     0.00000     1.25520  0.0
    312    306    307    315   5     0.00000     0.00000     1.25520  0.0
    292    306    308    309   5     2.87859     0.79078     0.92885  0.0
    292    306    308    316   5     0.00000     0.00000     1.25520  0.0
    292    306    308    322   5     0.00000     0.00000     1.25520  0.0
    307    306    308    309   5     2.87859     0.79078     0.92885  0.0
    307    306    308    316   5     0.00000     0.00000     1.25520  0.0
    307    306    308    322   5     0.00000     0.00000     1.25520  0.0
    312    306    308    309   5     0.00000     0.00000     1.25520  0.0
    312    306    308    316   5     0.00000     0.00000     1.25520  0.0
    312    306    308    322   5     0.00000     0.00000     1.25520  0.0
    306    308    309    310   5     3.92041     0.71546     0.82006  0.0
    306    308    309    311   5     0.82425     1.27612    -4.23839  0.0
    316    308    309    310   5     0.00000     0.00000     2.91206  0.0
    316    308    309    311   5     0.00000     0.00000     0.00000  0.0
    322    308    309    310   5     0.00000     0.00000     2.91206  0.0
    322    308    309    311   5     0.00000     0.00000     0.00000  0.0
    308    309    310    317   5     0.00000     0.00000     2.91206  0.0
    308    309    310    318   5     0.00000     0.00000     2.91206  0.0
    308    309    310    319   5     0.00000     0.00000     2.91206  0.0
    311    309    310    317   5     0.00000     0.00000     0.00000  0.0
    311    309    310    318   5     0.00000     0.00000     0.00000  0.0
    311    309    310    319   5     0.00000     0.00000     0.00000  0.0
    308    309    311    320   5     0.00000    58.57600     0.00000  0.0
    308    309    311    321   5     0.00000    58.57600     0.00000  0.0
    310    309    311    320   5     0.00000    58.57600     0.00000  0.0
    310    309    311    321   5     0.00000    58.57600     0.00000  0.0

[ dihedrals ]
; Improper dihedrals
; h   i   j   k   funct
      3      5      4      6   5     0.00000     9.20480     0.00000  0.0
      4     15      6     16   5     0.00000   125.52000     0.00000  0.0
     20     22     21     23   5     0.00000     9.20480     0.00000  0.0
     21     32     23     33   5     0.00000   125.52000     0.00000  0.0
     36     38     37     39   5     0.00000     9.20480     0.00000  0.0
     37     48     39     49   5     0.00000   125.52000     0.00000  0.0
     52     54     53     55   5     0.00000     9.20480     0.00000  0.0
     53     64     55     65   5     0.00000   125.52000     0.00000  0.0
     68     70     69     71   5     0.00000     9.20480     0.00000  0.0
     69     80     71     81   5     0.00000   125.52000     0.00000  0.0
     84     86     85     87   5     0.00000     9.20480     0.00000  0.0
     85     96     87     97   5     0.00000   125.52000     0.00000  0.0
    100    102    101    103   5     0.00000     9.20480     0.00000  0.0
    101    112    103    113   5     0.00000   125.52000     0.00000  0.0
    116    118    117    119   5     0.00000     9.20480     0.00000  0.0
    117    128    119    129   5     0.00000   125.52000     0.00000  0.0
    132    134    133    135   5     0.00000     9.20480     0.00000  0.0
    133    144    135    145   5     0.00000   125.52000     0.00000  0.0
    148    150    149    151   5     0.00000     9.20480     0.00000  0.0
    149    160    151    161   5     0.00000   125.52000     0.00000  0.0
    164    166    165    167   5     0.00000     9.20480     0.00000  0.0
    165    176    167    177   5     0.00000   125.52000     0.00000  0.0
    180    182    181    183   5     0.00000     9.20480     0.00000  0.0
    181    192    183    193   5     0.00000   125.52000     0.00000  0.0
    196    198    197    199   5     0.00000     9.20480     0.00000  0.0
    197    208    199    209   5     0.00000   125.52000     0.00000  0.0
    212    214    213    215   5     0.00000     9.20480     0.00000  0.0
    213    224    215    225   5     0.00000   125.52000     0.00000  0.0
    228    230    229    231   5     0.00000     9.20480     0.00000  0.0
    229    240    231    241   5     0.00000   125.52000     0.00000  0.0
    244    246    245    247   5     0.00000     9.20480     0.00000  0.0
    245    256    247    257   5     0.00000   125.52000     0.00000  0.0
    260    262    261    263   5     0.00000     9.20480     0.00000  0.0
    261    272    263    273   5     0.00000   125.52000     0.00000  0.0
    276    278    277    279   5     0.00000     9.20480     0.00000  0.0
    277    288    279    289   5     0.00000   125.52000     0.00000  0.0
    292    294    293    295   5     0.00000     9.20480     0.00000  0.0
    293    304    295    305   5     0.00000   125.52000     0.00000  0.0
    308    310    309    311   5     0.00000     9.20480     0.00000  0.0
    309    320    311    321   5     0.00000   125.52000     0.00000  0.0
